 Gaussian 16, Revision C.01,
 Gaussian 16:  ES64L-G16RevC.01  3-Jul-2019

 -------------------------------------------------------------------
 # B3LYP/6-31G* guess=read geom=check nosymm integral(ultrafinegrid)
 -------------------------------------------------------------------

 ------------------------------------------------------
 Candidate Structure: Conf:578 Charge calc in gas phase
 ------------------------------------------------------
 Structure from the checkpoint file:  "conf-578.chk"
 Charge =  1 Multiplicity = 1

                          Input orientation:
 ---------------------------------------------------------------------
 Center     Atomic      Atomic             Coordinates (Angstroms)
 Number     Number       Type             X           Y           Z
 ---------------------------------------------------------------------
      1          7           0       -9.930588    3.246642    7.954378
      2          1           0      -10.950824    3.177633    7.946894
      3          1           0       -9.497070    2.268146    7.971063
      4          1           0       -9.644076    3.778604    8.780460
      5          6           0       -9.349786    3.802673    6.667100
      6          1           0      -10.187026    4.084769    6.023281
      7          6           0       -8.603991    2.569730    6.079602
      8          6           0       -8.437632    5.026050    6.922309
      9          1           0       -8.022381    5.278525    5.938273
     10          8           0       -8.533980    1.552136    6.788357
     11          6           0       -9.248786    6.235762    7.412884
     12          1           0       -9.679044    6.074625    8.411260
     13          1           0       -8.600358    7.113290    7.490034
     14          1           0      -10.066710    6.484370    6.727507
     15          6           0       -7.254510    4.704506    7.849936
     16          1           0       -7.570288    4.493748    8.881781
     17          1           0       -6.663150    3.856464    7.492099
     18          1           0       -6.583508    5.566152    7.897102
     19          7           0       -8.102864    2.721465    4.860758
     20          1           0       -8.053868    3.653112    4.439264
     21          6           0       -7.121103    1.830942    4.231223
     22          1           0       -6.652261    1.233889    5.019932
     23          6           0       -6.083947    2.806278    3.619676
     24          6           0       -7.739306    0.874405    3.171622
     25          1           0       -6.885632    0.342840    2.725787
     26          8           0       -6.363880    4.004493    3.506276
     27          6           0       -8.454617    1.642985    2.040592
     28          1           0       -7.810387    2.458743    1.689106
     29          1           0       -9.356839    2.120419    2.448821
     30          6           0       -8.642006   -0.169666    3.844980
     31          1           0       -9.537765    0.296106    4.272573
     32          1           0       -8.119205   -0.691546    4.653479
     33          1           0       -8.971872   -0.921073    3.122253
     34          6           0       -8.837436    0.769357    0.840085
     35          1           0       -9.286702    1.380192    0.050133
     36          1           0       -7.956405    0.273718    0.415421
     37          1           0       -9.562906   -0.006140    1.106663
     38          7           0       -4.919604    2.252435    3.244352
     39          1           0       -4.821964    1.240555    3.186861
     40          6           0       -3.896482    2.957380    2.484952
     41          1           0       -4.346323    3.864596    2.072520
     42          6           0       -3.456601    1.989657    1.364680
     43          6           0       -2.665333    3.328618    3.359683
     44          1           0       -1.932498    3.824112    2.710956
     45          1           0       -2.202529    2.394896    3.700556
     46          8           0       -3.653155    0.778087    1.492218
     47          6           0       -2.987391    4.207844    4.548609
     48          6           0       -3.187763    5.586139    4.389806
     49          1           0       -3.110665    6.029581    3.399586
     50          6           0       -3.078372    3.663744    5.836053
     51          1           0       -2.908194    2.599015    5.978663
     52          6           0       -3.466484    6.399817    5.487129
     53          1           0       -3.602682    7.468495    5.344684
     54          6           0       -3.353716    4.474692    6.939520
     55          1           0       -3.391987    4.037225    7.934188
     56          6           0       -3.547527    5.846554    6.767749
     57          1           0       -3.735185    6.485149    7.627485
     58          7           0       -2.847553    2.570465    0.314566
     59          1           0       -2.568392    3.549280    0.371045
     60          6           0       -2.075587    1.850946   -0.694115
     61          1           0       -1.837472    0.858978   -0.298542
     62          6           0       -0.780006    2.677478   -0.877009
     63          6           0       -2.826223    1.726590   -2.040090
     64          1           0       -2.138562    1.292566   -2.779051
     65          1           0       -3.050849    2.743828   -2.388293
     66          8           0       -0.722408    3.840818   -0.466255
     67          6           0       -4.122565    0.893512   -2.014671
     68          1           0       -4.773300    1.304651   -1.229803
     69          6           0       -4.853251    1.039502   -3.358730
     70          1           0       -4.243740    0.647534   -4.183020
     71          1           0       -5.080369    2.088652   -3.582730
     72          1           0       -5.798198    0.484023   -3.354150
     73          6           0       -3.862931   -0.585196   -1.689900
     74          1           0       -3.165125   -1.029760   -2.411961
     75          1           0       -4.795863   -1.159071   -1.740360
     76          1           0       -3.455668   -0.713346   -0.682603
     77          7           0        0.223154    2.053380   -1.517689
     78          1           0        0.117548    1.111566   -1.886351
     79          6           0        1.461352    2.707215   -1.927526
     80          1           0        1.234733    3.734824   -2.221062
     81          6           0        1.948541    1.923886   -3.163766
     82          6           0        2.475728    2.742975   -0.749652
     83          1           0        2.446661    1.754783   -0.273542
     84          1           0        2.071271    3.455395   -0.022056
     85          8           0        1.593658    0.763948   -3.387066
     86          6           0        3.957565    3.059153   -1.032275
     87          1           0        4.496845    2.995894   -0.081388
     88          1           0        4.380969    2.278142   -1.680444
     89          6           0        4.351124    4.389679   -1.695772
     90          8           0        3.622397    4.875960   -2.604090
     91          8           0        5.467942    4.881360   -1.333503
     92          7           0        2.761428    2.649624   -3.953933
     93          1           0        3.051500    3.561040   -3.570715
     94          6           0        3.441705    2.133720   -5.119530
     95          1           0        2.705977    1.791022   -5.857351
     96          6           0        4.403673    0.985426   -4.760821
     97          6           0        4.277672    3.279449   -5.733381
     98          1           0        5.004705    3.621801   -4.989256
     99          1           0        4.821466    2.897726   -6.602849
    100          8           0        5.126110    1.033300   -3.757869
    101          6           0        3.386006    4.424385   -6.231914
    102          7           0        3.410931    5.558237   -5.471417
    103          1           0        2.723499    6.258819   -5.721522
    104          1           0        3.686938    5.524757   -4.488574
    105          8           0        2.734429    4.304408   -7.260554
    106          7           0        4.474786   -0.018397   -5.666664
    107          1           0        3.854833   -0.003407   -6.466357
    108          6           0        5.386833   -1.163103   -5.528313
    109          1           0        5.424745   -1.410880   -4.462931
    110          6           0        6.794646   -0.717221   -5.997766
    111          6           0        4.864582   -2.366522   -6.329810
    112          1           0        3.788823   -2.449900   -6.133082
    113          1           0        4.996482   -2.153528   -7.396365
    114          8           0        7.223274   -0.928639   -7.123496
    115          6           0        5.547999   -3.669843   -5.965796
    116          6           0        6.706252   -4.102507   -6.629874
    117          1           0        7.122792   -3.489323   -7.423051
    118          6           0        5.038179   -4.474922   -4.940320
    119          1           0        4.135249   -4.170661   -4.414590
    120          6           0        7.334418   -5.294776   -6.283703
    121          1           0        8.227712   -5.630158   -6.801080
    122          6           0        5.657482   -5.671779   -4.581470
    123          1           0        5.239850   -6.286013   -3.785444
    124          8           0        7.465900   -7.248002   -4.957850
    125          1           0        6.994316   -7.703955   -4.243540
    126          6           0        6.810952   -6.085687   -5.255228
    127          7           0        7.480759   -0.017802   -5.037152
    128          1           0        6.923853    0.303307   -4.243967
    129          6           0        8.682461    0.734407   -5.371755
    130          1           0        9.087039    0.295204   -6.285308
    131          6           0        9.727395    0.488362   -4.286230
    132          6           0        8.353417    2.229772   -5.576271
    133          1           0        7.691320    2.294492   -6.446089
    134          1           0        7.758377    2.551425   -4.714655
    135          8           0       10.751387   -0.131296   -4.413869
    136          6           0        9.570540    3.162655   -5.760766
    137          1           0       10.491055    2.689847   -5.389424
    138          1           0        9.753703    3.359372   -6.822784
    139          6           0        9.398074    4.507791   -5.035526
    140          1           0       10.252685    5.163698   -5.232950
    141          1           0        8.496530    5.018181   -5.386744
    142          7           0        9.267786    4.291476   -3.585943
    143          1           0        9.834852    3.533097   -3.224443
    144          7           0        7.312034    5.516595   -3.152319
    145          1           0        6.445161    5.578051   -2.565654
    146          1           0        7.631391    6.302465   -3.699324
    147          7           0        7.870353    3.720967   -1.818011
    148          1           0        6.982580    3.931859   -1.327458
    149          1           0        8.176978    2.756885   -1.869972
    150          6           0        8.142432    4.514353   -2.866052
    151          8           0        9.384673    1.055357   -3.075099
    152          1           0       10.064019    0.736989   -2.448110
 ---------------------------------------------------------------------

 SCF Done:  E(RB3LYP) =  -3586.64568280     A.U. after    2 cycles

 Alpha  occ. eigenvalues --  -19.27735 -19.26499 -19.21496 -19.21190 -19.20969
 Alpha  occ. eigenvalues --  -19.18792 -19.17853 -19.16970 -19.16881 -19.15977
 Alpha  occ. eigenvalues --  -19.14529 -19.14257 -19.14196 -14.59301 -14.48575
 Alpha  occ. eigenvalues --  -14.45339 -14.44565 -14.43321 -14.42954 -14.42465
 Alpha  occ. eigenvalues --  -14.42194 -14.41091 -14.40638 -14.38868 -14.37858
 Alpha  occ. eigenvalues --  -10.42995 -10.40551 -10.40029 -10.39229 -10.38154
 Alpha  occ. eigenvalues --  -10.35759 -10.34648 -10.34002 -10.33910 -10.33897
 Alpha  occ. eigenvalues --  -10.33463 -10.32609 -10.32228 -10.32125 -10.31124
 Alpha  occ. eigenvalues --  -10.31100 -10.30521 -10.30114 -10.30075 -10.28878
 Alpha  occ. eigenvalues --  -10.28847 -10.28668 -10.28457 -10.28071 -10.27147
 Alpha  occ. eigenvalues --  -10.26951 -10.26586 -10.26343 -10.26228 -10.26115
 Alpha  occ. eigenvalues --  -10.25722 -10.25617 -10.25523 -10.25512 -10.25495
 Alpha  occ. eigenvalues --  -10.25331 -10.24555 -10.24396 -10.23793 -10.23688
 Alpha  occ. eigenvalues --  -10.23575 -10.22908 -10.22551 -10.22480 -10.22242
 Alpha  occ. eigenvalues --  -10.21921 -10.21825 -10.21661 -10.21423 -10.21254
 Alpha  occ. eigenvalues --   -1.18792  -1.17863  -1.13407  -1.12888  -1.10555
 Alpha  occ. eigenvalues --   -1.09703  -1.09348  -1.08994  -1.08979  -1.08725
 Alpha  occ. eigenvalues --   -1.08561  -1.07477  -1.07199  -1.05990  -1.05412
 Alpha  occ. eigenvalues --   -1.01246  -0.99541  -0.98907  -0.98584  -0.98348
 Alpha  occ. eigenvalues --   -0.97976  -0.97186  -0.96575  -0.96440  -0.94811
 Alpha  occ. eigenvalues --   -0.92789  -0.92124  -0.90339  -0.88626  -0.87247
 Alpha  occ. eigenvalues --   -0.86770  -0.86130  -0.85457  -0.84545  -0.83171
 Alpha  occ. eigenvalues --   -0.82519  -0.81873  -0.81539  -0.81415  -0.80950
 Alpha  occ. eigenvalues --   -0.80854  -0.79520  -0.78569  -0.77845  -0.77084
 Alpha  occ. eigenvalues --   -0.75527  -0.75385  -0.73779  -0.73507  -0.73318
 Alpha  occ. eigenvalues --   -0.72384  -0.72099  -0.72061  -0.71348  -0.71108
 Alpha  occ. eigenvalues --   -0.70651  -0.70317  -0.69674  -0.69013  -0.67668
 Alpha  occ. eigenvalues --   -0.67320  -0.66952  -0.66555  -0.66270  -0.66217
 Alpha  occ. eigenvalues --   -0.65712  -0.65316  -0.64908  -0.64328  -0.63870
 Alpha  occ. eigenvalues --   -0.63244  -0.63095  -0.62201  -0.61950  -0.61786
 Alpha  occ. eigenvalues --   -0.61765  -0.61439  -0.61246  -0.60132  -0.59098
 Alpha  occ. eigenvalues --   -0.58813  -0.58244  -0.57921  -0.57784  -0.57771
 Alpha  occ. eigenvalues --   -0.57483  -0.57348  -0.57157  -0.56975  -0.56207
 Alpha  occ. eigenvalues --   -0.55859  -0.55724  -0.55514  -0.55357  -0.54854
 Alpha  occ. eigenvalues --   -0.54641  -0.54474  -0.54230  -0.54027  -0.53735
 Alpha  occ. eigenvalues --   -0.53453  -0.53083  -0.52578  -0.52267  -0.52103
 Alpha  occ. eigenvalues --   -0.52011  -0.51822  -0.51781  -0.51522  -0.51429
 Alpha  occ. eigenvalues --   -0.51239  -0.51136  -0.50599  -0.50405  -0.50251
 Alpha  occ. eigenvalues --   -0.50059  -0.49806  -0.49543  -0.49250  -0.49058
 Alpha  occ. eigenvalues --   -0.48828  -0.48598  -0.48584  -0.48447  -0.48064
 Alpha  occ. eigenvalues --   -0.47851  -0.47724  -0.47619  -0.47522  -0.47147
 Alpha  occ. eigenvalues --   -0.47032  -0.46928  -0.46600  -0.46569  -0.46449
 Alpha  occ. eigenvalues --   -0.46304  -0.46196  -0.45966  -0.45712  -0.45675
 Alpha  occ. eigenvalues --   -0.45532  -0.45311  -0.45117  -0.44939  -0.44878
 Alpha  occ. eigenvalues --   -0.44691  -0.44399  -0.44013  -0.43851  -0.43497
 Alpha  occ. eigenvalues --   -0.43388  -0.43242  -0.42958  -0.42830  -0.42649
 Alpha  occ. eigenvalues --   -0.42401  -0.42364  -0.42353  -0.42210  -0.41947
 Alpha  occ. eigenvalues --   -0.41831  -0.41732  -0.41497  -0.41207  -0.41100
 Alpha  occ. eigenvalues --   -0.40792  -0.40734  -0.40528  -0.40411  -0.40311
 Alpha  occ. eigenvalues --   -0.40160  -0.40140  -0.39696  -0.39549  -0.38784
 Alpha  occ. eigenvalues --   -0.38681  -0.38128  -0.37735  -0.37457  -0.37025
 Alpha  occ. eigenvalues --   -0.36927  -0.36724  -0.35881  -0.35362  -0.35309
 Alpha  occ. eigenvalues --   -0.35196  -0.34619  -0.34415  -0.33324  -0.32902
 Alpha  occ. eigenvalues --   -0.32319  -0.32234  -0.31477  -0.31115  -0.30856
 Alpha  occ. eigenvalues --   -0.30723  -0.30543  -0.30263  -0.29905  -0.29497
 Alpha  occ. eigenvalues --   -0.29287  -0.29088  -0.29044  -0.28247  -0.28139
 Alpha  occ. eigenvalues --   -0.27806  -0.24957
 Alpha virt. eigenvalues --   -0.11879  -0.10897  -0.07372  -0.07018  -0.06718
 Alpha virt. eigenvalues --   -0.06601  -0.06409  -0.05905  -0.04553  -0.04200
 Alpha virt. eigenvalues --   -0.03487  -0.03472  -0.02928  -0.02699  -0.02170

 Mulliken charges:
               1
     1  N   -0.763736
     2  H    0.414500
     3  H    0.434983
     4  H    0.409009
     5  C   -0.101974
     6  H    0.212918
     7  C    0.648340
     8  C   -0.131466
     9  H    0.201365
    10  O   -0.547489
    11  C   -0.461467
    12  H    0.136834
    13  H    0.198323
    14  H    0.171092
    15  C   -0.476746
    16  H    0.134973
    17  H    0.190736
    18  H    0.200645
    19  N   -0.589412
    20  H    0.375507
    21  C   -0.091696
    22  H    0.188291
    23  C    0.639299
    24  C   -0.082485
    25  H    0.154119
    26  O   -0.552791
    27  C   -0.271720
    28  H    0.156070
    29  H    0.128035
    30  C   -0.452948
    31  H    0.138448
    32  H    0.159163
    33  H    0.170988
    34  C   -0.454668
    35  H    0.159602
    36  H    0.160338
    37  H    0.154671
    38  N   -0.601629
    39  H    0.361315
    40  C   -0.073854
    41  H    0.189648
    42  C    0.623983
    43  C   -0.372529
    44  H    0.181262
    45  H    0.163615
    46  O   -0.544779
    47  C    0.188647
    48  C   -0.164871
    49  H    0.136793
    50  C   -0.189955
    51  H    0.128215
    52  C   -0.130639
    53  H    0.139640
    54  C   -0.137037
    55  H    0.130596
    56  C   -0.140715
    57  H    0.130011
    58  N   -0.596133
    59  H    0.357389
    60  C   -0.083200
    61  H    0.181525
    62  C    0.623632
    63  C   -0.254128
    64  H    0.148357
    65  H    0.144731
    66  O   -0.550449
    67  C   -0.065873
    68  H    0.125800
    69  C   -0.444952
    70  H    0.148173
    71  H    0.141962
    72  H    0.142519
    73  C   -0.462288
    74  H    0.139110
    75  H    0.140262
    76  H    0.170098
    77  N   -0.616525
    78  H    0.354366
    79  C   -0.055376
    80  H    0.198351
    81  C    0.603591
    82  C   -0.254073
    83  H    0.140647
    84  H    0.170169
    85  O   -0.558995
    86  C   -0.401272
    87  H    0.149606
    88  H    0.193653
    89  C    0.613489
    90  O   -0.578348
    91  O   -0.610149
    92  N   -0.653187
    93  H    0.408662
    94  C   -0.026439
    95  H    0.177546
    96  C    0.655511
    97  C   -0.397416
    98  H    0.163575
    99  H    0.174059
   100  O   -0.564136
   101  C    0.577863
   102  N   -0.765423
   103  H    0.334136
   104  H    0.377367
   105  O   -0.508948
   106  N   -0.607220
   107  H    0.349432
   108  C   -0.042300
   109  H    0.183185
   110  C    0.628583
   111  C   -0.387857
   112  H    0.156484
   113  H    0.175337
   114  O   -0.512248
   115  C    0.146721
   116  C   -0.188219
   117  H    0.162043
   118  C   -0.189043
   119  H    0.127202
   120  C   -0.159934
   121  H    0.146353
   122  C   -0.193329
   123  H    0.119798
   124  O   -0.639087
   125  H    0.408045
   126  C    0.351917
   127  N   -0.625951
   128  H    0.375328
   129  C   -0.041400
   130  H    0.215746
   131  C    0.582646
   132  C   -0.292615
   133  H    0.180252
   134  H    0.158597
   135  O   -0.428032
   136  C   -0.305329
   137  H    0.162022
   138  H    0.179116
   139  C   -0.160070
   140  H    0.180855
   141  H    0.175434
   142  N   -0.582721
   143  H    0.344750
   144  N   -0.763585
   145  H    0.420416
   146  H    0.355005
   147  N   -0.777137
   148  H    0.406667
   149  H    0.360739
   150  C    0.739524
   151  O   -0.602743
   152  H    0.420411
 Sum of Mulliken charges =   1.00000

 Dipole moment (field-independent basis, Debye):
    X=            -24.2992    Y=             17.3943    Z=             26.0159  Tot=             39.6212
 Quadrupole moment (field-independent basis, Debye-Ang):
   XX=             41.7281   YY=           -356.8203   ZZ=           -240.6914
   XY=            -72.2667   XZ=           -301.3156   YZ=             83.6129

 Normal termination of Gaussian 16 at Sat Aug 13 08:29:53 2022.
