 Gaussian 16, Revision C.01,
 Gaussian 16:  ES64L-G16RevC.01  3-Jul-2019

 -------------------------------------------------------------------
 # B3LYP/6-31G* guess=read geom=check nosymm integral(ultrafinegrid)
 -------------------------------------------------------------------

 ------------------------------------------------------
 Candidate Structure: Conf:972 Charge calc in gas phase
 ------------------------------------------------------
 Structure from the checkpoint file:  "conf-972.chk"
 Charge =  1 Multiplicity = 1

                          Input orientation:
 ---------------------------------------------------------------------
 Center     Atomic      Atomic             Coordinates (Angstroms)
 Number     Number       Type             X           Y           Z
 ---------------------------------------------------------------------
      1          7           0      -11.760101    2.475570    1.240587
      2          1           0      -11.882614    1.619184    0.694061
      3          1           0      -11.860217    2.178515    2.226470
      4          1           0      -12.467951    3.157747    0.961596
      5          6           0      -10.350773    3.008257    1.113748
      6          1           0      -10.083776    2.925245    0.055182
      7          6           0       -9.461581    2.081473    2.000815
      8          6           0      -10.299439    4.482124    1.575950
      9          1           0       -9.234489    4.739810    1.535086
     10          8           0       -9.953864    1.329353    2.845255
     11          6           0      -11.041446    5.407804    0.604254
     12          1           0      -12.127622    5.255441    0.631194
     13          1           0      -10.870073    6.452169    0.879863
     14          1           0      -10.702141    5.275208   -0.427821
     15          6           0      -10.778786    4.669229    3.020204
     16          1           0      -11.862930    4.532630    3.109379
     17          1           0      -10.287685    3.981734    3.714220
     18          1           0      -10.562412    5.689235    3.349565
     19          7           0       -8.144448    2.235543    1.798764
     20          1           0       -7.769423    2.812220    1.048574
     21          6           0       -7.102756    1.477979    2.496572
     22          1           0       -7.397279    1.398903    3.544613
     23          6           0       -5.835216    2.341351    2.334082
     24          6           0       -6.943241    0.041444    1.910373
     25          1           0       -7.914136   -0.435908    2.089955
     26          8           0       -5.661176    2.994616    1.306127
     27          6           0       -5.879772   -0.786709    2.655234
     28          1           0       -4.888037   -0.330627    2.542427
     29          1           0       -5.817967   -1.755439    2.146100
     30          6           0       -6.666282    0.033316    0.404090
     31          1           0       -5.657427    0.393546    0.181249
     32          1           0       -7.374225    0.654490   -0.151973
     33          1           0       -6.751283   -0.987822    0.019534
     34          6           0       -6.171462   -1.046779    4.134785
     35          1           0       -5.392386   -1.679584    4.569162
     36          1           0       -6.204514   -0.129540    4.735381
     37          1           0       -7.132752   -1.555089    4.269484
     38          7           0       -4.988806    2.373918    3.393745
     39          1           0       -5.086133    1.644327    4.087675
     40          6           0       -3.629162    2.915602    3.270455
     41          1           0       -3.693927    3.809886    2.650675
     42          6           0       -2.730004    1.845331    2.623135
     43          6           0       -3.100369    3.277615    4.674795
     44          1           0       -3.081189    2.360396    5.272318
     45          1           0       -3.821944    3.958467    5.134813
     46          8           0       -2.669032    0.707080    3.135122
     47          6           0       -1.725198    3.908825    4.647903
     48          6           0       -0.572344    3.113950    4.638313
     49          1           0       -0.668871    2.031041    4.667851
     50          6           0       -1.581984    5.299535    4.604111
     51          1           0       -2.467101    5.929866    4.622771
     52          6           0        0.693025    3.700261    4.584618
     53          1           0        1.577269    3.070708    4.577010
     54          6           0       -0.317955    5.886098    4.550140
     55          1           0       -0.226554    6.967434    4.520190
     56          6           0        0.823010    5.087091    4.539073
     57          1           0        1.807962    5.540727    4.500405
     58          7           0       -2.075675    2.233141    1.501046
     59          1           0       -2.077227    3.212483    1.242092
     60          6           0       -0.992351    1.469954    0.891839
     61          1           0       -0.823961    0.594897    1.521992
     62          6           0        0.237386    2.389115    0.881459
     63          6           0       -1.309789    1.055106   -0.557958
     64          1           0       -0.471548    0.451202   -0.926075
     65          1           0       -1.315841    1.962570   -1.171115
     66          8           0        0.117020    3.581542    0.642533
     67          6           0       -2.633120    0.299683   -0.755477
     68          1           0       -3.442749    0.972741   -0.441088
     69          6           0       -2.833499   -0.008620   -2.242931
     70          1           0       -2.041140   -0.668761   -2.612540
     71          1           0       -2.816579    0.904000   -2.847729
     72          1           0       -3.792248   -0.510936   -2.415343
     73          6           0       -2.720990   -0.981228    0.079476
     74          1           0       -1.971628   -1.710505   -0.249378
     75          1           0       -3.706395   -1.448972   -0.037011
     76          1           0       -2.569650   -0.790897    1.143975
     77          7           0        1.432613    1.794715    1.165472
     78          1           0        1.458980    0.786262    1.097649
     79          6           0        2.671165    2.463106    0.807911
     80          1           0        2.618614    3.479574    1.205974
     81          6           0        2.795173    2.574895   -0.729971
     82          6           0        3.869451    1.723332    1.492753
     83          1           0        4.009482    0.727424    1.066078
     84          1           0        3.552029    1.597051    2.534953
     85          8           0        2.059131    2.004582   -1.512545
     86          6           0        5.241940    2.404982    1.495895
     87          1           0        5.631425    2.445324    0.472665
     88          1           0        5.187153    3.408854    1.925870
     89          6           0        6.328831    1.547248    2.274171
     90          8           0        6.211803    0.322968    2.033963
     91          8           0        7.138616    2.187278    2.960372
     92          7           0        3.839874    3.381714   -1.136079
     93          1           0        4.608781    3.390936   -0.479480
     94          6           0        4.269518    3.465483   -2.520415
     95          1           0        3.525919    4.027054   -3.098009
     96          6           0        4.396696    2.076670   -3.209864
     97          6           0        5.626047    4.227224   -2.493301
     98          1           0        5.436276    5.296852   -2.372024
     99          1           0        6.170518    3.886156   -1.612964
    100          8           0        4.702681    1.055800   -2.602038
    101          6           0        6.572860    3.900923   -3.628985
    102          7           0        6.327607    4.407519   -4.860825
    103          1           0        6.763358    3.938405   -5.643575
    104          1           0        5.568868    5.045675   -5.034049
    105          8           0        7.515555    3.152354   -3.401477
    106          7           0        4.138538    2.096589   -4.557006
    107          1           0        4.295699    2.976514   -5.027906
    108          6           0        4.346647    0.912869   -5.385133
    109          1           0        3.984178    0.063711   -4.803686
    110          6           0        5.860194    0.737682   -5.651859
    111          6           0        3.562208    1.049561   -6.699385
    112          1           0        2.523363    1.275180   -6.444083
    113          1           0        3.962065    1.916604   -7.239329
    114          8           0        6.539626    1.635447   -6.172511
    115          6           0        3.643900   -0.178300   -7.575184
    116          6           0        4.700813   -0.343905   -8.480557
    117          1           0        5.464727    0.427514   -8.551891
    118          6           0        2.680104   -1.187990   -7.498705
    119          1           0        1.844006   -1.081676   -6.813697
    120          6           0        4.795923   -1.478356   -9.282289
    121          1           0        5.610256   -1.603593   -9.986584
    122          6           0        2.763921   -2.330109   -8.293186
    123          1           0        2.002662   -3.102715   -8.218297
    124          8           0        3.966580   -3.567844   -9.997352
    125          1           0        3.240654   -4.183208   -9.831235
    126          6           0        3.825113   -2.477177   -9.187722
    127          7           0        6.370072   -0.433511   -5.194076
    128          1           0        5.744367   -1.190504   -4.957775
    129          6           0        7.790430   -0.738602   -5.143195
    130          1           0        8.295539   -0.281549   -5.999778
    131          6           0        7.914002   -2.247998   -5.216306
    132          6           0        8.427468   -0.201214   -3.824293
    133          1           0        9.512389   -0.319536   -3.863264
    134          1           0        8.209145    0.870929   -3.824947
    135          8           0        6.994612   -3.023201   -5.082982
    136          6           0        7.820192   -0.833319   -2.557671
    137          1           0        6.752223   -1.001557   -2.721179
    138          1           0        8.253985   -1.815225   -2.337932
    139          6           0        7.864589    0.066487   -1.329423
    140          1           0        7.398983    1.017303   -1.590759
    141          1           0        7.313307   -0.382786   -0.496239
    142          7           0        9.260414    0.330536   -0.910850
    143          1           0        9.870495   -0.475950   -0.921958
    144          7           0        8.727794    2.196846    0.352130
    145          1           0        9.023638    3.029201    0.838953
    146          1           0        7.807796    2.223542   -0.057480
    147          7           0       10.853720    1.294284    0.456855
    148          1           0       11.170763    2.090087    0.989194
    149          1           0       11.577710    0.774315   -0.016287
    150          6           0        9.604590    1.290154   -0.050066
    151          8           0        9.188983   -2.633905   -5.405300
    152          1           0        9.187738   -3.606348   -5.416783
 ---------------------------------------------------------------------

 SCF Done:  E(RB3LYP) =  -3586.53165871     A.U. after    1 cycles

 Alpha  occ. eigenvalues --  -19.25711 -19.25586 -19.21604 -19.20824 -19.20143
 Alpha  occ. eigenvalues --  -19.17155 -19.17130 -19.16620 -19.16453 -19.15441
 Alpha  occ. eigenvalues --  -19.15363 -19.04516 -19.04141 -14.62171 -14.48384
 Alpha  occ. eigenvalues --  -14.46338 -14.45686 -14.45360 -14.44456 -14.41515
 Alpha  occ. eigenvalues --  -14.41475 -14.41036 -14.40882 -14.39366 -14.39163
 Alpha  occ. eigenvalues --  -10.42900 -10.41892 -10.40985 -10.37950 -10.37759
 Alpha  occ. eigenvalues --  -10.34867 -10.34680 -10.34488 -10.33682 -10.33529
 Alpha  occ. eigenvalues --  -10.33030 -10.32300 -10.31825 -10.31384 -10.30776
 Alpha  occ. eigenvalues --  -10.30042 -10.29348 -10.29320 -10.28770 -10.28402
 Alpha  occ. eigenvalues --  -10.28106 -10.27761 -10.27417 -10.26098 -10.25741
 Alpha  occ. eigenvalues --  -10.25212 -10.25046 -10.24897 -10.24457 -10.24367
 Alpha  occ. eigenvalues --  -10.24167 -10.23983 -10.23952 -10.23231 -10.23216
 Alpha  occ. eigenvalues --  -10.23139 -10.23022 -10.22972 -10.22924 -10.22846
 Alpha  occ. eigenvalues --  -10.22743 -10.22597 -10.22509 -10.22455 -10.22433
 Alpha  occ. eigenvalues --  -10.22279 -10.21482 -10.20924 -10.20066 -10.18006
 Alpha  occ. eigenvalues --   -1.18491  -1.16897  -1.15466  -1.12771  -1.11034
 Alpha  occ. eigenvalues --   -1.09784  -1.09266  -1.08549  -1.08356  -1.08054
 Alpha  occ. eigenvalues --   -1.07676  -1.07393  -1.06683  -1.04783  -1.00705
 Alpha  occ. eigenvalues --   -1.00038  -0.99259  -0.97874  -0.97759  -0.97647
 Alpha  occ. eigenvalues --   -0.97520  -0.96677  -0.96294  -0.95971  -0.95914
 Alpha  occ. eigenvalues --   -0.90108  -0.89631  -0.89594  -0.89477  -0.86788
 Alpha  occ. eigenvalues --   -0.86014  -0.85663  -0.84588  -0.84412  -0.82922
 Alpha  occ. eigenvalues --   -0.82419  -0.81682  -0.81336  -0.80773  -0.79664
 Alpha  occ. eigenvalues --   -0.78769  -0.78705  -0.78145  -0.77318  -0.77259
 Alpha  occ. eigenvalues --   -0.76159  -0.75009  -0.74670  -0.73533  -0.72449
 Alpha  occ. eigenvalues --   -0.72344  -0.72301  -0.72260  -0.71991  -0.71501
 Alpha  occ. eigenvalues --   -0.70313  -0.69767  -0.69077  -0.68848  -0.67734
 Alpha  occ. eigenvalues --   -0.67423  -0.66813  -0.66175  -0.66021  -0.65122
 Alpha  occ. eigenvalues --   -0.64732  -0.64444  -0.64373  -0.64162  -0.63602
 Alpha  occ. eigenvalues --   -0.63161  -0.62531  -0.62303  -0.62147  -0.62061
 Alpha  occ. eigenvalues --   -0.61717  -0.61201  -0.60541  -0.59686  -0.59391
 Alpha  occ. eigenvalues --   -0.59224  -0.59173  -0.59054  -0.58446  -0.58270
 Alpha  occ. eigenvalues --   -0.58194  -0.57383  -0.56947  -0.56413  -0.55881
 Alpha  occ. eigenvalues --   -0.55592  -0.55205  -0.54942  -0.54590  -0.54409
 Alpha  occ. eigenvalues --   -0.54046  -0.53812  -0.53493  -0.52855  -0.52755
 Alpha  occ. eigenvalues --   -0.52629  -0.52405  -0.52241  -0.52084  -0.51919
 Alpha  occ. eigenvalues --   -0.51564  -0.51384  -0.51174  -0.51130  -0.50728
 Alpha  occ. eigenvalues --   -0.50164  -0.50146  -0.50051  -0.49874  -0.49667
 Alpha  occ. eigenvalues --   -0.49341  -0.48891  -0.48780  -0.48673  -0.48528
 Alpha  occ. eigenvalues --   -0.48174  -0.48053  -0.47969  -0.47681  -0.47620
 Alpha  occ. eigenvalues --   -0.47608  -0.47371  -0.47124  -0.46708  -0.46548
 Alpha  occ. eigenvalues --   -0.46224  -0.46200  -0.46047  -0.45942  -0.45672
 Alpha  occ. eigenvalues --   -0.45533  -0.45431  -0.45405  -0.45286  -0.44695
 Alpha  occ. eigenvalues --   -0.44575  -0.44348  -0.44203  -0.44138  -0.43971
 Alpha  occ. eigenvalues --   -0.43798  -0.43479  -0.43382  -0.42809  -0.42757
 Alpha  occ. eigenvalues --   -0.42633  -0.42351  -0.42196  -0.41928  -0.41921
 Alpha  occ. eigenvalues --   -0.41416  -0.41334  -0.40962  -0.40835  -0.40468
 Alpha  occ. eigenvalues --   -0.40223  -0.40172  -0.40068  -0.39949  -0.39877
 Alpha  occ. eigenvalues --   -0.39410  -0.39206  -0.39176  -0.38986  -0.38540
 Alpha  occ. eigenvalues --   -0.38193  -0.37898  -0.37783  -0.37572  -0.37394
 Alpha  occ. eigenvalues --   -0.37172  -0.36677  -0.36603  -0.36581  -0.36455
 Alpha  occ. eigenvalues --   -0.36344  -0.35602  -0.34851  -0.34664  -0.34270
 Alpha  occ. eigenvalues --   -0.33850  -0.33794  -0.32997  -0.32446  -0.32186
 Alpha  occ. eigenvalues --   -0.31654  -0.31477  -0.30992  -0.30687  -0.30426
 Alpha  occ. eigenvalues --   -0.30203  -0.29480  -0.29090  -0.28818  -0.28688
 Alpha  occ. eigenvalues --   -0.28406  -0.28293  -0.27778  -0.25720  -0.20549
 Alpha  occ. eigenvalues --   -0.18855  -0.18588
 Alpha virt. eigenvalues --   -0.12612  -0.11566  -0.07296  -0.06993  -0.05969
 Alpha virt. eigenvalues --   -0.05335  -0.04937  -0.04572  -0.04559  -0.04240
 Alpha virt. eigenvalues --   -0.04137  -0.03595  -0.03468  -0.03344  -0.03074

 Mulliken charges:
               1
     1  N   -0.732459
     2  H    0.426138
     3  H    0.427762
     4  H    0.419147
     5  C   -0.135375
     6  H    0.210827
     7  C    0.645136
     8  C   -0.112193
     9  H    0.196265
    10  O   -0.531719
    11  C   -0.470508
    12  H    0.137987
    13  H    0.203985
    14  H    0.175378
    15  C   -0.484406
    16  H    0.139844
    17  H    0.195588
    18  H    0.200552
    19  N   -0.610788
    20  H    0.362840
    21  C   -0.058424
    22  H    0.184265
    23  C    0.626662
    24  C   -0.081917
    25  H    0.145698
    26  O   -0.541864
    27  C   -0.297120
    28  H    0.189504
    29  H    0.153850
    30  C   -0.470057
    31  H    0.194417
    32  H    0.114198
    33  H    0.161206
    34  C   -0.460316
    35  H    0.177904
    36  H    0.125215
    37  H    0.153067
    38  N   -0.603550
    39  H    0.354943
    40  C   -0.055500
    41  H    0.175551
    42  C    0.645043
    43  C   -0.374490
    44  H    0.168442
    45  H    0.155376
    46  O   -0.562015
    47  C    0.153205
    48  C   -0.188428
    49  H    0.150385
    50  C   -0.182825
    51  H    0.116395
    52  C   -0.127822
    53  H    0.152190
    54  C   -0.123179
    55  H    0.133180
    56  C   -0.121603
    57  H    0.141224
    58  N   -0.574839
    59  H    0.353654
    60  C   -0.097691
    61  H    0.179204
    62  C    0.650711
    63  C   -0.257267
    64  H    0.157862
    65  H    0.155284
    66  O   -0.537150
    67  C   -0.081171
    68  H    0.132716
    69  C   -0.440818
    70  H    0.146429
    71  H    0.141844
    72  H    0.131660
    73  C   -0.476155
    74  H    0.139492
    75  H    0.128434
    76  H    0.182858
    77  N   -0.594766
    78  H    0.335240
    79  C   -0.080193
    80  H    0.182294
    81  C    0.629807
    82  C   -0.272590
    83  H    0.171032
    84  H    0.158776
    85  O   -0.520450
    86  C   -0.378292
    87  H    0.079791
    88  H    0.123029
    89  C    0.547240
    90  O   -0.604603
    91  O   -0.615177
    92  N   -0.617602
    93  H    0.343532
    94  C   -0.031223
    95  H    0.160682
    96  C    0.633270
    97  C   -0.386005
    98  H    0.180681
    99  H    0.164671
   100  O   -0.529638
   101  C    0.589607
   102  N   -0.745886
   103  H    0.381646
   104  H    0.335615
   105  O   -0.508918
   106  N   -0.591200
   107  H    0.320774
   108  C   -0.042225
   109  H    0.174178
   110  C    0.651589
   111  C   -0.372486
   112  H    0.163773
   113  H    0.152645
   114  O   -0.572151
   115  C    0.150444
   116  C   -0.193278
   117  H    0.147752
   118  C   -0.192028
   119  H    0.130176
   120  C   -0.160064
   121  H    0.144892
   122  C   -0.190453
   123  H    0.123030
   124  O   -0.638803
   125  H    0.409702
   126  C    0.354075
   127  N   -0.596034
   128  H    0.363438
   129  C   -0.048500
   130  H    0.201876
   131  C    0.592731
   132  C   -0.286401
   133  H    0.146143
   134  H    0.221003
   135  O   -0.465317
   136  C   -0.323625
   137  H    0.196403
   138  H    0.144215
   139  C   -0.182543
   140  H    0.195037
   141  H    0.237092
   142  N   -0.603073
   143  H    0.348988
   144  N   -0.708161
   145  H    0.375098
   146  H    0.409612
   147  N   -0.753628
   148  H    0.372598
   149  H    0.365558
   150  C    0.820089
   151  O   -0.566608
   152  H    0.420226
 Sum of Mulliken charges =   1.00000

 Dipole moment (field-independent basis, Debye):
    X=            -30.5621    Y=             13.9602    Z=             -6.2584  Tot=             34.1774
 Quadrupole moment (field-independent basis, Debye-Ang):
   XX=            274.7322   YY=           -351.0844   ZZ=           -430.5822
   XY=           -115.4069   XZ=           -112.5979   YZ=             17.1129

 Normal termination of Gaussian 16 at Sat Aug 13 08:29:14 2022.
