 Gaussian 16, Revision C.01,
 Gaussian 16:  ES64L-G16RevC.01  3-Jul-2019

 -------------------------------------------------------------------
 # B3LYP/6-31G* guess=read geom=check nosymm integral(ultrafinegrid)
 -------------------------------------------------------------------

 ------------------------------------------------------
 Candidate Structure: Conf:217 Charge calc in gas phase
 ------------------------------------------------------
 Structure from the checkpoint file:  "conf-217.chk"
 Charge =  1 Multiplicity = 1

                          Input orientation:
 ---------------------------------------------------------------------
 Center     Atomic      Atomic             Coordinates (Angstroms)
 Number     Number       Type             X           Y           Z
 ---------------------------------------------------------------------
      1          7           0      -10.488945    3.665247    7.399904
      2          1           0      -11.246038    4.351939    7.419888
      3          1           0      -10.750216    2.840019    6.763574
      4          1           0      -10.317246    3.338740    8.354475
      5          6           0       -9.231083    4.165111    6.714083
      6          1           0       -9.414977    5.198174    6.406929
      7          6           0       -9.151882    3.241743    5.461786
      8          6           0       -7.996001    4.101772    7.641335
      9          1           0       -7.156975    4.421652    7.010199
     10          8           0       -9.995676    2.330649    5.371729
     11          6           0       -8.113395    5.104093    8.800822
     12          1           0       -8.920342    4.842423    9.499204
     13          1           0       -7.186904    5.114038    9.382233
     14          1           0       -8.292649    6.123594    8.441762
     15          6           0       -7.692190    2.677577    8.135297
     16          1           0       -8.461317    2.293691    8.820432
     17          1           0       -7.587708    1.965160    7.311111
     18          1           0       -6.753679    2.676764    8.696711
     19          7           0       -8.188742    3.504734    4.596393
     20          1           0       -7.477243    4.226299    4.754388
     21          6           0       -7.865861    2.710009    3.405669
     22          1           0       -7.967640    1.652392    3.665485
     23          6           0       -6.378401    3.059847    3.148164
     24          6           0       -8.824569    3.042089    2.221094
     25          1           0       -9.832161    2.944651    2.649108
     26          8           0       -5.890758    4.061332    3.691642
     27          6           0       -8.736342    2.034445    1.054321
     28          1           0       -7.756053    2.102465    0.566152
     29          1           0       -9.461546    2.366413    0.300545
     30          6           0       -8.644424    4.483045    1.721694
     31          1           0       -7.668504    4.624620    1.243883
     32          1           0       -8.726562    5.214042    2.533581
     33          1           0       -9.413747    4.722703    0.980408
     34          6           0       -9.041930    0.575249    1.416323
     35          1           0       -9.091295   -0.038444    0.511513
     36          1           0       -8.275176    0.125226    2.058908
     37          1           0      -10.003501    0.485508    1.935926
     38          7           0       -5.705433    2.240879    2.334972
     39          1           0       -6.131591    1.424503    1.901074
     40          6           0       -4.309453    2.429779    1.948432
     41          1           0       -4.131536    3.497860    1.794925
     42          6           0       -4.162187    1.656283    0.621941
     43          6           0       -3.358759    1.907506    3.064929
     44          1           0       -3.558971    0.838796    3.205115
     45          1           0       -3.666425    2.421089    3.984009
     46          8           0       -4.933936    0.720946    0.376150
     47          6           0       -1.884672    2.134459    2.803535
     48          6           0       -1.014897    1.050787    2.620419
     49          1           0       -1.407923    0.037056    2.676980
     50          6           0       -1.358466    3.434006    2.746438
     51          1           0       -2.011712    4.289044    2.916210
     52          6           0        0.343098    1.256942    2.372312
     53          1           0        1.027500    0.427111    2.226221
     54          6           0       -0.002644    3.641987    2.484345
     55          1           0        0.385069    4.656122    2.431999
     56          6           0        0.850553    2.554617    2.289196
     57          1           0        1.903396    2.687365    2.061110
     58          7           0       -3.186643    2.081464   -0.199120
     59          1           0       -2.500208    2.756996    0.134834
     60          6           0       -2.736710    1.352152   -1.385910
     61          1           0       -3.073786    0.316052   -1.293599
     62          6           0       -1.198181    1.441415   -1.343104
     63          6           0       -3.251007    1.977465   -2.701928
     64          1           0       -2.760897    1.456158   -3.537543
     65          1           0       -2.892400    3.014558   -2.731117
     66          8           0       -0.663379    2.443842   -0.874739
     67          6           0       -4.776256    1.948834   -2.918227
     68          1           0       -5.249266    2.417917   -2.043898
     69          6           0       -5.136818    2.785665   -4.155669
     70          1           0       -4.685056    2.362583   -5.062356
     71          1           0       -4.784212    3.819543   -4.059900
     72          1           0       -6.221857    2.812716   -4.309728
     73          6           0       -5.325576    0.519943   -3.043773
     74          1           0       -4.836385   -0.018434   -3.866844
     75          1           0       -6.400793    0.538295   -3.258357
     76          1           0       -5.186485   -0.047942   -2.119243
     77          7           0       -0.519865    0.377323   -1.834595
     78          1           0       -1.015020   -0.373829   -2.296321
     79          6           0        0.930985    0.279698   -1.767127
     80          1           0        1.274629    1.215014   -1.320122
     81          6           0        1.514841    0.131512   -3.175246
     82          6           0        1.347224   -0.901225   -0.852072
     83          1           0        0.964063   -1.836593   -1.283546
     84          1           0        0.832671   -0.744894    0.101264
     85          8           0        0.873579   -0.433639   -4.078500
     86          6           0        2.861365   -1.017024   -0.590103
     87          1           0        3.012576   -1.785668    0.174955
     88          1           0        3.384206   -1.341829   -1.496641
     89          6           0        3.437121    0.323986   -0.065175
     90          8           0        4.035268    1.070879   -0.937640
     91          8           0        3.232709    0.611204    1.119393
     92          7           0        2.762218    0.620351   -3.316183
     93          1           0        3.222481    0.980634   -2.451835
     94          6           0        3.526906    0.366147   -4.525947
     95          1           0        3.340534   -0.678114   -4.811356
     96          6           0        5.056347    0.445244   -4.353196
     97          6           0        3.074910    1.278644   -5.712959
     98          1           0        2.184985    1.829610   -5.396539
     99          1           0        3.856300    1.990365   -5.978145
    100          8           0        5.757259    0.470558   -5.381876
    101          6           0        2.744446    0.476099   -6.961077
    102          7           0        1.682892   -0.342270   -6.845924
    103          1           0        1.438944   -0.943203   -7.621145
    104          1           0        1.225852   -0.461579   -5.935283
    105          8           0        3.417915    0.582457   -7.999093
    106          7           0        5.568521    0.435159   -3.117650
    107          1           0        4.968186    0.516857   -2.269107
    108          6           0        7.005230    0.491966   -2.879564
    109          1           0        7.392490    1.463466   -3.216981
    110          6           0        7.744015   -0.626608   -3.632631
    111          6           0        7.246925    0.341050   -1.352081
    112          1           0        6.642697    1.102140   -0.845854
    113          1           0        6.840061   -0.630974   -1.052746
    114          8           0        7.312823   -1.770508   -3.703120
    115          6           0        8.702266    0.438113   -0.954361
    116          6           0        9.455439   -0.714993   -0.685684
    117          1           0        8.973084   -1.688344   -0.738143
    118          6           0        9.348554    1.677044   -0.858479
    119          1           0        8.786979    2.591959   -1.035897
    120          6           0       10.803724   -0.642878   -0.346449
    121          1           0       11.379003   -1.537442   -0.128310
    122          6           0       10.699920    1.766701   -0.526069
    123          1           0       11.181596    2.740487   -0.457183
    124          8           0       12.762497    0.620363    0.049496
    125          1           0       13.070117    1.539882    0.071006
    126          6           0       11.434268    0.603485   -0.275216
    127          7           0        8.946659   -0.248416   -4.176546
    128          1           0        9.348114    0.640892   -3.897044
    129          6           0        9.914425   -1.248795   -4.598030
    130          1           0        9.627039   -2.203031   -4.146960
    131          6           0       11.285198   -0.827041   -4.084782
    132          6           0        9.993018   -1.439400   -6.136968
    133          1           0       10.510180   -0.576272   -6.580232
    134          1           0       10.627992   -2.311542   -6.325365
    135          8           0       11.587763    0.311153   -3.799010
    136          6           0        8.614866   -1.626960   -6.806908
    137          1           0        8.711719   -2.330824   -7.644097
    138          1           0        7.909342   -2.073237   -6.099150
    139          6           0        8.040822   -0.289017   -7.306164
    140          1           0        7.950209    0.404155   -6.471490
    141          1           0        8.708815    0.172473   -8.047388
    142          7           0        6.690994   -0.390866   -7.874045
    143          1           0        5.936260   -0.108547   -7.239097
    144          7           0        7.383694   -1.294068   -9.911587
    145          1           0        7.252164   -1.247310  -10.911551
    146          1           0        8.340935   -1.276931   -9.595437
    147          7           0        5.160668   -0.749763   -9.583559
    148          1           0        4.938127   -1.233963  -10.440030
    149          1           0        4.395573   -0.313802   -9.041976
    150          6           0        6.407213   -0.797224   -9.105030
    151          8           0       12.147513   -1.861269   -4.043984
    152          1           0       13.001676   -1.503354   -3.733479
 ---------------------------------------------------------------------

 SCF Done:  E(RB3LYP) =  -3586.63697761     A.U. after    3 cycles

 Alpha  occ. eigenvalues --  -19.26020 -19.25083 -19.20892 -19.20353 -19.19435
 Alpha  occ. eigenvalues --  -19.17616 -19.17493 -19.16435 -19.16427 -19.15563
 Alpha  occ. eigenvalues --  -19.15536 -19.09917 -19.08619 -14.58812 -14.48165
 Alpha  occ. eigenvalues --  -14.46172 -14.44581 -14.43950 -14.43760 -14.41106
 Alpha  occ. eigenvalues --  -14.40252 -14.40153 -14.40100 -14.39024 -14.38912
 Alpha  occ. eigenvalues --  -10.42539 -10.41514 -10.39712 -10.37391 -10.37369
 Alpha  occ. eigenvalues --  -10.34622 -10.34610 -10.33882 -10.33466 -10.32948
 Alpha  occ. eigenvalues --  -10.32896 -10.32694 -10.32675 -10.30269 -10.30160
 Alpha  occ. eigenvalues --  -10.29812 -10.29187 -10.28767 -10.28590 -10.27953
 Alpha  occ. eigenvalues --  -10.27951 -10.27937 -10.27302 -10.27243 -10.26242
 Alpha  occ. eigenvalues --  -10.25527 -10.25246 -10.25099 -10.24896 -10.24523
 Alpha  occ. eigenvalues --  -10.24363 -10.23932 -10.23080 -10.23058 -10.22712
 Alpha  occ. eigenvalues --  -10.22237 -10.22154 -10.22105 -10.22068 -10.21982
 Alpha  occ. eigenvalues --  -10.21837 -10.21633 -10.21515 -10.21351 -10.21331
 Alpha  occ. eigenvalues --  -10.21146 -10.20860 -10.20252 -10.20105 -10.19309
 Alpha  occ. eigenvalues --   -1.18330  -1.16002  -1.12830  -1.12166  -1.10050
 Alpha  occ. eigenvalues --   -1.09368  -1.08894  -1.08665  -1.08225  -1.07899
 Alpha  occ. eigenvalues --   -1.07349  -1.07165  -1.06843  -1.04883  -1.02160
 Alpha  occ. eigenvalues --   -1.00279  -0.99270  -0.98123  -0.97662  -0.97076
 Alpha  occ. eigenvalues --   -0.96865  -0.96497  -0.95536  -0.95265  -0.94582
 Alpha  occ. eigenvalues --   -0.93400  -0.89818  -0.88367  -0.88160  -0.85976
 Alpha  occ. eigenvalues --   -0.85841  -0.85514  -0.83760  -0.83484  -0.82206
 Alpha  occ. eigenvalues --   -0.81539  -0.81212  -0.81014  -0.80629  -0.79301
 Alpha  occ. eigenvalues --   -0.79133  -0.77762  -0.76750  -0.76590  -0.76459
 Alpha  occ. eigenvalues --   -0.75303  -0.74167  -0.73437  -0.73103  -0.72287
 Alpha  occ. eigenvalues --   -0.72018  -0.71953  -0.71380  -0.71099  -0.70403
 Alpha  occ. eigenvalues --   -0.69900  -0.69223  -0.68885  -0.67835  -0.66864
 Alpha  occ. eigenvalues --   -0.66249  -0.65870  -0.65306  -0.65104  -0.64721
 Alpha  occ. eigenvalues --   -0.64428  -0.63937  -0.63869  -0.63518  -0.62798
 Alpha  occ. eigenvalues --   -0.62714  -0.62380  -0.62243  -0.61641  -0.61351
 Alpha  occ. eigenvalues --   -0.61100  -0.60963  -0.60391  -0.59703  -0.59189
 Alpha  occ. eigenvalues --   -0.59114  -0.58893  -0.58674  -0.58101  -0.57492
 Alpha  occ. eigenvalues --   -0.57364  -0.56799  -0.56168  -0.55969  -0.55077
 Alpha  occ. eigenvalues --   -0.54953  -0.54565  -0.54014  -0.53722  -0.53567
 Alpha  occ. eigenvalues --   -0.53258  -0.53143  -0.53014  -0.52692  -0.52620
 Alpha  occ. eigenvalues --   -0.52347  -0.51931  -0.51776  -0.51535  -0.51453
 Alpha  occ. eigenvalues --   -0.51067  -0.50851  -0.50650  -0.50406  -0.50158
 Alpha  occ. eigenvalues --   -0.49917  -0.49723  -0.49595  -0.49507  -0.49290
 Alpha  occ. eigenvalues --   -0.49229  -0.48988  -0.48669  -0.48352  -0.48210
 Alpha  occ. eigenvalues --   -0.47942  -0.47854  -0.47603  -0.47451  -0.47115
 Alpha  occ. eigenvalues --   -0.47065  -0.46958  -0.46792  -0.46777  -0.46664
 Alpha  occ. eigenvalues --   -0.46539  -0.46441  -0.45967  -0.45680  -0.45539
 Alpha  occ. eigenvalues --   -0.45154  -0.45117  -0.44902  -0.44335  -0.44254
 Alpha  occ. eigenvalues --   -0.44076  -0.43969  -0.43840  -0.43655  -0.43553
 Alpha  occ. eigenvalues --   -0.43520  -0.43221  -0.42978  -0.42892  -0.42611
 Alpha  occ. eigenvalues --   -0.42479  -0.42156  -0.42022  -0.41968  -0.41682
 Alpha  occ. eigenvalues --   -0.41254  -0.41203  -0.41047  -0.40941  -0.40818
 Alpha  occ. eigenvalues --   -0.40590  -0.40498  -0.40432  -0.40236  -0.39764
 Alpha  occ. eigenvalues --   -0.39718  -0.39621  -0.39411  -0.38616  -0.38180
 Alpha  occ. eigenvalues --   -0.38130  -0.37913  -0.37336  -0.37134  -0.36875
 Alpha  occ. eigenvalues --   -0.36796  -0.36655  -0.36578  -0.36548  -0.36396
 Alpha  occ. eigenvalues --   -0.36168  -0.36065  -0.35680  -0.35293  -0.34495
 Alpha  occ. eigenvalues --   -0.33876  -0.33424  -0.33147  -0.32351  -0.31833
 Alpha  occ. eigenvalues --   -0.31766  -0.31246  -0.30986  -0.30628  -0.30435
 Alpha  occ. eigenvalues --   -0.29982  -0.29371  -0.29158  -0.28714  -0.28701
 Alpha  occ. eigenvalues --   -0.28183  -0.27214  -0.26497  -0.25302  -0.24617
 Alpha  occ. eigenvalues --   -0.24352  -0.22513
 Alpha virt. eigenvalues --   -0.11463  -0.10472  -0.06301  -0.05978  -0.05670
 Alpha virt. eigenvalues --   -0.04436  -0.03985  -0.03593  -0.03515  -0.03252
 Alpha virt. eigenvalues --   -0.02776  -0.02436  -0.02280  -0.02107  -0.01930

 Mulliken charges:
               1
     1  N   -0.765535
     2  H    0.413657
     3  H    0.435787
     4  H    0.407935
     5  C   -0.099315
     6  H    0.213546
     7  C    0.653920
     8  C   -0.126082
     9  H    0.194496
    10  O   -0.555070
    11  C   -0.461494
    12  H    0.137921
    13  H    0.199095
    14  H    0.171916
    15  C   -0.477518
    16  H    0.140859
    17  H    0.187393
    18  H    0.200789
    19  N   -0.612086
    20  H    0.379130
    21  C   -0.071874
    22  H    0.188191
    23  C    0.637268
    24  C   -0.077647
    25  H    0.149549
    26  O   -0.563257
    27  C   -0.279635
    28  H    0.158899
    29  H    0.153379
    30  C   -0.462411
    31  H    0.168986
    32  H    0.136384
    33  H    0.163213
    34  C   -0.460748
    35  H    0.171763
    36  H    0.143868
    37  H    0.153336
    38  N   -0.625395
    39  H    0.373156
    40  C   -0.056807
    41  H    0.183025
    42  C    0.627790
    43  C   -0.347860
    44  H    0.151470
    45  H    0.166941
    46  O   -0.557850
    47  C    0.156657
    48  C   -0.194765
    49  H    0.115801
    50  C   -0.206453
    51  H    0.118031
    52  C   -0.138160
    53  H    0.173698
    54  C   -0.116952
    55  H    0.129414
    56  C   -0.124977
    57  H    0.178342
    58  N   -0.606119
    59  H    0.373357
    60  C   -0.068405
    61  H    0.170069
    62  C    0.624123
    63  C   -0.252290
    64  H    0.139582
    65  H    0.150679
    66  O   -0.525375
    67  C   -0.065464
    68  H    0.127371
    69  C   -0.443900
    70  H    0.142535
    71  H    0.142451
    72  H    0.141242
    73  C   -0.461256
    74  H    0.132559
    75  H    0.138378
    76  H    0.173041
    77  N   -0.601211
    78  H    0.336749
    79  C   -0.097369
    80  H    0.226200
    81  C    0.630187
    82  C   -0.265974
    83  H    0.130924
    84  H    0.167183
    85  O   -0.584883
    86  C   -0.350928
    87  H    0.151189
    88  H    0.125586
    89  C    0.577411
    90  O   -0.634277
    91  O   -0.530661
    92  N   -0.651616
    93  H    0.403944
    94  C   -0.041332
    95  H    0.191154
    96  C    0.629448
    97  C   -0.351566
    98  H    0.188030
    99  H    0.189856
   100  O   -0.586222
   101  C    0.576310
   102  N   -0.745171
   103  H    0.331769
   104  H    0.407397
   105  O   -0.566276
   106  N   -0.663276
   107  H    0.420860
   108  C   -0.012291
   109  H    0.149554
   110  C    0.642602
   111  C   -0.413919
   112  H    0.209010
   113  H    0.176056
   114  O   -0.536645
   115  C    0.156194
   116  C   -0.195824
   117  H    0.141450
   118  C   -0.197416
   119  H    0.134051
   120  C   -0.166919
   121  H    0.140176
   122  C   -0.182838
   123  H    0.123202
   124  O   -0.644577
   125  H    0.409467
   126  C    0.359956
   127  N   -0.616938
   128  H    0.353513
   129  C   -0.028003
   130  H    0.202036
   131  C    0.585290
   132  C   -0.283370
   133  H    0.143769
   134  H    0.168749
   135  O   -0.464815
   136  C   -0.289042
   137  H    0.130255
   138  H    0.208749
   139  C   -0.179749
   140  H    0.223650
   141  H    0.144203
   142  N   -0.602978
   143  H    0.404048
   144  N   -0.761105
   145  H    0.361628
   146  H    0.371741
   147  N   -0.796103
   148  H    0.351389
   149  H    0.432642
   150  C    0.790970
   151  O   -0.563143
   152  H    0.421600
 Sum of Mulliken charges =   1.00000

 Dipole moment (field-independent basis, Debye):
    X=            -23.2032    Y=             11.3102    Z=              3.2610  Tot=             26.0181
 Quadrupole moment (field-independent basis, Debye-Ang):
   XX=             91.6508   YY=           -376.4669   ZZ=            -20.0574
   XY=           -159.2471   XZ=           -421.2893   YZ=            137.9306

 Normal termination of Gaussian 16 at Sat Aug 13 08:32:01 2022.
