 Gaussian 16, Revision C.01,
 Gaussian 16:  ES64L-G16RevC.01  3-Jul-2019

 -------------------------------------------------------------------
 # B3LYP/6-31G* guess=read geom=check nosymm integral(ultrafinegrid)
 -------------------------------------------------------------------

 ------------------------------------------------------
 Candidate Structure: Conf:746 Charge calc in gas phase
 ------------------------------------------------------
 Structure from the checkpoint file:  "conf-746.chk"
 Charge =  1 Multiplicity = 1

                          Input orientation:
 ---------------------------------------------------------------------
 Center     Atomic      Atomic             Coordinates (Angstroms)
 Number     Number       Type             X           Y           Z
 ---------------------------------------------------------------------
      1          7           0       -4.448217   -4.939665    4.888849
      2          1           0       -4.123345   -5.658168    4.235620
      3          1           0       -3.610006   -4.588455    5.446990
      4          1           0       -5.172625   -5.343063    5.487376
      5          6           0       -4.887944   -3.663044    4.192677
      6          1           0       -5.165156   -3.913002    3.164972
      7          6           0       -3.575165   -2.825086    4.257485
      8          6           0       -6.088478   -3.026751    4.940738
      9          1           0       -5.739107   -2.767901    5.950688
     10          8           0       -2.762965   -3.138620    5.145787
     11          6           0       -6.549719   -1.736931    4.239445
     12          1           0       -6.895431   -1.944695    3.219028
     13          1           0       -7.394507   -1.311003    4.788590
     14          1           0       -5.773105   -0.970997    4.186532
     15          6           0       -7.273411   -4.004512    5.054337
     16          1           0       -7.617342   -4.331062    4.065710
     17          1           0       -7.065961   -4.900780    5.655744
     18          1           0       -8.112124   -3.504971    5.547693
     19          7           0       -3.415603   -1.871381    3.353410
     20          1           0       -4.181251   -1.584985    2.741315
     21          6           0       -2.317314   -0.895232    3.334427
     22          1           0       -1.865204   -0.879376    4.330946
     23          6           0       -3.042940    0.436627    3.022436
     24          6           0       -1.219952   -1.245319    2.270239
     25          1           0       -1.670077   -1.071791    1.282625
     26          8           0       -4.140028    0.409797    2.456424
     27          6           0       -0.802293   -2.729493    2.357004
     28          1           0       -1.701273   -3.359565    2.338702
     29          1           0       -0.315421   -2.911746    3.325315
     30          6           0       -0.007959   -0.312264    2.420131
     31          1           0        0.429548   -0.392070    3.424907
     32          1           0       -0.274093    0.726980    2.222981
     33          1           0        0.775706   -0.559773    1.699481
     34          6           0        0.116197   -3.181900    1.215005
     35          1           0        0.316950   -4.256219    1.283649
     36          1           0       -0.349867   -2.993393    0.239587
     37          1           0        1.086146   -2.679743    1.220966
     38          7           0       -2.439714    1.574672    3.425996
     39          1           0       -1.484596    1.513384    3.762200
     40          6           0       -2.823569    2.865183    2.874846
     41          1           0       -3.906282    2.975843    2.996572
     42          6           0       -2.531992    2.882188    1.349479
     43          6           0       -2.111405    4.005750    3.661860
     44          1           0       -2.613394    4.100672    4.630858
     45          1           0       -2.273287    4.948690    3.127481
     46          8           0       -1.901762    1.988611    0.793432
     47          6           0       -0.628915    3.769992    3.877945
     48          6           0       -0.171398    3.271818    5.107317
     49          1           0       -0.878262    3.123161    5.921697
     50          6           0        0.299783    3.984432    2.847451
     51          1           0       -0.031481    4.398846    1.897888
     52          6           0        1.180723    2.977629    5.301013
     53          1           0        1.519068    2.600577    6.262593
     54          6           0        1.648070    3.674862    3.034736
     55          1           0        2.354172    3.796368    2.218962
     56          6           0        2.089114    3.167861    4.260046
     57          1           0        3.138607    2.923891    4.397545
     58          7           0       -3.066395    3.927348    0.664150
     59          1           0       -3.423232    4.724444    1.173552
     60          6           0       -2.789489    4.105541   -0.758663
     61          1           0       -3.027226    3.158716   -1.252564
     62          6           0       -1.294015    4.433571   -0.966225
     63          6           0       -3.645365    5.245836   -1.335807
     64          1           0       -3.365680    5.367179   -2.391066
     65          1           0       -3.345590    6.176179   -0.834007
     66          8           0       -0.739671    5.302393   -0.294013
     67          6           0       -5.174305    5.064031   -1.240165
     68          1           0       -5.442181    4.935675   -0.180755
     69          6           0       -5.877681    6.331664   -1.748978
     70          1           0       -5.654872    6.505249   -2.809454
     71          1           0       -5.558162    7.220455   -1.192229
     72          1           0       -6.965398    6.244941   -1.648521
     73          6           0       -5.666740    3.823536   -1.999679
     74          1           0       -5.393984    3.880074   -3.061625
     75          1           0       -6.758217    3.743673   -1.943014
     76          1           0       -5.249405    2.896091   -1.592206
     77          7           0       -0.689110    3.736661   -1.954653
     78          1           0       -1.158816    2.960676   -2.409100
     79          6           0        0.717699    3.869049   -2.293295
     80          1           0        0.921320    4.910584   -2.575888
     81          6           0        0.961516    2.953973   -3.506856
     82          6           0        1.677369    3.493727   -1.131247
     83          1           0        1.536507    4.230487   -0.337915
     84          1           0        2.696985    3.630979   -1.502710
     85          8           0        0.110808    2.143789   -3.883717
     86          6           0        1.504590    2.064009   -0.599377
     87          1           0        0.648058    2.017932    0.083344
     88          1           0        1.253915    1.376948   -1.414804
     89          6           0        2.730376    1.470717    0.130411
     90          8           0        3.618302    2.276873    0.569272
     91          8           0        2.768152    0.221863    0.251956
     92          7           0        2.183083    3.059444   -4.097957
     93          1           0        2.906702    3.635488   -3.681404
     94          6           0        2.673140    2.014045   -5.001909
     95          1           0        1.830674    1.725333   -5.635599
     96          6           0        3.124469    0.804260   -4.141213
     97          6           0        3.784370    2.534948   -5.917317
     98          1           0        4.052337    1.737633   -6.618432
     99          1           0        3.379557    3.363414   -6.513606
    100          8           0        4.252295    0.759721   -3.648125
    101          6           0        5.034359    3.071863   -5.232499
    102          7           0        6.197444    2.824037   -5.881478
    103          1           0        7.038802    3.305360   -5.593015
    104          1           0        6.236593    2.271038   -6.724792
    105          8           0        5.006301    3.765553   -4.206802
    106          7           0        2.139833   -0.103648   -3.955219
    107          1           0        1.239432    0.133533   -4.356501
    108          6           0        2.083498   -1.100248   -2.888355
    109          1           0        1.906494   -0.579495   -1.940795
    110          6           0        3.381148   -1.908619   -2.708893
    111          6           0        0.859701   -2.041026   -3.112649
    112          1           0        1.001709   -2.908790   -2.457448
    113          1           0       -0.022706   -1.512502   -2.731132
    114          8           0        3.931218   -2.545975   -3.601162
    115          6           0        0.572650   -2.473145   -4.537949
    116          6           0       -0.535905   -1.943954   -5.215956
    117          1           0       -1.179485   -1.226358   -4.709803
    118          6           0        1.371842   -3.403949   -5.217332
    119          1           0        2.252865   -3.807891   -4.731233
    120          6           0       -0.846543   -2.318185   -6.521979
    121          1           0       -1.708223   -1.906702   -7.038235
    122          6           0        1.071678   -3.789278   -6.521741
    123          1           0        1.705373   -4.513290   -7.031844
    124          8           0       -0.381338   -3.592152   -8.459281
    125          1           0        0.252147   -4.248239   -8.789343
    126          6           0       -0.039182   -3.248972   -7.180180
    127          7           0        3.773297   -1.906780   -1.406738
    128          1           0        3.336213   -1.244507   -0.759465
    129          6           0        4.890212   -2.670327   -0.911271
    130          1           0        5.443070   -3.056806   -1.775305
    131          6           0        4.412558   -3.886197   -0.113200
    132          6           0        5.799732   -1.756046   -0.057988
    133          1           0        5.146196   -1.166573    0.598229
    134          1           0        6.451275   -2.360621    0.581312
    135          8           0        3.273026   -4.139493    0.203705
    136          6           0        6.649684   -0.824707   -0.937595
    137          1           0        7.530888   -1.373515   -1.294506
    138          1           0        6.069820   -0.532986   -1.822235
    139          6           0        7.110470    0.449731   -0.200758
    140          1           0        7.282126    0.240800    0.860091
    141          1           0        8.062710    0.814820   -0.599876
    142          7           0        6.150068    1.550505   -0.271020
    143          1           0        5.320185    1.591444    0.351142
    144          7           0        6.976586    2.344296   -2.323861
    145          1           0        6.692722    2.928410   -3.105476
    146          1           0        7.230620    1.407559   -2.609515
    147          7           0        5.289989    3.481097   -1.202299
    148          1           0        5.066594    3.931724   -2.082337
    149          1           0        4.540492    3.393699   -0.498241
    150          6           0        6.115128    2.426580   -1.271510
    151          8           0        5.459176   -4.685087    0.214505
    152          1           0        5.085844   -5.434013    0.716052
 ---------------------------------------------------------------------

 SCF Done:  E(RB3LYP) =  -3586.64419226     A.U. after    1 cycles

 Alpha  occ. eigenvalues --  -19.25252 -19.24395 -19.21638 -19.21039 -19.20203
 Alpha  occ. eigenvalues --  -19.19133 -19.18802 -19.18324 -19.17550 -19.16506
 Alpha  occ. eigenvalues --  -19.14696 -19.13738 -19.12900 -14.58711 -14.47824
 Alpha  occ. eigenvalues --  -14.44884 -14.43660 -14.43260 -14.42964 -14.42611
 Alpha  occ. eigenvalues --  -14.42594 -14.41360 -14.41341 -14.41102 -14.38634
 Alpha  occ. eigenvalues --  -10.42040 -10.39500 -10.38877 -10.38695 -10.37146
 Alpha  occ. eigenvalues --  -10.36569 -10.35878 -10.35223 -10.34524 -10.33731
 Alpha  occ. eigenvalues --  -10.33687 -10.32187 -10.32166 -10.31352 -10.30879
 Alpha  occ. eigenvalues --  -10.30874 -10.30660 -10.29384 -10.29116 -10.29035
 Alpha  occ. eigenvalues --  -10.28850 -10.28663 -10.28336 -10.28070 -10.27567
 Alpha  occ. eigenvalues --  -10.26637 -10.26320 -10.25145 -10.24771 -10.24653
 Alpha  occ. eigenvalues --  -10.24432 -10.24421 -10.24278 -10.24166 -10.24045
 Alpha  occ. eigenvalues --  -10.24017 -10.23625 -10.23557 -10.23404 -10.23175
 Alpha  occ. eigenvalues --  -10.22966 -10.22909 -10.22668 -10.22603 -10.22477
 Alpha  occ. eigenvalues --  -10.22281 -10.22241 -10.22078 -10.21992 -10.21759
 Alpha  occ. eigenvalues --   -1.17815  -1.15217  -1.12664  -1.12470  -1.12083
 Alpha  occ. eigenvalues --   -1.10982  -1.10168  -1.09635  -1.08924  -1.08194
 Alpha  occ. eigenvalues --   -1.07952  -1.06612  -1.06113  -1.06006  -1.04397
 Alpha  occ. eigenvalues --   -1.00498  -0.99664  -0.99498  -0.98855  -0.97889
 Alpha  occ. eigenvalues --   -0.97662  -0.97587  -0.97274  -0.96080  -0.95606
 Alpha  occ. eigenvalues --   -0.94199  -0.90663  -0.88993  -0.88572  -0.87057
 Alpha  occ. eigenvalues --   -0.86494  -0.85303  -0.85234  -0.85078  -0.83638
 Alpha  occ. eigenvalues --   -0.82936  -0.81222  -0.80687  -0.80594  -0.80286
 Alpha  occ. eigenvalues --   -0.79141  -0.78365  -0.78355  -0.77776  -0.76622
 Alpha  occ. eigenvalues --   -0.76589  -0.74341  -0.73879  -0.73783  -0.73508
 Alpha  occ. eigenvalues --   -0.72721  -0.72279  -0.70855  -0.70387  -0.69982
 Alpha  occ. eigenvalues --   -0.69502  -0.69300  -0.69059  -0.68103  -0.67927
 Alpha  occ. eigenvalues --   -0.67211  -0.66564  -0.66151  -0.65938  -0.65377
 Alpha  occ. eigenvalues --   -0.65278  -0.65051  -0.64685  -0.64293  -0.63399
 Alpha  occ. eigenvalues --   -0.63288  -0.62672  -0.62592  -0.62389  -0.62360
 Alpha  occ. eigenvalues --   -0.62084  -0.61955  -0.61526  -0.61043  -0.60455
 Alpha  occ. eigenvalues --   -0.59058  -0.58036  -0.57773  -0.57656  -0.57520
 Alpha  occ. eigenvalues --   -0.57222  -0.56929  -0.56001  -0.55784  -0.55667
 Alpha  occ. eigenvalues --   -0.55563  -0.55502  -0.55068  -0.54699  -0.54568
 Alpha  occ. eigenvalues --   -0.54191  -0.54120  -0.53710  -0.53491  -0.52912
 Alpha  occ. eigenvalues --   -0.52722  -0.52591  -0.52383  -0.51925  -0.51626
 Alpha  occ. eigenvalues --   -0.51562  -0.51416  -0.51258  -0.51083  -0.50992
 Alpha  occ. eigenvalues --   -0.50913  -0.50585  -0.50480  -0.50272  -0.50029
 Alpha  occ. eigenvalues --   -0.49944  -0.49796  -0.49436  -0.48883  -0.48780
 Alpha  occ. eigenvalues --   -0.48623  -0.48353  -0.48219  -0.47888  -0.47768
 Alpha  occ. eigenvalues --   -0.47609  -0.47513  -0.47118  -0.46994  -0.46854
 Alpha  occ. eigenvalues --   -0.46731  -0.46617  -0.46325  -0.46274  -0.46206
 Alpha  occ. eigenvalues --   -0.46070  -0.45884  -0.45762  -0.45631  -0.45590
 Alpha  occ. eigenvalues --   -0.45271  -0.45223  -0.45102  -0.44928  -0.44673
 Alpha  occ. eigenvalues --   -0.44458  -0.44143  -0.44112  -0.43978  -0.43915
 Alpha  occ. eigenvalues --   -0.43719  -0.43576  -0.43512  -0.42922  -0.42796
 Alpha  occ. eigenvalues --   -0.42448  -0.42300  -0.42121  -0.41750  -0.41480
 Alpha  occ. eigenvalues --   -0.41331  -0.40836  -0.40566  -0.40521  -0.40114
 Alpha  occ. eigenvalues --   -0.40071  -0.39913  -0.39840  -0.39641  -0.39223
 Alpha  occ. eigenvalues --   -0.38844  -0.38651  -0.38568  -0.38477  -0.38205
 Alpha  occ. eigenvalues --   -0.38175  -0.38070  -0.37788  -0.37665  -0.36991
 Alpha  occ. eigenvalues --   -0.36746  -0.36519  -0.36225  -0.36151  -0.35341
 Alpha  occ. eigenvalues --   -0.34612  -0.34510  -0.34325  -0.33845  -0.33169
 Alpha  occ. eigenvalues --   -0.32660  -0.32553  -0.31849  -0.31716  -0.31569
 Alpha  occ. eigenvalues --   -0.30682  -0.29987  -0.29891  -0.29555  -0.29496
 Alpha  occ. eigenvalues --   -0.29250  -0.28909  -0.28591  -0.28398  -0.28123
 Alpha  occ. eigenvalues --   -0.26779  -0.25484
 Alpha virt. eigenvalues --   -0.11215  -0.09935  -0.06646  -0.06342  -0.05788
 Alpha virt. eigenvalues --   -0.05541  -0.05525  -0.05089  -0.04607  -0.04145
 Alpha virt. eigenvalues --   -0.04127  -0.03786  -0.03338  -0.03241  -0.02828

 Mulliken charges:
               1
     1  N   -0.759693
     2  H    0.414603
     3  H    0.431910
     4  H    0.405377
     5  C   -0.104624
     6  H    0.203228
     7  C    0.647759
     8  C   -0.106153
     9  H    0.170605
    10  O   -0.547696
    11  C   -0.478742
    12  H    0.165544
    13  H    0.183370
    14  H    0.192852
    15  C   -0.477140
    16  H    0.175020
    17  H    0.139841
    18  H    0.200555
    19  N   -0.590756
    20  H    0.372625
    21  C   -0.091953
    22  H    0.184388
    23  C    0.652487
    24  C   -0.068309
    25  H    0.151580
    26  O   -0.554034
    27  C   -0.250207
    28  H    0.094027
    29  H    0.142167
    30  C   -0.515094
    31  H    0.134300
    32  H    0.183227
    33  H    0.209972
    34  C   -0.452679
    35  H    0.147807
    36  H    0.139552
    37  H    0.191573
    38  N   -0.601599
    39  H    0.361734
    40  C   -0.071293
    41  H    0.183730
    42  C    0.660250
    43  C   -0.376183
    44  H    0.165192
    45  H    0.168718
    46  O   -0.530197
    47  C    0.120977
    48  C   -0.201928
    49  H    0.124926
    50  C   -0.199638
    51  H    0.182277
    52  C   -0.126012
    53  H    0.134529
    54  C   -0.140998
    55  H    0.171980
    56  C   -0.129350
    57  H    0.142748
    58  N   -0.601766
    59  H    0.336869
    60  C   -0.042997
    61  H    0.163296
    62  C    0.649818
    63  C   -0.298258
    64  H    0.152896
    65  H    0.157127
    66  O   -0.549017
    67  C   -0.070092
    68  H    0.119472
    69  C   -0.443441
    70  H    0.147871
    71  H    0.145643
    72  H    0.149358
    73  C   -0.452323
    74  H    0.145267
    75  H    0.149880
    76  H    0.150817
    77  N   -0.620044
    78  H    0.358442
    79  C   -0.034935
    80  H    0.174946
    81  C    0.625161
    82  C   -0.279055
    83  H    0.194102
    84  H    0.110353
    85  O   -0.551523
    86  C   -0.398485
    87  H    0.201048
    88  H    0.151763
    89  C    0.618232
    90  O   -0.622003
    91  O   -0.582126
    92  N   -0.617381
    93  H    0.365976
    94  C   -0.072750
    95  H    0.185637
    96  C    0.639176
    97  C   -0.390383
    98  H    0.175937
    99  H    0.202886
   100  O   -0.549951
   101  C    0.667557
   102  N   -0.744380
   103  H    0.354450
   104  H    0.360591
   105  O   -0.571335
   106  N   -0.602889
   107  H    0.362718
   108  C   -0.049819
   109  H    0.186338
   110  C    0.633437
   111  C   -0.416277
   112  H    0.181076
   113  H    0.154710
   114  O   -0.539166
   115  C    0.166156
   116  C   -0.213755
   117  H    0.127430
   118  C   -0.175367
   119  H    0.169391
   120  C   -0.159892
   121  H    0.138623
   122  C   -0.200403
   123  H    0.122506
   124  O   -0.642442
   125  H    0.408863
   126  C    0.350079
   127  N   -0.634883
   128  H    0.419414
   129  C   -0.058509
   130  H    0.199174
   131  C    0.581840
   132  C   -0.300669
   133  H    0.177359
   134  H    0.162896
   135  O   -0.460560
   136  C   -0.288331
   137  H    0.148883
   138  H    0.191425
   139  C   -0.184395
   140  H    0.178517
   141  H    0.168918
   142  N   -0.591007
   143  H    0.398444
   144  N   -0.763186
   145  H    0.362613
   146  H    0.362362
   147  N   -0.795993
   148  H    0.376290
   149  H    0.410236
   150  C    0.753015
   151  O   -0.565839
   152  H    0.411180
 Sum of Mulliken charges =   1.00000

 Dipole moment (field-independent basis, Debye):
    X=             -8.9441    Y=             -9.1471    Z=              7.9653  Tot=             15.0702
 Quadrupole moment (field-independent basis, Debye-Ang):
   XX=           -242.1202   YY=           -333.0933   ZZ=           -289.6151
   XY=             78.9512   XZ=           -145.2285   YZ=            -99.8201

 Normal termination of Gaussian 16 at Sat Aug 13 08:29:43 2022.
