 Gaussian 16, Revision C.01,
 Gaussian 16:  ES64L-G16RevC.01  3-Jul-2019

 -------------------------------------------------------------------
 # B3LYP/6-31G* guess=read geom=check nosymm integral(ultrafinegrid)
 -------------------------------------------------------------------

 -----------------------------------------------------
 Candidate Structure: Conf:49 Charge calc in gas phase
 -----------------------------------------------------
 Structure from the checkpoint file:  "conf-49.chk"
 Charge =  1 Multiplicity = 1

                          Input orientation:
 ---------------------------------------------------------------------
 Center     Atomic      Atomic             Coordinates (Angstroms)
 Number     Number       Type             X           Y           Z
 ---------------------------------------------------------------------
      1          7           0       -2.812674    1.161434    6.546197
      2          1           0       -2.238414    1.448618    7.336803
      3          1           0       -3.043717    0.174180    6.682415
      4          1           0       -2.004160    1.237966    5.094658
      5          6           0       -4.086753    1.931156    6.543032
      6          1           0       -4.605257    1.796518    7.505173
      7          6           0       -4.973558    1.183277    5.521080
      8          6           0       -3.857329    3.445109    6.340130
      9          1           0       -3.532093    3.622022    5.304343
     10          8           0       -5.270788    0.010827    5.749561
     11          6           0       -5.155189    4.226171    6.612229
     12          1           0       -5.436541    4.145795    7.669514
     13          1           0       -5.016335    5.288793    6.387690
     14          1           0       -6.001118    3.863945    6.018917
     15          6           0       -2.727108    3.974145    7.240525
     16          1           0       -2.904223    3.722101    8.294954
     17          1           0       -1.751159    3.587883    6.933344
     18          1           0       -2.675681    5.065599    7.170980
     19          7           0       -5.368192    1.820901    4.385607
     20          1           0       -4.965362    2.719840    4.157370
     21          6           0       -6.036194    1.090070    3.300351
     22          1           0       -6.618903    0.301388    3.781309
     23          6           0       -4.906183    0.464712    2.451895
     24          6           0       -6.959020    1.998997    2.467271
     25          1           0       -6.314672    2.736375    1.969254
     26          8           0       -4.345381    1.128628    1.572191
     27          6           0       -7.974386    2.774801    3.337277
     28          1           0       -8.555999    3.417141    2.663177
     29          1           0       -7.432806    3.456638    4.004932
     30          6           0       -7.650843    1.180718    1.363598
     31          1           0       -8.245592    0.357362    1.775670
     32          1           0       -6.922012    0.756352    0.666434
     33          1           0       -8.325874    1.820487    0.785146
     34          6           0       -8.936469    1.921770    4.174366
     35          1           0       -9.634326    2.564902    4.721301
     36          1           0       -9.535348    1.247778    3.552175
     37          1           0       -8.406804    1.312929    4.916197
     38          7           0       -4.574629   -0.812586    2.777456
     39          1           0       -5.021181   -1.146111    3.629015
     40          6           0       -3.267724   -1.461325    2.550694
     41          1           0       -2.509627   -0.877040    3.088296
     42          6           0       -2.689951   -1.567450    1.124154
     43          6           0       -3.313592   -2.888079    3.157645
     44          1           0       -2.387102   -3.379203    2.850851
     45          1           0       -4.142161   -3.436468    2.693079
     46          8           0       -1.623621   -2.188934    1.005913
     47          6           0       -3.445172   -2.921543    4.666349
     48          6           0       -2.372199   -2.523078    5.479643
     49          1           0       -1.444498   -2.191238    5.017987
     50          6           0       -4.618494   -3.369991    5.283825
     51          1           0       -5.453595   -3.701303    4.669901
     52          6           0       -2.474089   -2.571292    6.869889
     53          1           0       -1.623224   -2.285601    7.484052
     54          6           0       -4.727150   -3.413415    6.676001
     55          1           0       -5.647425   -3.764336    7.134270
     56          6           0       -3.656183   -3.014079    7.472932
     57          1           0       -3.734140   -3.057795    8.555747
     58          7           0       -3.292356   -0.963439    0.074838
     59          1           0       -3.932907   -0.201838    0.298041
     60          6           0       -2.648123   -0.945400   -1.248872
     61          1           0       -2.098236   -1.888916   -1.319212
     62          6           0       -1.610574    0.206562   -1.319116
     63          6           0       -3.703406   -0.844904   -2.358228
     64          1           0       -4.100492    0.177249   -2.368775
     65          1           0       -4.530990   -1.513616   -2.087547
     66          8           0       -1.631294    1.087098   -2.184549
     67          6           0       -3.208032   -1.206694   -3.774940
     68          1           0       -2.312954   -0.606443   -3.979912
     69          6           0       -2.844186   -2.694044   -3.905821
     70          1           0       -3.717088   -3.330322   -3.710171
     71          1           0       -2.050970   -2.997794   -3.212698
     72          1           0       -2.492647   -2.919215   -4.919421
     73          6           0       -4.275860   -0.822384   -4.810062
     74          1           0       -5.210207   -1.371957   -4.635772
     75          1           0       -3.940651   -1.055559   -5.827351
     76          1           0       -4.503676    0.248911   -4.767848
     77          7           0       -0.685685    0.196071   -0.323340
     78          1           0       -0.664352   -0.614130    0.294908
     79          6           0        0.065922    1.390631    0.047696
     80          1           0       -0.502784    2.238841   -0.357305
     81          6           0        1.434045    1.485297   -0.650391
     82          6           0        0.152650    1.533979    1.575158
     83          1           0        1.057981    2.089382    1.826081
     84          1           0        0.246619    0.543471    2.036689
     85          8           0        2.493961    1.655231   -0.044790
     86          6           0       -1.095737    2.269662    2.106483
     87          1           0       -1.065027    3.312934    1.778513
     88          1           0       -2.004342    1.807074    1.708204
     89          6           0       -1.202373    2.267871    3.616978
     90          8           0       -1.762506    1.165624    4.092037
     91          8           0       -0.823772    3.192014    4.336893
     92          7           0        1.365362    1.451766   -2.012596
     93          1           0        0.438958    1.467324   -2.442829
     94          6           0        2.558728    1.766549   -2.787399
     95          1           0        3.388198    1.351791   -2.204831
     96          6           0        2.769112    3.294785   -2.901428
     97          6           0        2.539033    1.148026   -4.186632
     98          1           0        2.443852    0.058505   -4.100552
     99          1           0        1.686358    1.513267   -4.763298
    100          8           0        2.572843    3.895216   -3.961094
    101          6           0        3.776644    1.435519   -5.031061
    102          7           0        4.953463    1.653029   -4.396059
    103          1           0        5.743671    1.904846   -4.975423
    104          1           0        5.002126    2.030742   -3.457123
    105          8           0        3.705221    1.378834   -6.269620
    106          7           0        3.237526    3.897676   -1.787717
    107          1           0        3.333958    3.346883   -0.937664
    108          6           0        3.725022    5.262470   -1.847654
    109          1           0        2.915193    5.911098   -2.203448
    110          6           0        4.882094    5.307873   -2.873445
    111          6           0        4.176992    5.744083   -0.446770
    112          1           0        4.997100    5.100484   -0.106262
    113          1           0        4.596382    6.751261   -0.564363
    114          8           0        5.673298    4.376753   -3.009969
    115          6           0        3.042947    5.745036    0.558486
    116          6           0        2.010687    6.693879    0.475567
    117          1           0        2.058767    7.477613   -0.278880
    118          6           0        2.956646    4.775856    1.563998
    119          1           0        3.748378    4.037918    1.673052
    120          6           0        0.915819    6.654135    1.329770
    121          1           0        0.114540    7.382416    1.252173
    122          6           0        1.868777    4.727855    2.437978
    123          1           0        1.825942    3.974485    3.219735
    124          8           0       -0.291709    5.627466    3.079594
    125          1           0       -0.341066    4.795383    3.606141
    126          6           0        0.821387    5.650821    2.308175
    127          7           0        4.954920    6.449139   -3.614965
    128          1           0        4.261423    7.171820   -3.478300
    129          6           0        5.920617    6.609441   -4.686613
    130          1           0        6.716852    5.886035   -4.477607
    131          6           0        6.577696    7.988061   -4.710363
    132          6           0        5.333867    6.299829   -6.089067
    133          1           0        4.553166    7.038650   -6.321411
    134          1           0        6.143737    6.456756   -6.811475
    135          8           0        7.344487    8.337752   -5.578536
    136          6           0        4.746441    4.886859   -6.176419
    137          1           0        5.516180    4.148912   -5.920623
    138          1           0        3.952826    4.770904   -5.432739
    139          6           0        4.132359    4.526935   -7.532853
    140          1           0        3.534492    3.617813   -7.444247
    141          1           0        3.461591    5.318909   -7.883137
    142          7           0        5.126611    4.312545   -8.602125
    143          1           0        5.606237    5.133665   -8.948424
    144          7           0        5.277582    1.981200   -8.442818
    145          1           0        5.462716    1.119212   -8.937329
    146          1           0        4.738341    1.878946   -7.558343
    147          7           0        6.437998    3.129221  -10.086813
    148          1           0        6.899298    2.279137  -10.375035
    149          1           0        6.459246    3.902697  -10.735227
    150          6           0        5.595002    3.133900   -9.026989
    151          8           0        6.207866    8.776432   -3.679325
    152          1           0        6.685937    9.621288   -3.790105
 ---------------------------------------------------------------------

 SCF Done:  E(RB3LYP) =  -3586.68147669     A.U. after    1 cycles

 Alpha  occ. eigenvalues --  -19.28274 -19.22983 -19.22178 -19.21915 -19.20325
 Alpha  occ. eigenvalues --  -19.19885 -19.19766 -19.19681 -19.19376 -19.19043
 Alpha  occ. eigenvalues --  -19.18694 -19.18268 -19.17817 -14.50823 -14.50750
 Alpha  occ. eigenvalues --  -14.49121 -14.44866 -14.44791 -14.43347 -14.43270
 Alpha  occ. eigenvalues --  -14.43129 -14.42799 -14.41917 -14.41700 -14.41014
 Alpha  occ. eigenvalues --  -10.46891 -10.40584 -10.39274 -10.37597 -10.36970
 Alpha  occ. eigenvalues --  -10.36236 -10.35978 -10.35802 -10.35554 -10.35219
 Alpha  occ. eigenvalues --  -10.35173 -10.33685 -10.32802 -10.31688 -10.31115
 Alpha  occ. eigenvalues --  -10.30056 -10.29856 -10.29531 -10.29518 -10.29286
 Alpha  occ. eigenvalues --  -10.29086 -10.28602 -10.28196 -10.27752 -10.26518
 Alpha  occ. eigenvalues --  -10.26001 -10.25414 -10.25110 -10.24914 -10.24851
 Alpha  occ. eigenvalues --  -10.24837 -10.24347 -10.24225 -10.24141 -10.24087
 Alpha  occ. eigenvalues --  -10.24062 -10.23974 -10.23934 -10.23845 -10.23623
 Alpha  occ. eigenvalues --  -10.23560 -10.23545 -10.23505 -10.23244 -10.23206
 Alpha  occ. eigenvalues --  -10.23101 -10.22911 -10.22310 -10.22061 -10.21756
 Alpha  occ. eigenvalues --   -1.19064  -1.15157  -1.14724  -1.13119  -1.12216
 Alpha  occ. eigenvalues --   -1.11330  -1.10989  -1.10708  -1.10296  -1.10005
 Alpha  occ. eigenvalues --   -1.09987  -1.09421  -1.08793  -1.05878  -1.04588
 Alpha  occ. eigenvalues --   -1.02912  -1.01282  -1.00375  -0.99951  -0.99592
 Alpha  occ. eigenvalues --   -0.99565  -0.99002  -0.98796  -0.97701  -0.97026
 Alpha  occ. eigenvalues --   -0.90608  -0.90299  -0.89761  -0.87226  -0.87053
 Alpha  occ. eigenvalues --   -0.86230  -0.85849  -0.85595  -0.85523  -0.84566
 Alpha  occ. eigenvalues --   -0.84214  -0.81034  -0.80063  -0.79912  -0.79424
 Alpha  occ. eigenvalues --   -0.79411  -0.79006  -0.78430  -0.77960  -0.76876
 Alpha  occ. eigenvalues --   -0.76735  -0.75399  -0.74259  -0.73744  -0.72811
 Alpha  occ. eigenvalues --   -0.72483  -0.71971  -0.71645  -0.71492  -0.70674
 Alpha  occ. eigenvalues --   -0.69985  -0.69447  -0.68980  -0.68476  -0.68144
 Alpha  occ. eigenvalues --   -0.67039  -0.66813  -0.66503  -0.65725  -0.65630
 Alpha  occ. eigenvalues --   -0.65375  -0.65317  -0.65083  -0.64148  -0.64107
 Alpha  occ. eigenvalues --   -0.63893  -0.63808  -0.63703  -0.63133  -0.63123
 Alpha  occ. eigenvalues --   -0.62491  -0.61596  -0.61474  -0.61066  -0.60391
 Alpha  occ. eigenvalues --   -0.59609  -0.59329  -0.58989  -0.58785  -0.58387
 Alpha  occ. eigenvalues --   -0.57929  -0.57754  -0.57264  -0.56917  -0.56475
 Alpha  occ. eigenvalues --   -0.56195  -0.55718  -0.55527  -0.55371  -0.55246
 Alpha  occ. eigenvalues --   -0.55006  -0.54796  -0.54740  -0.54308  -0.54079
 Alpha  occ. eigenvalues --   -0.53885  -0.53192  -0.52996  -0.52706  -0.52337
 Alpha  occ. eigenvalues --   -0.52003  -0.51726  -0.51415  -0.51341  -0.51060
 Alpha  occ. eigenvalues --   -0.50875  -0.50637  -0.50220  -0.50101  -0.50065
 Alpha  occ. eigenvalues --   -0.49830  -0.49733  -0.49674  -0.49369  -0.49168
 Alpha  occ. eigenvalues --   -0.48977  -0.48718  -0.48521  -0.48355  -0.48074
 Alpha  occ. eigenvalues --   -0.47751  -0.47675  -0.47547  -0.47404  -0.47284
 Alpha  occ. eigenvalues --   -0.47171  -0.46954  -0.46875  -0.46858  -0.46628
 Alpha  occ. eigenvalues --   -0.46361  -0.46119  -0.46019  -0.45680  -0.45463
 Alpha  occ. eigenvalues --   -0.45256  -0.45111  -0.44952  -0.44755  -0.44629
 Alpha  occ. eigenvalues --   -0.44494  -0.44463  -0.44161  -0.44006  -0.43782
 Alpha  occ. eigenvalues --   -0.43771  -0.43477  -0.43365  -0.43324  -0.43131
 Alpha  occ. eigenvalues --   -0.43018  -0.42850  -0.42666  -0.42089  -0.41656
 Alpha  occ. eigenvalues --   -0.41621  -0.41463  -0.41431  -0.41342  -0.40898
 Alpha  occ. eigenvalues --   -0.40735  -0.40559  -0.40367  -0.40258  -0.40015
 Alpha  occ. eigenvalues --   -0.39689  -0.39464  -0.39061  -0.39028  -0.38876
 Alpha  occ. eigenvalues --   -0.38102  -0.37952  -0.37738  -0.37716  -0.37704
 Alpha  occ. eigenvalues --   -0.37330  -0.37112  -0.37076  -0.36905  -0.36660
 Alpha  occ. eigenvalues --   -0.36589  -0.36066  -0.35389  -0.34767  -0.34664
 Alpha  occ. eigenvalues --   -0.34257  -0.34217  -0.33855  -0.33584  -0.33478
 Alpha  occ. eigenvalues --   -0.32891  -0.32751  -0.31837  -0.31745  -0.31713
 Alpha  occ. eigenvalues --   -0.30708  -0.30497  -0.30255  -0.30042  -0.29872
 Alpha  occ. eigenvalues --   -0.29226  -0.26109
 Alpha virt. eigenvalues --   -0.10766  -0.07962  -0.07453  -0.07242  -0.07125
 Alpha virt. eigenvalues --   -0.06579  -0.06257  -0.06037  -0.05609  -0.05291
 Alpha virt. eigenvalues --   -0.05252  -0.05101  -0.04453  -0.04169  -0.03492

 Mulliken charges:
               1
     1  N   -0.806527
     2  H    0.337655
     3  H    0.360243
     4  H    0.469034
     5  C   -0.036843
     6  H    0.162694
     7  C    0.613949
     8  C   -0.097147
     9  H    0.137548
    10  O   -0.531286
    11  C   -0.471227
    12  H    0.156427
    13  H    0.162339
    14  H    0.158343
    15  C   -0.477761
    16  H    0.141678
    17  H    0.175715
    18  H    0.164908
    19  N   -0.612401
    20  H    0.347777
    21  C   -0.048495
    22  H    0.180443
    23  C    0.628277
    24  C   -0.097962
    25  H    0.147517
    26  O   -0.559999
    27  C   -0.263462
    28  H    0.144378
    29  H    0.137801
    30  C   -0.467927
    31  H    0.150424
    32  H    0.157158
    33  H    0.157851
    34  C   -0.461025
    35  H    0.155467
    36  H    0.152851
    37  H    0.155565
    38  N   -0.630243
    39  H    0.371341
    40  C   -0.043409
    41  H    0.216788
    42  C    0.618574
    43  C   -0.394975
    44  H    0.204873
    45  H    0.159413
    46  O   -0.560348
    47  C    0.158161
    48  C   -0.180042
    49  H    0.137450
    50  C   -0.182648
    51  H    0.131219
    52  C   -0.153283
    53  H    0.134560
    54  C   -0.110622
    55  H    0.141729
    56  C   -0.124717
    57  H    0.139059
    58  N   -0.615058
    59  H    0.377880
    60  C   -0.082340
    61  H    0.195169
    62  C    0.620786
    63  C   -0.262412
    64  H    0.152748
    65  H    0.142959
    66  O   -0.544777
    67  C   -0.077421
    68  H    0.140721
    69  C   -0.451980
    70  H    0.145871
    71  H    0.141907
    72  H    0.145369
    73  C   -0.446283
    74  H    0.142093
    75  H    0.141875
    76  H    0.148353
    77  N   -0.614278
    78  H    0.381836
    79  C   -0.074293
    80  H    0.195808
    81  C    0.628385
    82  C   -0.300856
    83  H    0.194050
    84  H    0.164047
    85  O   -0.541548
    86  C   -0.382729
    87  H    0.176759
    88  H    0.202503
    89  C    0.593049
    90  O   -0.602197
    91  O   -0.517647
    92  N   -0.620398
    93  H    0.373435
    94  C   -0.073365
    95  H    0.183728
    96  C    0.626585
    97  C   -0.356859
    98  H    0.197262
    99  H    0.200595
   100  O   -0.545741
   101  C    0.625720
   102  N   -0.729088
   103  H    0.343239
   104  H    0.380820
   105  O   -0.567132
   106  N   -0.614488
   107  H    0.384392
   108  C   -0.027827
   109  H    0.164051
   110  C    0.649189
   111  C   -0.399649
   112  H    0.170063
   113  H    0.165011
   114  O   -0.556696
   115  C    0.175167
   116  C   -0.186539
   117  H    0.114631
   118  C   -0.196143
   119  H    0.136120
   120  C   -0.160583
   121  H    0.141636
   122  C   -0.205142
   123  H    0.142089
   124  O   -0.686727
   125  H    0.451119
   126  C    0.353792
   127  N   -0.601780
   128  H    0.342836
   129  C   -0.060294
   130  H    0.215189
   131  C    0.595526
   132  C   -0.274771
   133  H    0.146822
   134  H    0.156456
   135  O   -0.456475
   136  C   -0.295669
   137  H    0.136696
   138  H    0.233686
   139  C   -0.190671
   140  H    0.210878
   141  H    0.183130
   142  N   -0.594118
   143  H    0.359056
   144  N   -0.791897
   145  H    0.365069
   146  H    0.436303
   147  N   -0.768002
   148  H    0.376306
   149  H    0.376412
   150  C    0.810847
   151  O   -0.564974
   152  H    0.425966
 Sum of Mulliken charges =   1.00000

 Dipole moment (field-independent basis, Debye):
    X=             12.2473    Y=             14.4014    Z=            -21.8599  Tot=             28.9007
 Quadrupole moment (field-independent basis, Debye-Ang):
   XX=           -280.3178   YY=           -355.7846   ZZ=           -104.8300
   XY=             68.6124   XZ=           -212.5334   YZ=            -94.7794

 Normal termination of Gaussian 16 at Sat Aug 13 08:30:00 2022.
