 Gaussian 16, Revision C.01,
 Gaussian 16:  ES64L-G16RevC.01  3-Jul-2019

 -------------------------------------------------------------------
 # B3LYP/6-31G* guess=read geom=check nosymm integral(ultrafinegrid)
 -------------------------------------------------------------------

 ------------------------------------------------------
 Candidate Structure: Conf:234 Charge calc in gas phase
 ------------------------------------------------------
 Structure from the checkpoint file:  "conf-234.chk"
 Charge =  1 Multiplicity = 1

                          Input orientation:
 ---------------------------------------------------------------------
 Center     Atomic      Atomic             Coordinates (Angstroms)
 Number     Number       Type             X           Y           Z
 ---------------------------------------------------------------------
      1          7           0      -10.393891    3.833693    5.475009
      2          1           0      -10.980925    3.781949    4.639232
      3          1           0      -10.426145    2.929687    5.950511
      4          1           0      -10.790033    4.536744    6.100292
      5          6           0       -8.986011    4.151644    5.119055
      6          1           0       -8.979343    5.051345    4.491960
      7          6           0       -8.425695    2.989749    4.307468
      8          6           0       -8.115965    4.414848    6.352244
      9          1           0       -8.274111    3.565332    7.023594
     10          8           0       -8.269847    1.865425    4.803756
     11          6           0       -6.630204    4.476538    5.996892
     12          1           0       -6.435538    5.309508    5.313980
     13          1           0       -6.030456    4.626863    6.897554
     14          1           0       -6.299772    3.551694    5.516489
     15          6           0       -8.533090    5.698883    7.064784
     16          1           0       -8.381778    6.556511    6.404588
     17          1           0       -9.578276    5.695510    7.377403
     18          1           0       -7.922950    5.848043    7.958364
     19          7           0       -8.152567    3.282584    3.014535
     20          1           0       -8.126969    4.244364    2.727172
     21          6           0       -7.561265    2.297540    2.125554
     22          1           0       -7.792992    1.340924    2.594801
     23          6           0       -6.038580    2.440117    2.147641
     24          6           0       -8.219215    2.308164    0.739618
     25          1           0       -9.261517    2.032488    0.937596
     26          8           0       -5.386101    2.987549    1.269184
     27          6           0       -7.620239    1.229732   -0.169611
     28          1           0       -6.540595    1.398184   -0.257088
     29          1           0       -8.034001    1.377040   -1.173443
     30          6           0       -8.218626    3.673607    0.059399
     31          1           0       -7.201299    4.025645   -0.108661
     32          1           0       -8.753500    4.418306    0.651885
     33          1           0       -8.719005    3.600283   -0.907984
     34          6           0       -7.912423   -0.194560    0.279454
     35          1           0       -7.356941   -0.916015   -0.323737
     36          1           0       -7.635508   -0.359684    1.323092
     37          1           0       -8.977028   -0.421893    0.182622
     38          7           0       -5.437620    1.994065    3.286174
     39          1           0       -5.985893    1.403685    3.894510
     40          6           0       -4.008317    1.731828    3.201480
     41          1           0       -3.490835    2.683568    3.064249
     42          6           0       -3.762287    0.852889    1.973046
     43          6           0       -3.509282    1.039745    4.475843
     44          1           0       -4.116854    0.146659    4.629352
     45          1           0       -3.690637    1.721812    5.309347
     46          8           0       -4.511935   -0.087434    1.704170
     47          6           0       -2.057531    0.653384    4.391040
     48          6           0       -1.712885   -0.666832    4.113454
     49          1           0       -2.495750   -1.412014    4.025058
     50          6           0       -1.043285    1.604509    4.506078
     51          1           0       -1.308203    2.635262    4.723892
     52          6           0       -0.384096   -1.029103    3.925188
     53          1           0       -0.143346   -2.057013    3.696946
     54          6           0        0.292309    1.241639    4.333718
     55          1           0        1.065174    1.994958    4.430565
     56          6           0        0.624095   -0.075795    4.028989
     57          1           0        1.662844   -0.352210    3.875918
     58          7           0       -2.678950    1.197456    1.242313
     59          1           0       -2.068427    1.933616    1.551935
     60          6           0       -2.173381    0.390134    0.152356
     61          1           0       -2.648383   -0.587607    0.213369
     62          6           0       -0.666715    0.274754    0.364954
     63          6           0       -2.444376    1.042327   -1.208108
     64          1           0       -1.986749    0.434813   -1.992992
     65          1           0       -1.938870    2.008690   -1.218537
     66          8           0       -0.012239    1.254635    0.719294
     67          6           0       -3.923518    1.241245   -1.553345
     68          1           0       -4.383240    1.799978   -0.740583
     69          6           0       -4.065119    2.061196   -2.829894
     70          1           0       -3.598389    1.542847   -3.670890
     71          1           0       -3.591601    3.039287   -2.724514
     72          1           0       -5.118513    2.221448   -3.071855
     73          6           0       -4.639721   -0.098061   -1.695890
     74          1           0       -4.208395   -0.666683   -2.523073
     75          1           0       -5.703424    0.046549   -1.903509
     76          1           0       -4.557386   -0.689916   -0.779977
     77          7           0       -0.092013   -0.918781    0.103758
     78          1           0       -0.636083   -1.656356   -0.308414
     79          6           0        1.354225   -1.058294    0.140761
     80          1           0        1.692329   -0.431451    0.972422
     81          6           0        1.963445   -0.530705   -1.168682
     82          6           0        1.801739   -2.492273    0.343084
     83          1           0        2.897525   -2.485357    0.337376
     84          1           0        1.488087   -3.094464   -0.511291
     85          8           0        2.411701   -1.272014   -2.035201
     86          6           0        1.336136   -3.131315    1.627599
     87          1           0        1.528281   -2.493198    2.496232
     88          1           0        0.262084   -3.343427    1.613139
     89          6           0        2.032000   -4.481336    1.878037
     90          8           0        1.885935   -4.955337    3.007835
     91          8           0        2.634539   -5.000102    0.922907
     92          7           0        1.949998    0.815874   -1.334234
     93          1           0        1.683225    1.388006   -0.543426
     94          6           0        2.838790    1.389549   -2.327275
     95          1           0        2.741703    0.790906   -3.232617
     96          6           0        4.290508    1.330150   -1.826979
     97          6           0        2.440527    2.826095   -2.651173
     98          1           0        1.368310    2.839285   -2.850780
     99          1           0        2.630749    3.486148   -1.801252
    100          8           0        4.572516    1.418160   -0.646133
    101          6           0        3.139728    3.330964   -3.902212
    102          7           0        3.292248    4.676180   -3.991473
    103          1           0        3.689283    5.031492   -4.841217
    104          1           0        2.878432    5.293722   -3.320127
    105          8           0        3.525656    2.568730   -4.777309
    106          7           0        5.213794    1.181400   -2.813556
    107          1           0        4.927003    1.312592   -3.778454
    108          6           0        6.626104    1.166081   -2.521904
    109          1           0        6.728894    1.427542   -1.468814
    110          6           0        7.317365    2.197155   -3.415558
    111          6           0        7.234608   -0.224699   -2.778330
    112          1           0        7.036706   -0.476428   -3.821926
    113          1           0        8.320443   -0.169858   -2.660119
    114          8           0        7.077741    2.252956   -4.617786
    115          6           0        6.675115   -1.277954   -1.857150
    116          6           0        7.353002   -1.671186   -0.702035
    117          1           0        8.323186   -1.246691   -0.476347
    118          6           0        5.430736   -1.866237   -2.117389
    119          1           0        4.872686   -1.572661   -2.997918
    120          6           0        6.811858   -2.613583    0.173365
    121          1           0        7.338087   -2.912693    1.071850
    122          6           0        4.881170   -2.811806   -1.254608
    123          1           0        3.910935   -3.238276   -1.471988
    124          8           0        5.053374   -4.059588    0.792896
    125          1           0        4.144220   -4.334225    0.554720
    126          6           0        5.567997   -3.177074   -0.096692
    127          7           0        8.225305    2.995956   -2.806769
    128          1           0        8.434314    2.875845   -1.827779
    129          6           0        9.017726    3.937695   -3.570849
    130          1           0        8.981846    3.625434   -4.616643
    131          6           0       10.468473    3.913769   -3.139511
    132          6           0        8.498110    5.378116   -3.490533
    133          1           0        8.578223    5.770225   -2.478801
    134          1           0        9.156030    5.981614   -4.113976
    135          8           0       11.402108    4.152118   -3.859345
    136          6           0        7.066211    5.498185   -3.984140
    137          1           0        6.959708    4.991529   -4.946396
    138          1           0        6.402621    4.987967   -3.286857
    139          6           0        6.597424    6.942769   -4.119412
    140          1           0        7.120927    7.453591   -4.929514
    141          1           0        5.535115    6.960838   -4.364033
    142          7           0        6.742455    7.712768   -2.867140
    143          1           0        6.153053    7.348744   -2.130620
    144          7           0        8.897005    8.532414   -3.296950
    145          1           0        9.843201    8.656299   -2.973855
    146          1           0        8.783289    8.343071   -4.277558
    147          7           0        8.189457    8.246841   -1.094307
    148          1           0        8.893649    8.912552   -0.804112
    149          1           0        7.396775    8.210135   -0.466341
    150          6           0        7.932241    8.169868   -2.431432
    151          8           0       10.605896    3.643275   -1.818930
    152          1           0       11.551782    3.666754   -1.625729
 ---------------------------------------------------------------------

 SCF Done:  E(RB3LYP) =  -3586.44777070     A.U. after    3 cycles

 Alpha  occ. eigenvalues --  -19.28202 -19.25621 -19.22317 -19.19824 -19.17953
 Alpha  occ. eigenvalues --  -19.17173 -19.16042 -19.15477 -19.13963 -19.12860
 Alpha  occ. eigenvalues --  -19.11238 -19.02469 -19.02157 -14.64338 -14.53412
 Alpha  occ. eigenvalues --  -14.53278 -14.53265 -14.49934 -14.43579 -14.43290
 Alpha  occ. eigenvalues --  -14.43219 -14.40244 -14.39553 -14.38153 -14.37253
 Alpha  occ. eigenvalues --  -10.49051 -10.43126 -10.41499 -10.40398 -10.36645
 Alpha  occ. eigenvalues --  -10.36623 -10.35803 -10.34496 -10.34109 -10.33216
 Alpha  occ. eigenvalues --  -10.32312 -10.32262 -10.32191 -10.31545 -10.30932
 Alpha  occ. eigenvalues --  -10.29856 -10.29848 -10.29813 -10.29580 -10.29321
 Alpha  occ. eigenvalues --  -10.27336 -10.27037 -10.26281 -10.26218 -10.25640
 Alpha  occ. eigenvalues --  -10.25166 -10.25091 -10.23907 -10.23769 -10.23226
 Alpha  occ. eigenvalues --  -10.22631 -10.22415 -10.22338 -10.22120 -10.21997
 Alpha  occ. eigenvalues --  -10.21662 -10.21532 -10.21465 -10.21089 -10.21051
 Alpha  occ. eigenvalues --  -10.20717 -10.20412 -10.20171 -10.17504 -10.17401
 Alpha  occ. eigenvalues --  -10.16770 -10.16348 -10.15984 -10.15455 -10.14362
 Alpha  occ. eigenvalues --   -1.19988  -1.19358  -1.17874  -1.16651  -1.12212
 Alpha  occ. eigenvalues --   -1.10311  -1.10260  -1.09626  -1.08234  -1.07544
 Alpha  occ. eigenvalues --   -1.07456  -1.06581  -1.06416  -1.06106  -1.04917
 Alpha  occ. eigenvalues --   -1.00242  -1.00205  -0.99938  -0.98404  -0.97180
 Alpha  occ. eigenvalues --   -0.96884  -0.96699  -0.95932  -0.95419  -0.94399
 Alpha  occ. eigenvalues --   -0.91934  -0.90534  -0.89396  -0.87641  -0.87527
 Alpha  occ. eigenvalues --   -0.86852  -0.85616  -0.84452  -0.84027  -0.83201
 Alpha  occ. eigenvalues --   -0.82160  -0.81729  -0.81389  -0.80462  -0.79727
 Alpha  occ. eigenvalues --   -0.79468  -0.78509  -0.78189  -0.77884  -0.77569
 Alpha  occ. eigenvalues --   -0.77525  -0.76607  -0.75516  -0.73896  -0.73176
 Alpha  occ. eigenvalues --   -0.72982  -0.72429  -0.72410  -0.71889  -0.71533
 Alpha  occ. eigenvalues --   -0.71450  -0.70466  -0.70355  -0.69950  -0.69509
 Alpha  occ. eigenvalues --   -0.69204  -0.67890  -0.66853  -0.66744  -0.66226
 Alpha  occ. eigenvalues --   -0.66107  -0.65703  -0.65192  -0.64646  -0.64108
 Alpha  occ. eigenvalues --   -0.64073  -0.63509  -0.62817  -0.62385  -0.62200
 Alpha  occ. eigenvalues --   -0.61618  -0.61500  -0.61148  -0.60759  -0.60540
 Alpha  occ. eigenvalues --   -0.60258  -0.59827  -0.59511  -0.59114  -0.58351
 Alpha  occ. eigenvalues --   -0.58076  -0.57753  -0.57547  -0.57318  -0.56485
 Alpha  occ. eigenvalues --   -0.56328  -0.56121  -0.55773  -0.55579  -0.54801
 Alpha  occ. eigenvalues --   -0.54331  -0.54201  -0.54122  -0.53736  -0.53622
 Alpha  occ. eigenvalues --   -0.53036  -0.52556  -0.52371  -0.52293  -0.51912
 Alpha  occ. eigenvalues --   -0.51759  -0.51499  -0.51177  -0.51066  -0.50811
 Alpha  occ. eigenvalues --   -0.50342  -0.50324  -0.50066  -0.49637  -0.49527
 Alpha  occ. eigenvalues --   -0.49266  -0.48797  -0.48741  -0.48583  -0.48453
 Alpha  occ. eigenvalues --   -0.48299  -0.47970  -0.47639  -0.47531  -0.47359
 Alpha  occ. eigenvalues --   -0.47264  -0.47075  -0.46961  -0.46627  -0.46235
 Alpha  occ. eigenvalues --   -0.46162  -0.46062  -0.45822  -0.45337  -0.45268
 Alpha  occ. eigenvalues --   -0.45226  -0.44905  -0.44693  -0.44556  -0.44437
 Alpha  occ. eigenvalues --   -0.44392  -0.44187  -0.44055  -0.43912  -0.43405
 Alpha  occ. eigenvalues --   -0.42994  -0.42958  -0.42442  -0.42290  -0.42270
 Alpha  occ. eigenvalues --   -0.42029  -0.41928  -0.41745  -0.41544  -0.41073
 Alpha  occ. eigenvalues --   -0.40875  -0.40682  -0.40554  -0.40263  -0.40125
 Alpha  occ. eigenvalues --   -0.39925  -0.39672  -0.39573  -0.39528  -0.38908
 Alpha  occ. eigenvalues --   -0.38729  -0.38621  -0.38527  -0.38308  -0.38228
 Alpha  occ. eigenvalues --   -0.37471  -0.37047  -0.36834  -0.36562  -0.36474
 Alpha  occ. eigenvalues --   -0.36236  -0.36083  -0.35910  -0.34966  -0.34399
 Alpha  occ. eigenvalues --   -0.34116  -0.34044  -0.33889  -0.33145  -0.32667
 Alpha  occ. eigenvalues --   -0.32204  -0.31834  -0.31678  -0.31234  -0.31195
 Alpha  occ. eigenvalues --   -0.30622  -0.30082  -0.29853  -0.29707  -0.29381
 Alpha  occ. eigenvalues --   -0.28766  -0.28737  -0.28017  -0.27514  -0.27425
 Alpha  occ. eigenvalues --   -0.27046  -0.25415  -0.22767  -0.18873  -0.18286
 Alpha  occ. eigenvalues --   -0.17314  -0.15841
 Alpha virt. eigenvalues --   -0.15139  -0.15115  -0.12128  -0.10199  -0.08543
 Alpha virt. eigenvalues --   -0.08019  -0.07653  -0.06979  -0.06618  -0.05744
 Alpha virt. eigenvalues --   -0.05061  -0.04156  -0.04067  -0.03612  -0.03310

 Mulliken charges:
               1
     1  N   -0.715356
     2  H    0.425055
     3  H    0.431593
     4  H    0.418261
     5  C   -0.130847
     6  H    0.192076
     7  C    0.613440
     8  C   -0.096170
     9  H    0.173188
    10  O   -0.521628
    11  C   -0.477708
    12  H    0.158292
    13  H    0.189558
    14  H    0.201777
    15  C   -0.468435
    16  H    0.171970
    17  H    0.128337
    18  H    0.204244
    19  N   -0.592473
    20  H    0.348444
    21  C   -0.096290
    22  H    0.201589
    23  C    0.636957
    24  C   -0.067823
    25  H    0.118586
    26  O   -0.510063
    27  C   -0.287920
    28  H    0.200284
    29  H    0.139599
    30  C   -0.478247
    31  H    0.195949
    32  H    0.099483
    33  H    0.166898
    34  C   -0.460406
    35  H    0.176521
    36  H    0.155460
    37  H    0.137064
    38  N   -0.610186
    39  H    0.348616
    40  C   -0.025411
    41  H    0.158573
    42  C    0.648518
    43  C   -0.386820
    44  H    0.164686
    45  H    0.146481
    46  O   -0.563969
    47  C    0.165869
    48  C   -0.189557
    49  H    0.139993
    50  C   -0.193652
    51  H    0.102454
    52  C   -0.133227
    53  H    0.188952
    54  C   -0.115207
    55  H    0.126141
    56  C   -0.131457
    57  H    0.158333
    58  N   -0.578737
    59  H    0.346753
    60  C   -0.077173
    61  H    0.180241
    62  C    0.655459
    63  C   -0.248183
    64  H    0.141394
    65  H    0.134321
    66  O   -0.575593
    67  C   -0.099718
    68  H    0.169624
    69  C   -0.440431
    70  H    0.143297
    71  H    0.131611
    72  H    0.136250
    73  C   -0.472442
    74  H    0.136137
    75  H    0.138932
    76  H    0.179877
    77  N   -0.592726
    78  H    0.340149
    79  C   -0.074983
    80  H    0.179390
    81  C    0.635484
    82  C   -0.280963
    83  H    0.170255
    84  H    0.157906
    85  O   -0.514771
    86  C   -0.374617
    87  H    0.130358
    88  H    0.118627
    89  C    0.583121
    90  O   -0.551945
    91  O   -0.601224
    92  N   -0.622900
    93  H    0.354571
    94  C   -0.039509
    95  H    0.205714
    96  C    0.611107
    97  C   -0.396762
    98  H    0.196632
    99  H    0.147899
   100  O   -0.531647
   101  C    0.611701
   102  N   -0.765332
   103  H    0.343067
   104  H    0.334674
   105  O   -0.494816
   106  N   -0.608588
   107  H    0.376773
   108  C   -0.051515
   109  H    0.167700
   110  C    0.621685
   111  C   -0.354113
   112  H    0.163219
   113  H    0.130365
   114  O   -0.533863
   115  C    0.170736
   116  C   -0.193908
   117  H    0.087030
   118  C   -0.185782
   119  H    0.123454
   120  C   -0.168314
   121  H    0.122289
   122  C   -0.208998
   123  H    0.168315
   124  O   -0.677344
   125  H    0.457009
   126  C    0.360090
   127  N   -0.624168
   128  H    0.354794
   129  C   -0.039581
   130  H    0.222193
   131  C    0.579570
   132  C   -0.292521
   133  H    0.144889
   134  H    0.139964
   135  O   -0.445287
   136  C   -0.272156
   137  H    0.211129
   138  H    0.175150
   139  C   -0.209232
   140  H    0.176919
   141  H    0.190342
   142  N   -0.550357
   143  H    0.358085
   144  N   -0.720393
   145  H    0.385880
   146  H    0.387689
   147  N   -0.727970
   148  H    0.376971
   149  H    0.376528
   150  C    0.724086
   151  O   -0.575356
   152  H    0.426123
 Sum of Mulliken charges =   1.00000

 Dipole moment (field-independent basis, Debye):
    X=            -21.3380    Y=             69.4409    Z=              9.8181  Tot=             73.3058
 Quadrupole moment (field-independent basis, Debye-Ang):
   XX=            211.7615   YY=           -163.3865   ZZ=           -317.7170
   XY=            141.1519   XZ=           -283.3288   YZ=             54.9645

 Normal termination of Gaussian 16 at Sat Aug 13 08:32:28 2022.
