 Gaussian 16, Revision C.01,
 Gaussian 16:  ES64L-G16RevC.01  3-Jul-2019

 -------------------------------------------------------------------
 # B3LYP/6-31G* guess=read geom=check nosymm integral(ultrafinegrid)
 -------------------------------------------------------------------

 ------------------------------------------------------
 Candidate Structure: Conf:883 Charge calc in gas phase
 ------------------------------------------------------
 Structure from the checkpoint file:  "conf-883.chk"
 Charge =  1 Multiplicity = 1

                          Input orientation:
 ---------------------------------------------------------------------
 Center     Atomic      Atomic             Coordinates (Angstroms)
 Number     Number       Type             X           Y           Z
 ---------------------------------------------------------------------
      1          7           0      -10.508633    4.721097    6.573110
      2          1           0      -11.259930    5.252294    6.125173
      3          1           0      -10.642982    3.678754    6.369381
      4          1           0      -10.529425    4.907391    7.579296
      5          6           0       -9.145109    4.968655    5.949894
      6          1           0       -9.229424    5.841890    5.298283
      7          6           0       -8.937360    3.667194    5.119735
      8          6           0       -8.088456    5.230685    7.056297
      9          1           0       -8.512485    6.039199    7.672207
     10          8           0       -9.705156    2.716901    5.357810
     11          6           0       -7.847564    4.004615    7.952103
     12          1           0       -7.391029    3.183403    7.389901
     13          1           0       -7.164833    4.271684    8.763783
     14          1           0       -8.762876    3.617906    8.418135
     15          6           0       -6.774136    5.767925    6.466014
     16          1           0       -6.231083    5.010835    5.891977
     17          1           0       -6.942805    6.637857    5.820706
     18          1           0       -6.118382    6.087985    7.281117
     19          7           0       -7.960141    3.668682    4.227819
     20          1           0       -7.311277    4.452470    4.121199
     21          6           0       -7.524085    2.501476    3.452478
     22          1           0       -7.620024    1.618510    4.090503
     23          6           0       -6.031265    2.799367    3.169990
     24          6           0       -8.402162    2.307993    2.177435
     25          1           0       -9.434663    2.326894    2.553856
     26          8           0       -5.600812    3.951340    3.324082
     27          6           0       -8.204032    0.939844    1.489267
     28          1           0       -7.196560    0.872044    1.059855
     29          1           0       -8.888174    0.921207    0.631493
     30          6           0       -8.227009    3.460347    1.177747
     31          1           0       -7.221887    3.465479    0.741131
     32          1           0       -8.393633    4.438435    1.642425
     33          1           0       -8.943585    3.357580    0.356380
     34          6           0       -8.485414   -0.287998    2.365043
     35          1           0       -8.456237   -1.200236    1.761235
     36          1           0       -7.748287   -0.419129    3.166885
     37          1           0       -9.475272   -0.226608    2.832951
     38          7           0       -5.285873    1.767058    2.761843
     39          1           0       -5.663541    0.828320    2.650841
     40          6           0       -3.873676    1.860361    2.404246
     41          1           0       -3.706456    2.805888    1.880037
     42          6           0       -3.622857    0.657682    1.475360
     43          6           0       -2.981786    1.812869    3.679968
     44          1           0       -3.203570    0.876879    4.205382
     45          1           0       -3.322683    2.636504    4.318440
     46          8           0       -4.327291   -0.352407    1.577821
     47          6           0       -1.493374    1.926628    3.425274
     48          6           0       -0.648723    0.825118    3.621076
     49          1           0       -1.073073   -0.117447    3.961711
     50          6           0       -0.928041    3.137629    2.997763
     51          1           0       -1.564188    4.011065    2.861711
     52          6           0        0.725590    0.927385    3.398601
     53          1           0        1.386423    0.080797    3.558176
     54          6           0        0.445420    3.239833    2.765608
     55          1           0        0.866298    4.186741    2.437270
     56          6           0        1.276908    2.135672    2.966808
     57          1           0        2.349029    2.187850    2.802851
     58          7           0       -2.613777    0.791764    0.598329
     59          1           0       -2.044096    1.631876    0.588501
     60          6           0       -2.106601   -0.312317   -0.220356
     61          1           0       -2.278075   -1.236856    0.337659
     62          6           0       -0.608139   -0.019443   -0.381877
     63          6           0       -2.817126   -0.376931   -1.588921
     64          1           0       -2.637980    0.580785   -2.093971
     65          1           0       -3.895533   -0.445162   -1.395498
     66          8           0       -0.237167    1.118390   -0.684084
     67          6           0       -2.379654   -1.537087   -2.507284
     68          1           0       -1.287076   -1.499125   -2.620831
     69          6           0       -2.753290   -2.912715   -1.931030
     70          1           0       -3.837665   -2.996211   -1.782968
     71          1           0       -2.276053   -3.111552   -0.963534
     72          1           0       -2.445893   -3.713894   -2.612292
     73          6           0       -3.001158   -1.357071   -3.900867
     74          1           0       -4.097675   -1.382505   -3.850806
     75          1           0       -2.680844   -2.155532   -4.579546
     76          1           0       -2.709292   -0.399830   -4.348805
     77          7           0        0.244747   -1.034126   -0.127809
     78          1           0       -0.118007   -1.970138   -0.010173
     79          6           0        1.684947   -0.845766   -0.215399
     80          1           0        1.886457    0.133171    0.223525
     81          6           0        2.115383   -0.774286   -1.696193
     82          6           0        2.403122   -1.922396    0.628232
     83          1           0        2.322237   -2.899299    0.132033
     84          1           0        1.853743   -1.989247    1.574688
     85          8           0        1.388995   -1.206203   -2.602946
     86          6           0        3.879357   -1.610444    0.953924
     87          1           0        4.217493   -2.320922    1.714220
     88          1           0        4.505985   -1.732555    0.065120
     89          6           0        4.011734   -0.173944    1.500768
     90          8           0        4.234860    0.720218    0.582510
     91          8           0        3.828551    0.045488    2.699968
     92          7           0        3.296256   -0.155046   -1.927529
     93          1           0        3.855279    0.183002   -1.120185
     94          6           0        3.779982    0.012621   -3.286159
     95          1           0        3.239627   -0.709827   -3.903301
     96          6           0        5.295586   -0.222568   -3.350083
     97          6           0        3.585391    1.456527   -3.854474
     98          1           0        4.404441    2.082741   -3.497806
     99          1           0        3.670742    1.426886   -4.948109
    100          8           0        6.041068    0.177205   -2.462262
    101          6           0        2.310608    2.204006   -3.472817
    102          7           0        1.137792    1.547957   -3.575127
    103          1           0        0.344330    1.988250   -3.122855
    104          1           0        1.121567    0.528407   -3.578604
    105          8           0        2.376097    3.395898   -3.123345
    106          7           0        5.744270   -0.799130   -4.507962
    107          1           0        5.062702   -0.885728   -5.253542
    108          6           0        7.101805   -0.509989   -4.978269
    109          1           0        7.775480   -0.640957   -4.128522
    110          6           0        7.103264    0.956484   -5.458635
    111          6           0        7.484854   -1.474139   -6.119269
    112          1           0        7.360900   -2.496462   -5.743729
    113          1           0        6.766194   -1.336676   -6.936967
    114          8           0        6.224495    1.361677   -6.220962
    115          6           0        8.893052   -1.257849   -6.631160
    116          6           0        9.141508   -0.435020   -7.740169
    117          1           0        8.305580    0.034390   -8.253664
    118          6           0        9.989881   -1.851275   -5.994973
    119          1           0        9.829017   -2.504348   -5.139639
    120          6           0       10.434867   -0.207388   -8.199789
    121          1           0       10.624078    0.422965   -9.062902
    122          6           0       11.292309   -1.632588   -6.442266
    123          1           0       12.130156   -2.108908   -5.936427
    124          8           0       12.766499   -0.551416   -8.040563
    125          1           0       13.422934   -1.032256   -7.512642
    126          6           0       11.518793   -0.806784   -7.548576
    127          7           0        8.069359    1.759375   -4.955004
    128          1           0        8.827854    1.383134   -4.398750
    129          6           0        8.135631    3.171095   -5.288665
    130          1           0        7.899516    3.293754   -6.350917
    131          6           0        9.563570    3.635836   -5.045435
    132          6           0        7.119911    4.021232   -4.476818
    133          1           0        7.172644    5.054193   -4.841746
    134          1           0        6.124625    3.638293   -4.725903
    135          8           0       10.401740    3.002284   -4.440943
    136          6           0        7.358604    3.985576   -2.961455
    137          1           0        7.353179    2.943412   -2.617660
    138          1           0        8.356158    4.387792   -2.738832
    139          6           0        6.344037    4.808320   -2.141282
    140          1           0        6.774036    5.055779   -1.164875
    141          1           0        6.140041    5.761128   -2.641312
    142          7           0        5.050467    4.168183   -1.894911
    143          1           0        4.263361    4.319058   -2.523524
    144          7           0        5.774983    2.928362   -0.028795
    145          1           0        5.465457    2.124588    0.543117
    146          1           0        6.684797    2.808154   -0.452413
    147          7           0        3.528365    3.104652   -0.495000
    148          1           0        3.421195    2.270303    0.100770
    149          1           0        2.793168    3.346884   -1.153596
    150          6           0        4.789719    3.388051   -0.828712
    151          8           0        9.779467    4.865040   -5.552186
    152          1           0       10.704158    5.099391   -5.343216
 ---------------------------------------------------------------------

 SCF Done:  E(RB3LYP) =  -3586.65332600     A.U. after    2 cycles

 Alpha  occ. eigenvalues --  -19.26479 -19.26270 -19.21762 -19.21220 -19.20749
 Alpha  occ. eigenvalues --  -19.18484 -19.17634 -19.17532 -19.17393 -19.16945
 Alpha  occ. eigenvalues --  -19.16664 -19.12774 -19.11178 -14.59523 -14.48839
 Alpha  occ. eigenvalues --  -14.44707 -14.43421 -14.42496 -14.41924 -14.41822
 Alpha  occ. eigenvalues --  -14.41709 -14.41218 -14.40550 -14.40072 -14.40021
 Alpha  occ. eigenvalues --  -10.43145 -10.40313 -10.38667 -10.38381 -10.38272
 Alpha  occ. eigenvalues --  -10.35569 -10.34967 -10.34578 -10.34428 -10.34388
 Alpha  occ. eigenvalues --  -10.34059 -10.33633 -10.33556 -10.30946 -10.30279
 Alpha  occ. eigenvalues --  -10.30075 -10.29780 -10.29727 -10.29567 -10.29310
 Alpha  occ. eigenvalues --  -10.29052 -10.29011 -10.28809 -10.28636 -10.27817
 Alpha  occ. eigenvalues --  -10.26168 -10.25772 -10.25762 -10.25473 -10.25432
 Alpha  occ. eigenvalues --  -10.25306 -10.24952 -10.24511 -10.24396 -10.23927
 Alpha  occ. eigenvalues --  -10.23601 -10.23489 -10.23488 -10.23435 -10.23362
 Alpha  occ. eigenvalues --  -10.23149 -10.23132 -10.23077 -10.23015 -10.22511
 Alpha  occ. eigenvalues --  -10.22268 -10.22082 -10.22067 -10.21688 -10.21078
 Alpha  occ. eigenvalues --   -1.18881  -1.17272  -1.13523  -1.12939  -1.10420
 Alpha  occ. eigenvalues --   -1.09828  -1.09822  -1.09361  -1.08834  -1.08709
 Alpha  occ. eigenvalues --   -1.08237  -1.07962  -1.07259  -1.05489  -1.04719
 Alpha  occ. eigenvalues --   -1.01225  -0.98892  -0.98439  -0.98205  -0.98143
 Alpha  occ. eigenvalues --   -0.97439  -0.96986  -0.95804  -0.95329  -0.94853
 Alpha  occ. eigenvalues --   -0.94409  -0.90492  -0.89757  -0.89625  -0.86567
 Alpha  occ. eigenvalues --   -0.86468  -0.86082  -0.84947  -0.84836  -0.83594
 Alpha  occ. eigenvalues --   -0.82233  -0.82163  -0.81364  -0.81092  -0.80417
 Alpha  occ. eigenvalues --   -0.79973  -0.78873  -0.78321  -0.77922  -0.77450
 Alpha  occ. eigenvalues --   -0.75642  -0.75110  -0.74777  -0.73603  -0.73153
 Alpha  occ. eigenvalues --   -0.72772  -0.72696  -0.72245  -0.70916  -0.70662
 Alpha  occ. eigenvalues --   -0.69902  -0.69821  -0.68787  -0.67908  -0.67405
 Alpha  occ. eigenvalues --   -0.67146  -0.66506  -0.66250  -0.66111  -0.65561
 Alpha  occ. eigenvalues --   -0.64991  -0.64434  -0.64354  -0.64041  -0.63852
 Alpha  occ. eigenvalues --   -0.63654  -0.62935  -0.62868  -0.62532  -0.62400
 Alpha  occ. eigenvalues --   -0.61961  -0.61342  -0.60931  -0.60473  -0.60188
 Alpha  occ. eigenvalues --   -0.59580  -0.58679  -0.58265  -0.58082  -0.57156
 Alpha  occ. eigenvalues --   -0.56784  -0.56392  -0.56145  -0.55845  -0.55440
 Alpha  occ. eigenvalues --   -0.55192  -0.55011  -0.54717  -0.54667  -0.54369
 Alpha  occ. eigenvalues --   -0.54056  -0.53926  -0.53847  -0.53617  -0.53484
 Alpha  occ. eigenvalues --   -0.53306  -0.52824  -0.52626  -0.52476  -0.51947
 Alpha  occ. eigenvalues --   -0.51897  -0.51579  -0.51415  -0.51226  -0.50943
 Alpha  occ. eigenvalues --   -0.50657  -0.50600  -0.50328  -0.50180  -0.50146
 Alpha  occ. eigenvalues --   -0.50106  -0.49924  -0.49727  -0.49616  -0.49265
 Alpha  occ. eigenvalues --   -0.49161  -0.48722  -0.48564  -0.48239  -0.47861
 Alpha  occ. eigenvalues --   -0.47761  -0.47437  -0.47359  -0.47112  -0.47050
 Alpha  occ. eigenvalues --   -0.46931  -0.46919  -0.46805  -0.46734  -0.46395
 Alpha  occ. eigenvalues --   -0.46214  -0.46147  -0.45956  -0.45826  -0.45695
 Alpha  occ. eigenvalues --   -0.45540  -0.45078  -0.44973  -0.44936  -0.44751
 Alpha  occ. eigenvalues --   -0.44526  -0.44317  -0.44114  -0.43992  -0.43656
 Alpha  occ. eigenvalues --   -0.43500  -0.43162  -0.42827  -0.42764  -0.42559
 Alpha  occ. eigenvalues --   -0.42398  -0.42124  -0.42095  -0.42050  -0.42024
 Alpha  occ. eigenvalues --   -0.41697  -0.41578  -0.41306  -0.41102  -0.41065
 Alpha  occ. eigenvalues --   -0.40769  -0.40693  -0.40241  -0.40117  -0.39781
 Alpha  occ. eigenvalues --   -0.39715  -0.39514  -0.38390  -0.38357  -0.38094
 Alpha  occ. eigenvalues --   -0.37981  -0.37938  -0.37892  -0.37746  -0.37547
 Alpha  occ. eigenvalues --   -0.37310  -0.36877  -0.36774  -0.35344  -0.34436
 Alpha  occ. eigenvalues --   -0.34390  -0.33622  -0.32993  -0.32736  -0.32688
 Alpha  occ. eigenvalues --   -0.32432  -0.32165  -0.32151  -0.31669  -0.31467
 Alpha  occ. eigenvalues --   -0.31114  -0.30686  -0.30100  -0.29995  -0.29467
 Alpha  occ. eigenvalues --   -0.29258  -0.29016  -0.28359  -0.27920  -0.27425
 Alpha  occ. eigenvalues --   -0.25878  -0.24941
 Alpha virt. eigenvalues --   -0.11979  -0.10973  -0.07165  -0.06585  -0.05757
 Alpha virt. eigenvalues --   -0.05283  -0.04997  -0.04580  -0.04503  -0.04435
 Alpha virt. eigenvalues --   -0.04295  -0.03802  -0.03451  -0.03238  -0.03144

 Mulliken charges:
               1
     1  N   -0.763741
     2  H    0.415030
     3  H    0.435971
     4  H    0.410346
     5  C   -0.104316
     6  H    0.209677
     7  C    0.652472
     8  C   -0.111141
     9  H    0.157537
    10  O   -0.552183
    11  C   -0.469002
    12  H    0.185747
    13  H    0.194672
    14  H    0.141266
    15  C   -0.479779
    16  H    0.190889
    17  H    0.165582
    18  H    0.189199
    19  N   -0.607201
    20  H    0.382881
    21  C   -0.078271
    22  H    0.190828
    23  C    0.638157
    24  C   -0.075481
    25  H    0.148408
    26  O   -0.563181
    27  C   -0.279664
    28  H    0.156947
    29  H    0.155179
    30  C   -0.462949
    31  H    0.167669
    32  H    0.136821
    33  H    0.165137
    34  C   -0.461125
    35  H    0.173281
    36  H    0.143461
    37  H    0.154511
    38  N   -0.623540
    39  H    0.374317
    40  C   -0.052760
    41  H    0.179762
    42  C    0.628952
    43  C   -0.349125
    44  H    0.155463
    45  H    0.169108
    46  O   -0.557342
    47  C    0.157874
    48  C   -0.190422
    49  H    0.123170
    50  C   -0.203720
    51  H    0.123024
    52  C   -0.143497
    53  H    0.172010
    54  C   -0.123952
    55  H    0.132594
    56  C   -0.142222
    57  H    0.174353
    58  N   -0.614239
    59  H    0.361285
    60  C   -0.038767
    61  H    0.168477
    62  C    0.631354
    63  C   -0.251849
    64  H    0.141001
    65  H    0.149593
    66  O   -0.566240
    67  C   -0.105835
    68  H    0.165169
    69  C   -0.445938
    70  H    0.147417
    71  H    0.126028
    72  H    0.154310
    73  C   -0.443104
    74  H    0.139258
    75  H    0.150398
    76  H    0.141539
    77  N   -0.597846
    78  H    0.339861
    79  C   -0.063614
    80  H    0.207688
    81  C    0.623684
    82  C   -0.305272
    83  H    0.146449
    84  H    0.165451
    85  O   -0.565994
    86  C   -0.338094
    87  H    0.157323
    88  H    0.149041
    89  C    0.571610
    90  O   -0.648129
    91  O   -0.524434
    92  N   -0.638720
    93  H    0.411138
    94  C   -0.064432
    95  H    0.178418
    96  C    0.612876
    97  C   -0.389608
    98  H    0.180160
    99  H    0.202855
   100  O   -0.525810
   101  C    0.593920
   102  N   -0.731072
   103  H    0.353839
   104  H    0.382196
   105  O   -0.564698
   106  N   -0.580663
   107  H    0.338553
   108  C   -0.055872
   109  H    0.175264
   110  C    0.642085
   111  C   -0.374049
   112  H    0.168030
   113  H    0.161304
   114  O   -0.558451
   115  C    0.151603
   116  C   -0.191868
   117  H    0.143655
   118  C   -0.194204
   119  H    0.132461
   120  C   -0.159503
   121  H    0.146615
   122  C   -0.189824
   123  H    0.127738
   124  O   -0.637657
   125  H    0.411324
   126  C    0.354068
   127  N   -0.605510
   128  H    0.360537
   129  C   -0.029548
   130  H    0.204345
   131  C    0.584295
   132  C   -0.284229
   133  H    0.163037
   134  H    0.181333
   135  O   -0.464366
   136  C   -0.291211
   137  H    0.172269
   138  H    0.155623
   139  C   -0.169956
   140  H    0.180847
   141  H    0.174025
   142  N   -0.612480
   143  H    0.376542
   144  N   -0.755092
   145  H    0.400413
   146  H    0.354421
   147  N   -0.786872
   148  H    0.406579
   149  H    0.381589
   150  C    0.746539
   151  O   -0.563389
   152  H    0.423328
 Sum of Mulliken charges =   1.00000

 Dipole moment (field-independent basis, Debye):
    X=            -27.3666    Y=             21.1106    Z=             15.1624  Tot=             37.7423
 Quadrupole moment (field-independent basis, Debye-Ang):
   XX=             54.2377   YY=           -308.4011   ZZ=           -276.8885
   XY=           -155.3881   XZ=           -297.1227   YZ=            111.1468

 Normal termination of Gaussian 16 at Sat Aug 13 08:30:16 2022.
