 Gaussian 16, Revision C.01,
 Gaussian 16:  ES64L-G16RevC.01  3-Jul-2019

 -------------------------------------------------------------------
 # B3LYP/6-31G* guess=read geom=check nosymm integral(ultrafinegrid)
 -------------------------------------------------------------------

 ------------------------------------------------------
 Candidate Structure: Conf:929 Charge calc in gas phase
 ------------------------------------------------------
 Structure from the checkpoint file:  "conf-929.chk"
 Charge =  1 Multiplicity = 1

                          Input orientation:
 ---------------------------------------------------------------------
 Center     Atomic      Atomic             Coordinates (Angstroms)
 Number     Number       Type             X           Y           Z
 ---------------------------------------------------------------------
      1          7           0       -6.471276   -0.970426    9.964434
      2          1           0       -7.483536   -1.101174    9.883262
      3          1           0       -5.985102   -1.850745    9.610919
      4          1           0       -6.245666   -0.773424   10.942471
      5          6           0       -5.926330    0.073838    9.004499
      6          1           0       -6.751577    0.725626    8.704858
      7          6           0       -5.440853   -0.825091    7.827025
      8          6           0       -4.806313    0.900878    9.689925
      9          1           0       -4.005658    0.197678    9.961754
     10          8           0       -5.232114   -2.023464    8.087989
     11          6           0       -4.223802    1.950366    8.727178
     12          1           0       -4.994577    2.657338    8.395936
     13          1           0       -3.454243    2.527993    9.247191
     14          1           0       -3.760091    1.509960    7.842249
     15          6           0       -5.318511    1.597823   10.964728
     16          1           0       -6.147525    2.279242   10.739905
     17          1           0       -5.649812    0.910620   11.755722
     18          1           0       -4.512228    2.191338   11.405012
     19          7           0       -5.299094   -0.254024    6.641531
     20          1           0       -5.405848    0.754001    6.495967
     21          6           0       -4.739231   -0.909687    5.454183
     22          1           0       -3.930374   -1.573326    5.778027
     23          6           0       -4.162600    0.271814    4.634353
     24          6           0       -5.815313   -1.761280    4.711339
     25          1           0       -6.259266   -2.383950    5.500913
     26          8           0       -4.494281    1.430060    4.924657
     27          6           0       -5.179173   -2.726250    3.687263
     28          1           0       -4.295478   -3.196263    4.142736
     29          1           0       -4.821874   -2.172465    2.810549
     30          6           0       -6.919431   -0.886170    4.100710
     31          1           0       -6.536734   -0.279340    3.272028
     32          1           0       -7.354136   -0.204562    4.840394
     33          1           0       -7.731827   -1.505348    3.710146
     34          6           0       -6.130014   -3.836313    3.221795
     35          1           0       -5.611267   -4.521875    2.544239
     36          1           0       -6.502629   -4.423387    4.070005
     37          1           0       -6.994954   -3.436854    2.682009
     38          7           0       -3.316132   -0.041061    3.647325
     39          1           0       -3.129519   -1.005761    3.382441
     40          6           0       -2.792753    0.931527    2.696481
     41          1           0       -3.587551    1.654381    2.477913
     42          6           0       -2.484927    0.124592    1.415088
     43          6           0       -1.581173    1.731232    3.257337
     44          1           0       -1.947409    2.240877    4.155581
     45          1           0       -1.333578    2.520369    2.537580
     46          8           0       -2.597775   -1.103621    1.410851
     47          6           0       -0.341455    0.919449    3.571905
     48          6           0       -0.232911    0.209508    4.776447
     49          1           0       -1.044230    0.253588    5.499835
     50          6           0        0.734196    0.880833    2.672639
     51          1           0        0.675202    1.443545    1.743955
     52          6           0        0.911733   -0.533186    5.066864
     53          1           0        0.981539   -1.074081    6.007573
     54          6           0        1.886628    0.145116    2.960909
     55          1           0        2.720281    0.137593    2.261137
     56          6           0        1.971688   -0.567216    4.158823
     57          1           0        2.868282   -1.136281    4.390325
     58          7           0       -2.139832    0.860927    0.337303
     59          1           0       -1.848414    1.826195    0.470465
     60          6           0       -1.590637    0.279125   -0.883940
     61          1           0       -1.404039   -0.780097   -0.688504
     62          6           0       -0.255853    1.010412   -1.139723
     63          6           0       -2.538446    0.445089   -2.093766
     64          1           0       -2.023542    0.065333   -2.987424
     65          1           0       -2.687473    1.521035   -2.257971
     66          8           0       -0.026105    2.100022   -0.605122
     67          6           0       -3.908518   -0.248884   -1.969547
     68          1           0       -4.388233    0.121143   -1.052085
     69          6           0       -4.797457    0.148097   -3.158433
     70          1           0       -4.364753   -0.196782   -4.106403
     71          1           0       -4.920923    1.235625   -3.224544
     72          1           0       -5.794359   -0.298409   -3.068961
     73          6           0       -3.787211   -1.776695   -1.861405
     74          1           0       -3.255620   -2.191073   -2.728571
     75          1           0       -4.780870   -2.239306   -1.835855
     76          1           0       -3.260503   -2.080568   -0.951464
     77          7           0        0.600088    0.395585   -1.977160
     78          1           0        0.373968   -0.487262   -2.424191
     79          6           0        1.900392    0.945162   -2.330030
     80          1           0        1.791631    2.025802   -2.474838
     81          6           0        2.333234    0.269889   -3.637091
     82          6           0        2.973619    0.698094   -1.235314
     83          1           0        2.683249    1.249625   -0.337582
     84          1           0        3.912223    1.143983   -1.584559
     85          8           0        1.825921   -0.800309   -4.003021
     86          6           0        3.185236   -0.788525   -0.909156
     87          1           0        2.328968   -1.160221   -0.329746
     88          1           0        3.234306   -1.393876   -1.818436
     89          6           0        4.456765   -1.061792   -0.094300
     90          8           0        5.161059   -2.050374   -0.403405
     91          8           0        4.707345   -0.245420    0.866935
     92          7           0        3.356229    0.871672   -4.274916
     93          1           0        3.576833    1.849953   -4.087947
     94          6           0        3.985288    0.297076   -5.464641
     95          1           0        3.197011   -0.106518   -6.110445
     96          6           0        4.943996   -0.849799   -5.009914
     97          6           0        4.819339    1.351705   -6.215594
     98          1           0        5.761538    1.467409   -5.668289
     99          1           0        5.073764    0.946464   -7.199908
    100          8           0        6.122936   -0.616314   -4.771653
    101          6           0        4.173796    2.726334   -6.311800
    102          7           0        4.006315    3.230502   -7.561447
    103          1           0        3.657708    4.175282   -7.653498
    104          1           0        4.351671    2.763072   -8.385719
    105          8           0        3.838203    3.355904   -5.306501
    106          7           0        4.326443   -2.053834   -4.899970
    107          1           0        3.310974   -2.017632   -4.938100
    108          6           0        4.877986   -3.314396   -4.373349
    109          1           0        4.377821   -3.521293   -3.417753
    110          6           0        6.400427   -3.218494   -4.118433
    111          6           0        4.570533   -4.464983   -5.358697
    112          1           0        3.527782   -4.360926   -5.684442
    113          1           0        5.207259   -4.317372   -6.236294
    114          8           0        7.221432   -3.419771   -5.002770
    115          6           0        4.776768   -5.843133   -4.763615
    116          6           0        6.039036   -6.459093   -4.760239
    117          1           0        6.884339   -5.935712   -5.196195
    118          6           0        3.708507   -6.537549   -4.184329
    119          1           0        2.715958   -6.091108   -4.180211
    120          6           0        6.226902   -7.719157   -4.200571
    121          1           0        7.201873   -8.196766   -4.207473
    122          6           0        3.881647   -7.801040   -3.618228
    123          1           0        3.033957   -8.324890   -3.179035
    124          8           0        5.386883   -9.633041   -3.089574
    125          1           0        4.552268   -9.998745   -2.757860
    126          6           0        5.146245   -8.396012   -3.625646
    127          7           0        6.718540   -2.957091   -2.820381
    128          1           0        5.983540   -2.726687   -2.146558
    129          6           0        8.070699   -2.570220   -2.429198
    130          1           0        8.662073   -2.539639   -3.350843
    131          6           0        8.656430   -3.692635   -1.564528
    132          6           0        7.969358   -1.198458   -1.738421
    133          1           0        7.659520   -0.491034   -2.514923
    134          1           0        7.127399   -1.292179   -1.050360
    135          8           0        8.951002   -3.640230   -0.379918
    136          6           0        9.177727   -0.659509   -0.954749
    137          1           0        9.805557   -1.477588   -0.595789
    138          1           0        9.823934   -0.037062   -1.585569
    139          6           0        8.731350    0.209405    0.249230
    140          1           0        9.564327    0.352366    0.945672
    141          1           0        8.422770    1.199107   -0.098890
    142          7           0        7.580254   -0.304261    1.002685
    143          1           0        6.632146    0.029903    0.778650
    144          7           0        8.697709   -2.061170    2.064470
    145          1           0        8.602220   -2.790511    2.760548
    146          1           0        9.135887   -2.407095    1.210494
    147          7           0        6.452227   -1.545751    2.568308
    148          1           0        6.297980   -2.505185    2.851985
    149          1           0        5.619830   -1.078337    2.146989
    150          6           0        7.572990   -1.322843    1.854868
    151          8           0        8.814402   -4.819305   -2.275251
    152          1           0        9.148681   -5.500245   -1.661023
 ---------------------------------------------------------------------

 SCF Done:  E(RB3LYP) =  -3586.63701712     A.U. after    3 cycles

 Alpha  occ. eigenvalues --  -19.26382 -19.24261 -19.21249 -19.20661 -19.19626
 Alpha  occ. eigenvalues --  -19.19044 -19.17868 -19.17447 -19.17107 -19.15739
 Alpha  occ. eigenvalues --  -19.13857 -19.13268 -19.12579 -14.59607 -14.48818
 Alpha  occ. eigenvalues --  -14.44465 -14.42637 -14.42451 -14.42359 -14.41616
 Alpha  occ. eigenvalues --  -14.41489 -14.41270 -14.41168 -14.40075 -14.38296
 Alpha  occ. eigenvalues --  -10.43136 -10.40433 -10.38600 -10.38194 -10.37179
 Alpha  occ. eigenvalues --  -10.36002 -10.34937 -10.34512 -10.34479 -10.34450
 Alpha  occ. eigenvalues --  -10.33631 -10.33015 -10.31427 -10.31295 -10.31076
 Alpha  occ. eigenvalues --  -10.30830 -10.29685 -10.29178 -10.29098 -10.28540
 Alpha  occ. eigenvalues --  -10.28466 -10.28405 -10.27570 -10.27337 -10.27029
 Alpha  occ. eigenvalues --  -10.25992 -10.25904 -10.25746 -10.25092 -10.24680
 Alpha  occ. eigenvalues --  -10.24427 -10.24219 -10.23960 -10.23936 -10.23821
 Alpha  occ. eigenvalues --  -10.23509 -10.23388 -10.23079 -10.22916 -10.22760
 Alpha  occ. eigenvalues --  -10.22028 -10.21969 -10.21945 -10.21804 -10.21751
 Alpha  occ. eigenvalues --  -10.21653 -10.21642 -10.21386 -10.21102 -10.20940
 Alpha  occ. eigenvalues --   -1.18852  -1.15666  -1.13611  -1.12988  -1.10820
 Alpha  occ. eigenvalues --   -1.09756  -1.09030  -1.08750  -1.08614  -1.07615
 Alpha  occ. eigenvalues --   -1.07575  -1.06418  -1.05704  -1.05609  -1.05436
 Alpha  occ. eigenvalues --   -1.01132  -0.99086  -0.98125  -0.97887  -0.97035
 Alpha  occ. eigenvalues --   -0.96769  -0.96368  -0.96156  -0.95257  -0.95222
 Alpha  occ. eigenvalues --   -0.95045  -0.90577  -0.90042  -0.87896  -0.86737
 Alpha  occ. eigenvalues --   -0.86389  -0.85061  -0.84758  -0.83919  -0.82605
 Alpha  occ. eigenvalues --   -0.82256  -0.81670  -0.81355  -0.80553  -0.79454
 Alpha  occ. eigenvalues --   -0.79299  -0.78812  -0.78200  -0.77268  -0.76363
 Alpha  occ. eigenvalues --   -0.75657  -0.74761  -0.73897  -0.73524  -0.73040
 Alpha  occ. eigenvalues --   -0.72841  -0.72699  -0.72308  -0.70959  -0.70064
 Alpha  occ. eigenvalues --   -0.69669  -0.69535  -0.68522  -0.67923  -0.66800
 Alpha  occ. eigenvalues --   -0.66562  -0.66078  -0.65476  -0.65048  -0.65014
 Alpha  occ. eigenvalues --   -0.64839  -0.64666  -0.64186  -0.63723  -0.63262
 Alpha  occ. eigenvalues --   -0.63233  -0.62679  -0.62477  -0.62106  -0.61844
 Alpha  occ. eigenvalues --   -0.61187  -0.60645  -0.60289  -0.59692  -0.59437
 Alpha  occ. eigenvalues --   -0.58843  -0.58369  -0.57778  -0.57030  -0.56878
 Alpha  occ. eigenvalues --   -0.56659  -0.56592  -0.56391  -0.55923  -0.55668
 Alpha  occ. eigenvalues --   -0.55494  -0.55380  -0.54753  -0.54326  -0.54053
 Alpha  occ. eigenvalues --   -0.53888  -0.53766  -0.53292  -0.53209  -0.52782
 Alpha  occ. eigenvalues --   -0.52426  -0.52264  -0.52246  -0.52039  -0.51896
 Alpha  occ. eigenvalues --   -0.51622  -0.51485  -0.51415  -0.50777  -0.50710
 Alpha  occ. eigenvalues --   -0.50639  -0.50468  -0.50121  -0.49892  -0.49843
 Alpha  occ. eigenvalues --   -0.49546  -0.49367  -0.49201  -0.48893  -0.48693
 Alpha  occ. eigenvalues --   -0.48655  -0.48101  -0.48053  -0.47851  -0.47437
 Alpha  occ. eigenvalues --   -0.47331  -0.47130  -0.46965  -0.46919  -0.46583
 Alpha  occ. eigenvalues --   -0.46460  -0.46315  -0.45986  -0.45982  -0.45922
 Alpha  occ. eigenvalues --   -0.45547  -0.45486  -0.45295  -0.45084  -0.44987
 Alpha  occ. eigenvalues --   -0.44870  -0.44793  -0.44577  -0.44371  -0.44282
 Alpha  occ. eigenvalues --   -0.43986  -0.43893  -0.43750  -0.43560  -0.43367
 Alpha  occ. eigenvalues --   -0.43227  -0.43091  -0.42892  -0.42703  -0.42558
 Alpha  occ. eigenvalues --   -0.42414  -0.41790  -0.41706  -0.41438  -0.41392
 Alpha  occ. eigenvalues --   -0.41094  -0.40655  -0.40502  -0.40315  -0.40261
 Alpha  occ. eigenvalues --   -0.40123  -0.40057  -0.39906  -0.39222  -0.38836
 Alpha  occ. eigenvalues --   -0.38655  -0.38596  -0.38389  -0.38092  -0.38054
 Alpha  occ. eigenvalues --   -0.37809  -0.37556  -0.37330  -0.37324  -0.37092
 Alpha  occ. eigenvalues --   -0.36623  -0.36090  -0.35344  -0.35255  -0.34667
 Alpha  occ. eigenvalues --   -0.34455  -0.33183  -0.33070  -0.33009  -0.32590
 Alpha  occ. eigenvalues --   -0.32294  -0.32203  -0.32020  -0.31163  -0.30818
 Alpha  occ. eigenvalues --   -0.30482  -0.29460  -0.29447  -0.29079  -0.28728
 Alpha  occ. eigenvalues --   -0.28319  -0.27920  -0.27869  -0.27740  -0.27595
 Alpha  occ. eigenvalues --   -0.26460  -0.24382
 Alpha virt. eigenvalues --   -0.12214  -0.10854  -0.07123  -0.06355  -0.05165
 Alpha virt. eigenvalues --   -0.05114  -0.04822  -0.04673  -0.04266  -0.04078
 Alpha virt. eigenvalues --   -0.03976  -0.03374  -0.02920  -0.02896  -0.01671

 Mulliken charges:
               1
     1  N   -0.760487
     2  H    0.414763
     3  H    0.432756
     4  H    0.407727
     5  C   -0.101890
     6  H    0.204615
     7  C    0.648466
     8  C   -0.109049
     9  H    0.170639
    10  O   -0.549083
    11  C   -0.474979
    12  H    0.169213
    13  H    0.188186
    14  H    0.186027
    15  C   -0.475685
    16  H    0.176810
    17  H    0.139672
    18  H    0.202754
    19  N   -0.606313
    20  H    0.379793
    21  C   -0.078290
    22  H    0.190209
    23  C    0.630354
    24  C   -0.067417
    25  H    0.146251
    26  O   -0.560706
    27  C   -0.289178
    28  H    0.141178
    29  H    0.169119
    30  C   -0.465651
    31  H    0.166224
    32  H    0.136176
    33  H    0.168906
    34  C   -0.454320
    35  H    0.166939
    36  H    0.146441
    37  H    0.155939
    38  N   -0.609791
    39  H    0.377201
    40  C   -0.054116
    41  H    0.187847
    42  C    0.627547
    43  C   -0.381154
    44  H    0.175474
    45  H    0.167370
    46  O   -0.539641
    47  C    0.172110
    48  C   -0.181686
    49  H    0.097989
    50  C   -0.218864
    51  H    0.165827
    52  C   -0.125543
    53  H    0.120422
    54  C   -0.154460
    55  H    0.186649
    56  C   -0.135501
    57  H    0.126363
    58  N   -0.600038
    59  H    0.356092
    60  C   -0.088331
    61  H    0.189128
    62  C    0.636882
    63  C   -0.254125
    64  H    0.143362
    65  H    0.144993
    66  O   -0.550496
    67  C   -0.065485
    68  H    0.126801
    69  C   -0.444662
    70  H    0.145666
    71  H    0.143225
    72  H    0.145428
    73  C   -0.466571
    74  H    0.137769
    75  H    0.142369
    76  H    0.172136
    77  N   -0.610474
    78  H    0.355993
    79  C   -0.054963
    80  H    0.185512
    81  C    0.625230
    82  C   -0.265346
    83  H    0.183299
    84  H    0.148756
    85  O   -0.568279
    86  C   -0.355239
    87  H    0.152080
    88  H    0.154261
    89  C    0.590696
    90  O   -0.574168
    91  O   -0.619821
    92  N   -0.616270
    93  H    0.379005
    94  C   -0.053243
    95  H    0.171291
    96  C    0.637024
    97  C   -0.400963
    98  H    0.222457
    99  H    0.160686
   100  O   -0.517575
   101  C    0.614988
   102  N   -0.743374
   103  H    0.352613
   104  H    0.348970
   105  O   -0.527699
   106  N   -0.630036
   107  H    0.362187
   108  C   -0.033026
   109  H    0.164155
   110  C    0.653893
   111  C   -0.359369
   112  H    0.133331
   113  H    0.181480
   114  O   -0.527173
   115  C    0.148940
   116  C   -0.186499
   117  H    0.169166
   118  C   -0.189738
   119  H    0.119108
   120  C   -0.164453
   121  H    0.137808
   122  C   -0.193060
   123  H    0.114222
   124  O   -0.644040
   125  H    0.405719
   126  C    0.349287
   127  N   -0.638214
   128  H    0.387009
   129  C   -0.037024
   130  H    0.205813
   131  C    0.604329
   132  C   -0.326584
   133  H    0.181923
   134  H    0.194349
   135  O   -0.514404
   136  C   -0.297007
   137  H    0.154365
   138  H    0.155458
   139  C   -0.152348
   140  H    0.178125
   141  H    0.172866
   142  N   -0.588138
   143  H    0.391813
   144  N   -0.757002
   145  H    0.342214
   146  H    0.407176
   147  N   -0.754622
   148  H    0.336657
   149  H    0.401019
   150  C    0.719843
   151  O   -0.532998
   152  H    0.413740
 Sum of Mulliken charges =   1.00000

 Dipole moment (field-independent basis, Debye):
    X=            -18.1908    Y=             -1.7493    Z=             32.8884  Tot=             37.6246
 Quadrupole moment (field-independent basis, Debye-Ang):
   XX=           -215.3491   YY=           -419.5760   ZZ=            -29.1147
   XY=             10.9723   XZ=           -211.4250   YZ=            -50.7053

 Normal termination of Gaussian 16 at Sat Aug 13 08:30:54 2022.
