 Gaussian 16, Revision C.01,
 Gaussian 16:  ES64L-G16RevC.01  3-Jul-2019

 -------------------------------------------------------------------
 # B3LYP/6-31G* guess=read geom=check nosymm integral(ultrafinegrid)
 -------------------------------------------------------------------

 ------------------------------------------------------
 Candidate Structure: Conf:102 Charge calc in gas phase
 ------------------------------------------------------
 Structure from the checkpoint file:  "conf-102.chk"
 Charge =  1 Multiplicity = 1

                          Input orientation:
 ---------------------------------------------------------------------
 Center     Atomic      Atomic             Coordinates (Angstroms)
 Number     Number       Type             X           Y           Z
 ---------------------------------------------------------------------
      1          7           0       -1.314062   -2.846191    2.348719
      2          1           0       -0.816584   -3.622355    2.780489
      3          1           0       -1.946728   -3.229866    1.647976
      4          1           0       -0.142787   -1.869407    1.545681
      5          6           0       -2.114686   -2.127259    3.371318
      6          1           0       -2.447093   -2.820703    4.160312
      7          6           0       -3.370610   -1.595322    2.653310
      8          6           0       -1.250985   -1.019170    4.045771
      9          1           0       -0.957334   -0.319495    3.252290
     10          8           0       -3.400964   -1.485140    1.423894
     11          6           0       -2.003389   -0.238791    5.135471
     12          1           0       -2.380081   -0.909311    5.920869
     13          1           0       -1.321112    0.465489    5.622374
     14          1           0       -2.843279    0.343293    4.745387
     15          6           0        0.028962   -1.634694    4.637383
     16          1           0       -0.210784   -2.388663    5.399338
     17          1           0        0.659317   -2.095949    3.872307
     18          1           0        0.630040   -0.858094    5.121414
     19          7           0       -4.435159   -1.310083    3.443091
     20          1           0       -4.322865   -1.349707    4.446341
     21          6           0       -5.676576   -0.721134    2.922529
     22          1           0       -5.819588   -1.172181    1.937506
     23          6           0       -5.452519    0.799341    2.726517
     24          6           0       -6.892025   -1.091398    3.805528
     25          1           0       -6.977165   -2.185954    3.728104
     26          8           0       -5.648393    1.637911    3.606675
     27          6           0       -8.198553   -0.484014    3.248539
     28          1           0       -8.157611    0.607088    3.353270
     29          1           0       -9.015172   -0.821888    3.899019
     30          6           0       -6.730026   -0.733917    5.294131
     31          1           0       -6.588473    0.340406    5.427715
     32          1           0       -5.887520   -1.255932    5.767561
     33          1           0       -7.625706   -1.041950    5.844441
     34          6           0       -8.533374   -0.859229    1.799250
     35          1           0       -9.530492   -0.494303    1.530701
     36          1           0       -7.828993   -0.423369    1.081378
     37          1           0       -8.530785   -1.947072    1.655407
     38          7           0       -4.962194    1.111924    1.501695
     39          1           0       -4.742833    0.376463    0.836992
     40          6           0       -4.520886    2.445537    1.143677
     41          1           0       -5.333558    3.155767    1.338216
     42          6           0       -4.217499    2.403748   -0.365040
     43          6           0       -3.274100    2.885332    1.983336
     44          1           0       -2.380622    2.387345    1.588555
     45          1           0       -3.447816    2.499520    2.991349
     46          8           0       -4.389647    1.368856   -1.019535
     47          6           0       -3.061087    4.382265    2.074458
     48          6           0       -1.973120    5.015523    1.454437
     49          1           0       -1.257097    4.425296    0.885444
     50          6           0       -3.966366    5.165857    2.808911
     51          1           0       -4.800027    4.680239    3.311642
     52          6           0       -1.798385    6.399120    1.559918
     53          1           0       -0.947400    6.872177    1.077250
     54          6           0       -3.791849    6.544742    2.913953
     55          1           0       -4.498835    7.135110    3.490301
     56          6           0       -2.707423    7.166291    2.288050
     57          1           0       -2.571185    8.240742    2.372828
     58          7           0       -3.709764    3.533844   -0.913765
     59          1           0       -3.471359    4.308190   -0.302351
     60          6           0       -3.139972    3.550302   -2.270297
     61          1           0       -3.829027    2.990293   -2.907825
     62          6           0       -1.785958    2.803335   -2.208021
     63          6           0       -2.993890    4.993417   -2.758307
     64          1           0       -2.279833    5.504532   -2.101088
     65          1           0       -3.966267    5.488757   -2.634904
     66          8           0       -0.715078    3.384797   -2.004755
     67          6           0       -2.524430    5.147349   -4.219365
     68          1           0       -1.565838    4.619236   -4.319100
     69          6           0       -3.517727    4.549038   -5.228009
     70          1           0       -4.503038    5.024161   -5.138274
     71          1           0       -3.654262    3.469522   -5.095730
     72          1           0       -3.168207    4.707293   -6.254578
     73          6           0       -2.272213    6.631518   -4.525522
     74          1           0       -3.196632    7.215579   -4.431479
     75          1           0       -1.900322    6.764111   -5.547826
     76          1           0       -1.533039    7.061426   -3.839726
     77          7           0       -1.884104    1.451849   -2.325051
     78          1           0       -2.825542    1.067961   -2.258375
     79          6           0       -0.777446    0.591375   -1.898233
     80          1           0       -0.276588    1.092936   -1.063714
     81          6           0        0.267646    0.447187   -3.020629
     82          6           0       -1.314247   -0.769909   -1.435213
     83          1           0       -1.862642   -1.238181   -2.259635
     84          1           0       -2.024610   -0.600228   -0.619045
     85          8           0        0.281577   -0.513023   -3.800078
     86          6           0       -0.220643   -1.764431   -0.975798
     87          1           0       -0.710492   -2.622555   -0.506414
     88          1           0        0.329639   -2.118111   -1.850195
     89          6           0        0.797633   -1.128431   -0.036231
     90          8           0        1.717379   -0.449213   -0.476502
     91          8           0        0.643927   -1.285640    1.269411
     92          7           0        1.195904    1.432266   -3.044037
     93          1           0        0.993775    2.269219   -2.498876
     94          6           0        2.438563    1.298918   -3.784914
     95          1           0        2.626629    0.220036   -3.832628
     96          6           0        3.601684    1.901312   -2.951205
     97          6           0        2.408666    1.870108   -5.227508
     98          1           0        1.450177    2.374031   -5.391173
     99          1           0        3.205752    2.606886   -5.337734
    100          8           0        4.375708    2.737432   -3.432719
    101          6           0        2.588729    0.808325   -6.305221
    102          7           0        1.746489   -0.231198   -6.269782
    103          1           0        1.856135   -0.957190   -6.966654
    104          1           0        1.104611   -0.381315   -5.482048
    105          8           0        3.477446    0.899760   -7.182568
    106          7           0        3.703227    1.408943   -1.700796
    107          1           0        3.027971    0.719514   -1.366388
    108          6           0        4.705070    1.897979   -0.740007
    109          1           0        4.754118    2.987096   -0.848067
    110          6           0        6.099788    1.308593   -1.083615
    111          6           0        4.283801    1.537812    0.696283
    112          1           0        3.212543    1.745950    0.791868
    113          1           0        4.413436    0.460064    0.831872
    114          8           0        6.538866    0.288429   -0.570318
    115          6           0        5.055517    2.309043    1.748335
    116          6           0        6.252820    1.816663    2.290677
    117          1           0        6.635377    0.860237    1.947896
    118          6           0        4.590980    3.548737    2.203835
    119          1           0        3.658888    3.951466    1.811862
    120          6           0        6.961621    2.534035    3.249328
    121          1           0        7.884632    2.148660    3.671025
    122          6           0        5.290656    4.280597    3.163098
    123          1           0        4.906635    5.239526    3.507147
    124          8           0        7.218400    4.434021    4.632679
    125          1           0        6.768904    5.261630    4.864255
    126          6           0        6.482487    3.772546    3.689577
    127          7           0        6.777376    2.038493   -2.020752
    128          1           0        6.236790    2.731888   -2.531756
    129          6           0        8.084931    1.657549   -2.524177
    130          1           0        8.369455    0.759427   -1.963153
    131          6           0        9.112824    2.752753   -2.205403
    132          6           0        8.069762    1.382280   -4.035658
    133          1           0        7.638365    2.265304   -4.525742
    134          1           0        9.109875    1.306264   -4.376998
    135          8           0        9.774112    3.341204   -3.035073
    136          6           0        7.296464    0.122276   -4.432015
    137          1           0        7.795752   -0.764994   -4.022855
    138          1           0        6.289998    0.142860   -3.998125
    139          6           0        7.179919   -0.064896   -5.952789
    140          1           0        8.159097    0.002965   -6.440054
    141          1           0        6.791604   -1.062643   -6.179469
    142          7           0        6.264391    0.888257   -6.592538
    143          1           0        5.265359    0.663906   -6.603763
    144          7           0        7.837292    2.455934   -7.333954
    145          1           0        8.047096    3.278905   -7.879416
    146          1           0        8.518835    2.189448   -6.638771
    147          7           0        5.597368    2.617334   -7.948206
    148          1           0        5.716327    3.573733   -8.247702
    149          1           0        4.647140    2.244697   -7.852713
    150          6           0        6.572503    1.991782   -7.269950
    151          8           0        9.194991    2.985789   -0.884732
    152          1           0        9.857919    3.691232   -0.758677
 ---------------------------------------------------------------------

 SCF Done:  E(RB3LYP) =  -3586.68848839     A.U. after    2 cycles

 Alpha  occ. eigenvalues --  -19.26514 -19.23617 -19.22279 -19.22133 -19.21290
 Alpha  occ. eigenvalues --  -19.20938 -19.20710 -19.20225 -19.20198 -19.19804
 Alpha  occ. eigenvalues --  -19.19658 -19.18276 -19.17668 -14.49690 -14.48561
 Alpha  occ. eigenvalues --  -14.48079 -14.44450 -14.44255 -14.44092 -14.44001
 Alpha  occ. eigenvalues --  -14.43819 -14.43581 -14.42687 -14.42289 -14.41829
 Alpha  occ. eigenvalues --  -10.45431 -10.39265 -10.39208 -10.38183 -10.37554
 Alpha  occ. eigenvalues --  -10.37320 -10.37046 -10.36747 -10.36602 -10.35297
 Alpha  occ. eigenvalues --  -10.34746 -10.33847 -10.32943 -10.31425 -10.31073
 Alpha  occ. eigenvalues --  -10.30953 -10.30896 -10.30767 -10.30166 -10.29705
 Alpha  occ. eigenvalues --  -10.29390 -10.28441 -10.28219 -10.28100 -10.26858
 Alpha  occ. eigenvalues --  -10.26828 -10.26599 -10.26155 -10.26050 -10.25491
 Alpha  occ. eigenvalues --  -10.25382 -10.25301 -10.25233 -10.25167 -10.24975
 Alpha  occ. eigenvalues --  -10.24900 -10.24793 -10.24521 -10.24488 -10.24030
 Alpha  occ. eigenvalues --  -10.23886 -10.23718 -10.23577 -10.23457 -10.23309
 Alpha  occ. eigenvalues --  -10.23170 -10.23121 -10.22784 -10.22754 -10.22542
 Alpha  occ. eigenvalues --   -1.17669  -1.15134  -1.14003  -1.12996  -1.12615
 Alpha  occ. eigenvalues --   -1.12277  -1.11996  -1.11566  -1.11208  -1.10300
 Alpha  occ. eigenvalues --   -1.10039  -1.09307  -1.08705  -1.06795  -1.03262
 Alpha  occ. eigenvalues --   -1.01936  -1.01687  -1.00689  -1.00194  -1.00147
 Alpha  occ. eigenvalues --   -0.99901  -0.99652  -0.99363  -0.98614  -0.98220
 Alpha  occ. eigenvalues --   -0.91736  -0.89927  -0.89470  -0.88317  -0.87569
 Alpha  occ. eigenvalues --   -0.87385  -0.86548  -0.86270  -0.85318  -0.85087
 Alpha  occ. eigenvalues --   -0.83633  -0.82246  -0.80757  -0.80404  -0.79920
 Alpha  occ. eigenvalues --   -0.79259  -0.79124  -0.78765  -0.78124  -0.77337
 Alpha  occ. eigenvalues --   -0.76159  -0.75492  -0.75123  -0.74942  -0.74262
 Alpha  occ. eigenvalues --   -0.72955  -0.71665  -0.71557  -0.71376  -0.70757
 Alpha  occ. eigenvalues --   -0.70520  -0.68543  -0.68453  -0.68043  -0.67442
 Alpha  occ. eigenvalues --   -0.67403  -0.67150  -0.66725  -0.66618  -0.66242
 Alpha  occ. eigenvalues --   -0.66133  -0.65892  -0.65184  -0.64924  -0.64664
 Alpha  occ. eigenvalues --   -0.64503  -0.63796  -0.63781  -0.63141  -0.62989
 Alpha  occ. eigenvalues --   -0.62548  -0.62199  -0.61773  -0.61286  -0.61185
 Alpha  occ. eigenvalues --   -0.60392  -0.59830  -0.59092  -0.58976  -0.58723
 Alpha  occ. eigenvalues --   -0.58397  -0.57556  -0.57361  -0.57220  -0.56919
 Alpha  occ. eigenvalues --   -0.56729  -0.56395  -0.56201  -0.55907  -0.55523
 Alpha  occ. eigenvalues --   -0.55322  -0.55053  -0.54724  -0.54331  -0.54122
 Alpha  occ. eigenvalues --   -0.53916  -0.53729  -0.53260  -0.52763  -0.52460
 Alpha  occ. eigenvalues --   -0.52345  -0.52219  -0.51911  -0.51797  -0.51726
 Alpha  occ. eigenvalues --   -0.51659  -0.51157  -0.51057  -0.50964  -0.50840
 Alpha  occ. eigenvalues --   -0.50696  -0.50550  -0.50415  -0.50017  -0.49740
 Alpha  occ. eigenvalues --   -0.49430  -0.49405  -0.48963  -0.48777  -0.48550
 Alpha  occ. eigenvalues --   -0.48354  -0.47969  -0.47893  -0.47734  -0.47685
 Alpha  occ. eigenvalues --   -0.47580  -0.47215  -0.47130  -0.47020  -0.46772
 Alpha  occ. eigenvalues --   -0.46573  -0.46486  -0.46341  -0.46306  -0.46138
 Alpha  occ. eigenvalues --   -0.45974  -0.45816  -0.45342  -0.45202  -0.45191
 Alpha  occ. eigenvalues --   -0.44984  -0.44850  -0.44664  -0.44592  -0.44465
 Alpha  occ. eigenvalues --   -0.44366  -0.44279  -0.43913  -0.43842  -0.43711
 Alpha  occ. eigenvalues --   -0.43426  -0.43119  -0.43045  -0.42714  -0.42479
 Alpha  occ. eigenvalues --   -0.42394  -0.42119  -0.41578  -0.41457  -0.41307
 Alpha  occ. eigenvalues --   -0.40887  -0.40769  -0.40594  -0.40359  -0.40300
 Alpha  occ. eigenvalues --   -0.40094  -0.39911  -0.39790  -0.39324  -0.38836
 Alpha  occ. eigenvalues --   -0.38817  -0.38744  -0.38563  -0.38251  -0.38016
 Alpha  occ. eigenvalues --   -0.37948  -0.37668  -0.37175  -0.37051  -0.36817
 Alpha  occ. eigenvalues --   -0.36671  -0.36270  -0.35823  -0.35721  -0.35439
 Alpha  occ. eigenvalues --   -0.35330  -0.35204  -0.34616  -0.34042  -0.33576
 Alpha  occ. eigenvalues --   -0.33358  -0.33143  -0.32792  -0.32321  -0.31814
 Alpha  occ. eigenvalues --   -0.31514  -0.31103  -0.30923  -0.30357  -0.29920
 Alpha  occ. eigenvalues --   -0.29571  -0.26264
 Alpha virt. eigenvalues --   -0.09388  -0.08230  -0.07718  -0.07581  -0.06905
 Alpha virt. eigenvalues --   -0.06429  -0.06421  -0.06232  -0.06109  -0.05541
 Alpha virt. eigenvalues --   -0.05318  -0.05201  -0.04891  -0.03978  -0.03835

 Mulliken charges:
               1
     1  N   -0.798894
     2  H    0.335368
     3  H    0.345179
     4  H    0.487929
     5  C   -0.045701
     6  H    0.144755
     7  C    0.605852
     8  C   -0.070240
     9  H    0.152607
    10  O   -0.541372
    11  C   -0.487063
    12  H    0.142626
    13  H    0.168304
    14  H    0.167920
    15  C   -0.461828
    16  H    0.142144
    17  H    0.163133
    18  H    0.166124
    19  N   -0.612930
    20  H    0.349479
    21  C   -0.058895
    22  H    0.176943
    23  C    0.633061
    24  C   -0.088539
    25  H    0.133594
    26  O   -0.543988
    27  C   -0.267721
    28  H    0.162314
    29  H    0.143864
    30  C   -0.479585
    31  H    0.198111
    32  H    0.121508
    33  H    0.156986
    34  C   -0.460364
    35  H    0.157572
    36  H    0.146752
    37  H    0.146121
    38  N   -0.616900
    39  H    0.376661
    40  C   -0.034112
    41  H    0.195085
    42  C    0.616243
    43  C   -0.372958
    44  H    0.149067
    45  H    0.203370
    46  O   -0.551248
    47  C    0.126632
    48  C   -0.223286
    49  H    0.146194
    50  C   -0.182411
    51  H    0.163220
    52  C   -0.126737
    53  H    0.139868
    54  C   -0.127802
    55  H    0.147276
    56  C   -0.128066
    57  H    0.143419
    58  N   -0.619571
    59  H    0.362683
    60  C   -0.054881
    61  H    0.181061
    62  C    0.621977
    63  C   -0.280085
    64  H    0.157813
    65  H    0.149604
    66  O   -0.554221
    67  C   -0.081108
    68  H    0.133750
    69  C   -0.452132
    70  H    0.150711
    71  H    0.142090
    72  H    0.150007
    73  C   -0.445589
    74  H    0.148275
    75  H    0.145701
    76  H    0.147089
    77  N   -0.613470
    78  H    0.382541
    79  C   -0.059301
    80  H    0.180265
    81  C    0.657837
    82  C   -0.318056
    83  H    0.174561
    84  H    0.195101
    85  O   -0.556424
    86  C   -0.370584
    87  H    0.150750
    88  H    0.194127
    89  C    0.584901
    90  O   -0.500877
    91  O   -0.598479
    92  N   -0.607182
    93  H    0.378165
    94  C   -0.070236
    95  H    0.192943
    96  C    0.596370
    97  C   -0.361544
    98  H    0.195457
    99  H    0.197103
   100  O   -0.554340
   101  C    0.569795
   102  N   -0.733812
   103  H    0.350910
   104  H    0.413112
   105  O   -0.579950
   106  N   -0.637106
   107  H    0.419987
   108  C   -0.048035
   109  H    0.170596
   110  C    0.631218
   111  C   -0.383855
   112  H    0.157652
   113  H    0.187858
   114  O   -0.513741
   115  C    0.146659
   116  C   -0.186067
   117  H    0.160566
   118  C   -0.189328
   119  H    0.119864
   120  C   -0.160747
   121  H    0.144659
   122  C   -0.193504
   123  H    0.120193
   124  O   -0.639376
   125  H    0.408833
   126  C    0.350422
   127  N   -0.610648
   128  H    0.365478
   129  C   -0.057041
   130  H    0.211703
   131  C    0.592897
   132  C   -0.288166
   133  H    0.141071
   134  H    0.159892
   135  O   -0.471195
   136  C   -0.255263
   137  H    0.171786
   138  H    0.163995
   139  C   -0.184973
   140  H    0.171596
   141  H    0.190814
   142  N   -0.606423
   143  H    0.399625
   144  N   -0.759916
   145  H    0.373581
   146  H    0.387856
   147  N   -0.782028
   148  H    0.360735
   149  H    0.415504
   150  C    0.798277
   151  O   -0.544831
   152  H    0.421429
 Sum of Mulliken charges =   1.00000

 Dipole moment (field-independent basis, Debye):
    X=             10.7648    Y=              7.0466    Z=            -15.8579  Tot=             20.4208
 Quadrupole moment (field-independent basis, Debye-Ang):
   XX=           -287.2524   YY=           -356.2734   ZZ=           -266.1609
   XY=             44.3713   XZ=           -142.8538   YZ=            -50.5640

 Normal termination of Gaussian 16 at Sat Aug 13 08:31:28 2022.
