 Gaussian 16, Revision C.01,
 Gaussian 16:  ES64L-G16RevC.01  3-Jul-2019

 -------------------------------------------------------------------
 # B3LYP/6-31G* guess=read geom=check nosymm integral(ultrafinegrid)
 -------------------------------------------------------------------

 ------------------------------------------------------
 Candidate Structure: Conf:962 Charge calc in gas phase
 ------------------------------------------------------
 Structure from the checkpoint file:  "conf-962.chk"
 Charge =  1 Multiplicity = 1

                          Input orientation:
 ---------------------------------------------------------------------
 Center     Atomic      Atomic             Coordinates (Angstroms)
 Number     Number       Type             X           Y           Z
 ---------------------------------------------------------------------
      1          7           0       -7.088715   -1.402607    9.566677
      2          1           0       -8.027583   -1.692654    9.848757
      3          1           0       -6.666880   -2.117897    8.884231
      4          1           0       -6.505705   -1.320223   10.403586
      5          6           0       -7.069856   -0.150346    8.710145
      6          1           0       -8.102186    0.196905    8.615029
      7          6           0       -6.558840   -0.696962    7.343873
      8          6           0       -6.191772    0.963244    9.325258
      9          1           0       -6.216384    1.776083    8.588130
     10          8           0       -6.213309   -1.892287    7.303538
     11          6           0       -6.801062    1.500998   10.630034
     12          1           0       -6.790930    0.753453   11.435305
     13          1           0       -6.220868    2.355782   10.989575
     14          1           0       -7.835214    1.834825   10.490087
     15          6           0       -4.724714    0.537510    9.502543
     16          1           0       -4.600746   -0.249948   10.259408
     17          1           0       -4.279529    0.181330    8.568203
     18          1           0       -4.134851    1.391172    9.848135
     19          7           0       -6.530773    0.158853    6.337354
     20          1           0       -6.767175    1.150636    6.441178
     21          6           0       -5.986063   -0.115252    5.002250
     22          1           0       -5.072227   -0.703644    5.124398
     23          6           0       -5.637883    1.295560    4.469101
     24          6           0       -6.999893   -0.910414    4.123534
     25          1           0       -7.292998   -1.764951    4.749237
     26          8           0       -6.121185    2.293523    5.023594
     27          6           0       -6.376331   -1.493056    2.836631
     28          1           0       -6.085065   -0.683868    2.155323
     29          1           0       -7.178328   -2.035716    2.320201
     30          6           0       -8.255657   -0.085603    3.805755
     31          1           0       -8.026261    0.758309    3.145342
     32          1           0       -8.724252    0.317461    4.710432
     33          1           0       -8.997570   -0.710607    3.298105
     34          6           0       -5.196227   -2.450203    3.048898
     35          1           0       -4.911390   -2.917526    2.101175
     36          1           0       -4.300251   -1.946218    3.431355
     37          1           0       -5.452808   -3.250035    3.753969
     38          7           0       -4.815838    1.340888    3.418354
     39          1           0       -4.410688    0.501150    3.009571
     40          6           0       -4.371854    2.561374    2.764440
     41          1           0       -5.242370    3.206526    2.599632
     42          6           0       -3.828516    2.101281    1.396405
     43          6           0       -3.339271    3.380226    3.611481
     44          1           0       -3.923164    3.921354    4.362540
     45          1           0       -2.883688    4.128934    2.953462
     46          8           0       -3.581423    0.914509    1.186162
     47          6           0       -2.255554    2.576076    4.301981
     48          6           0       -2.483119    2.056495    5.585365
     49          1           0       -3.436808    2.248877    6.073609
     50          6           0       -1.005002    2.364933    3.703368
     51          1           0       -0.802406    2.782194    2.720047
     52          6           0       -1.494989    1.326253    6.246876
     53          1           0       -1.682963    0.938543    7.246227
     54          6           0       -0.010620    1.640231    4.367568
     55          1           0        0.961877    1.496878    3.901975
     56          6           0       -0.256941    1.114002    5.637319
     57          1           0        0.518421    0.553977    6.153324
     58          7           0       -3.698208    3.071948    0.456125
     59          1           0       -3.693453    4.029647    0.786304
     60          6           0       -2.907229    2.832341   -0.754402
     61          1           0       -3.265086    1.894713   -1.186308
     62          6           0       -1.426632    2.696925   -0.331325
     63          6           0       -3.116919    4.006652   -1.728134
     64          1           0       -2.688752    4.905240   -1.261593
     65          1           0       -4.197996    4.178110   -1.825689
     66          8           0       -0.987265    3.411390    0.573176
     67          6           0       -2.505793    3.828256   -3.133006
     68          1           0       -1.444651    3.568440   -3.016004
     69          6           0       -3.187798    2.703696   -3.928239
     70          1           0       -4.257422    2.911989   -4.061584
     71          1           0       -3.097622    1.726487   -3.440275
     72          1           0       -2.741069    2.607967   -4.924020
     73          6           0       -2.582373    5.155065   -3.903699
     74          1           0       -3.624481    5.471434   -4.041471
     75          1           0       -2.132701    5.057671   -4.898336
     76          1           0       -2.055947    5.957468   -3.373886
     77          7           0       -0.697189    1.779527   -0.992878
     78          1           0       -1.085363    1.230954   -1.752498
     79          6           0        0.677040    1.448747   -0.633495
     80          1           0        1.162665    2.346872   -0.253140
     81          6           0        1.367003    0.980352   -1.925575
     82          6           0        0.657980    0.372403    0.487093
     83          1           0        0.134505   -0.511194    0.099077
     84          1           0        0.029305    0.778754    1.286880
     85          8           0        0.701604    0.567442   -2.883867
     86          6           0        2.007549   -0.071506    1.081400
     87          1           0        1.819304   -0.751472    1.917419
     88          1           0        2.575603   -0.634416    0.328667
     89          6           0        2.924213    1.061735    1.558391
     90          8           0        3.367740    1.034413    2.733966
     91          8           0        3.210899    1.950165    0.686137
     92          7           0        2.715633    1.058264   -1.932611
     93          1           0        3.191731    1.379376   -1.078729
     94          6           0        3.476578    0.578099   -3.067643
     95          1           0        3.028743   -0.360487   -3.411065
     96          6           0        4.930468    0.302900   -2.628481
     97          6           0        3.430043    1.581347   -4.260896
     98          1           0        2.524056    2.184663   -4.161069
     99          1           0        4.288532    2.264519   -4.218823
    100          8           0        5.388320    0.701263   -1.553260
    101          6           0        3.440953    0.896283   -5.623050
    102          7           0        2.809025    1.565378   -6.619035
    103          1           0        2.778506    1.142822   -7.536910
    104          1           0        2.243676    2.382155   -6.445146
    105          8           0        4.006662   -0.179883   -5.833173
    106          7           0        5.636828   -0.407684   -3.530081
    107          1           0        5.187656   -0.585352   -4.431250
    108          6           0        7.040249   -0.709490   -3.361476
    109          1           0        7.169723   -1.273592   -2.428292
    110          6           0        7.886321    0.579237   -3.274029
    111          6           0        7.538535   -1.572380   -4.550944
    112          1           0        7.373125   -1.000583   -5.472138
    113          1           0        8.623625   -1.687744   -4.444370
    114          8           0        7.585023    1.623321   -3.838909
    115          6           0        6.882562   -2.933759   -4.644996
    116          6           0        7.333130   -3.999735   -3.851259
    117          1           0        8.175687   -3.849482   -3.178701
    118          6           0        5.808279   -3.168495   -5.510843
    119          1           0        5.432195   -2.365610   -6.139754
    120          6           0        6.736080   -5.254256   -3.908611
    121          1           0        7.091868   -6.078149   -3.298104
    122          6           0        5.198498   -4.421608   -5.579779
    123          1           0        4.364500   -4.582764   -6.260679
    124          8           0        5.108894   -6.719673   -4.799627
    125          1           0        4.387085   -6.735042   -5.447243
    126          6           0        5.660149   -5.468801   -4.777767
    127          7           0        9.033574    0.428482   -2.551860
    128          1           0        9.257302   -0.452097   -2.104056
    129          6           0       10.021100    1.480481   -2.409589
    130          1           0       10.235686    1.914731   -3.393253
    131          6           0       11.295187    0.834873   -1.883658
    132          6           0        9.550746    2.633945   -1.484358
    133          1           0       10.372431    3.352649   -1.382440
    134          1           0        8.735112    3.138596   -2.012527
    135          8           0       11.372348   -0.298964   -1.459139
    136          6           0        9.057074    2.155991   -0.113469
    137          1           0        8.257049    1.421691   -0.262744
    138          1           0        9.854816    1.636320    0.434971
    139          6           0        8.526747    3.321663    0.737135
    140          1           0        9.352132    3.946317    1.094768
    141          1           0        7.879648    3.967531    0.134432
    142          7           0        7.749520    2.909663    1.905068
    143          1           0        8.247593    2.635663    2.740076
    144          7           0        5.770805    2.635320    0.696706
    145          1           0        4.732577    2.463081    0.723523
    146          1           0        6.220254    2.308092   -0.150162
    147          7           0        5.745120    2.408809    2.987869
    148          1           0        4.787243    1.972170    2.950905
    149          1           0        6.147729    2.658758    3.878852
    150          6           0        6.421088    2.631235    1.857135
    151          8           0       12.338449    1.686130   -1.917529
    152          1           0       13.107572    1.205085   -1.556463
 ---------------------------------------------------------------------

 SCF Done:  E(RB3LYP) =  -3586.66226479     A.U. after    3 cycles

 Alpha  occ. eigenvalues --  -19.26151 -19.26126 -19.21026 -19.20669 -19.20624
 Alpha  occ. eigenvalues --  -19.18778 -19.17192 -19.15989 -19.15843 -19.15398
 Alpha  occ. eigenvalues --  -19.14848 -19.12801 -19.12704 -14.58915 -14.48314
 Alpha  occ. eigenvalues --  -14.43957 -14.43624 -14.42268 -14.41168 -14.40739
 Alpha  occ. eigenvalues --  -14.40572 -14.39759 -14.39208 -14.38969 -14.38161
 Alpha  occ. eigenvalues --  -10.42647 -10.39852 -10.38537 -10.37943 -10.37564
 Alpha  occ. eigenvalues --  -10.35519 -10.34670 -10.34052 -10.32992 -10.32944
 Alpha  occ. eigenvalues --  -10.32779 -10.32631 -10.31689 -10.30733 -10.30514
 Alpha  occ. eigenvalues --  -10.30475 -10.30272 -10.29738 -10.29275 -10.28422
 Alpha  occ. eigenvalues --  -10.28116 -10.27965 -10.27702 -10.27495 -10.25808
 Alpha  occ. eigenvalues --  -10.25468 -10.25369 -10.25194 -10.24887 -10.24842
 Alpha  occ. eigenvalues --  -10.24543 -10.24255 -10.24190 -10.24089 -10.23929
 Alpha  occ. eigenvalues --  -10.23803 -10.23744 -10.23663 -10.23118 -10.22515
 Alpha  occ. eigenvalues --  -10.22503 -10.22406 -10.22323 -10.22202 -10.22110
 Alpha  occ. eigenvalues --  -10.22046 -10.22034 -10.21896 -10.21732 -10.20820
 Alpha  occ. eigenvalues --   -1.18458  -1.17173  -1.12965  -1.12382  -1.10579
 Alpha  occ. eigenvalues --   -1.09044  -1.08804  -1.08408  -1.07985  -1.07424
 Alpha  occ. eigenvalues --   -1.07105  -1.06757  -1.06272  -1.05670  -1.05014
 Alpha  occ. eigenvalues --   -1.00688  -0.98722  -0.97565  -0.97093  -0.96668
 Alpha  occ. eigenvalues --   -0.96458  -0.96141  -0.95779  -0.95107  -0.94730
 Alpha  occ. eigenvalues --   -0.93269  -0.90086  -0.89592  -0.88599  -0.86457
 Alpha  occ. eigenvalues --   -0.86109  -0.85941  -0.84700  -0.83691  -0.82334
 Alpha  occ. eigenvalues --   -0.81713  -0.81376  -0.81072  -0.80669  -0.80144
 Alpha  occ. eigenvalues --   -0.79367  -0.78454  -0.77948  -0.77774  -0.76650
 Alpha  occ. eigenvalues --   -0.75075  -0.74294  -0.73576  -0.73228  -0.72876
 Alpha  occ. eigenvalues --   -0.72733  -0.72280  -0.72038  -0.70482  -0.70028
 Alpha  occ. eigenvalues --   -0.69751  -0.69143  -0.69051  -0.67553  -0.67175
 Alpha  occ. eigenvalues --   -0.66637  -0.65715  -0.65475  -0.65136  -0.64778
 Alpha  occ. eigenvalues --   -0.64623  -0.64539  -0.64138  -0.64029  -0.62733
 Alpha  occ. eigenvalues --   -0.62388  -0.62289  -0.62229  -0.61506  -0.61479
 Alpha  occ. eigenvalues --   -0.60882  -0.60492  -0.60076  -0.59963  -0.59161
 Alpha  occ. eigenvalues --   -0.59018  -0.58269  -0.57618  -0.57595  -0.57509
 Alpha  occ. eigenvalues --   -0.56722  -0.56351  -0.55951  -0.55637  -0.55317
 Alpha  occ. eigenvalues --   -0.55099  -0.54913  -0.54706  -0.54327  -0.54060
 Alpha  occ. eigenvalues --   -0.53823  -0.53454  -0.53285  -0.53009  -0.52454
 Alpha  occ. eigenvalues --   -0.52364  -0.52067  -0.51830  -0.51799  -0.51661
 Alpha  occ. eigenvalues --   -0.51268  -0.51100  -0.50850  -0.50557  -0.50456
 Alpha  occ. eigenvalues --   -0.50327  -0.50052  -0.49888  -0.49813  -0.49770
 Alpha  occ. eigenvalues --   -0.49486  -0.49215  -0.49040  -0.48931  -0.48629
 Alpha  occ. eigenvalues --   -0.48252  -0.47974  -0.47768  -0.47593  -0.47462
 Alpha  occ. eigenvalues --   -0.47304  -0.47226  -0.47091  -0.46933  -0.46909
 Alpha  occ. eigenvalues --   -0.46725  -0.46516  -0.46349  -0.46286  -0.46061
 Alpha  occ. eigenvalues --   -0.45600  -0.45527  -0.45352  -0.45205  -0.44866
 Alpha  occ. eigenvalues --   -0.44631  -0.44452  -0.44332  -0.44119  -0.44021
 Alpha  occ. eigenvalues --   -0.43948  -0.43835  -0.43601  -0.43345  -0.43316
 Alpha  occ. eigenvalues --   -0.43209  -0.43094  -0.42922  -0.42322  -0.42151
 Alpha  occ. eigenvalues --   -0.41676  -0.41627  -0.41471  -0.41388  -0.41189
 Alpha  occ. eigenvalues --   -0.41139  -0.40912  -0.40886  -0.40445  -0.40412
 Alpha  occ. eigenvalues --   -0.40329  -0.40063  -0.39905  -0.39648  -0.39062
 Alpha  occ. eigenvalues --   -0.38770  -0.38394  -0.38216  -0.38140  -0.37940
 Alpha  occ. eigenvalues --   -0.37914  -0.37495  -0.37403  -0.37274  -0.36974
 Alpha  occ. eigenvalues --   -0.36822  -0.36704  -0.35832  -0.34801  -0.34204
 Alpha  occ. eigenvalues --   -0.33950  -0.32763  -0.32423  -0.32300  -0.32179
 Alpha  occ. eigenvalues --   -0.32102  -0.31433  -0.30737  -0.30196  -0.30054
 Alpha  occ. eigenvalues --   -0.29749  -0.29229  -0.29116  -0.28884  -0.28751
 Alpha  occ. eigenvalues --   -0.28516  -0.28370  -0.28174  -0.27994  -0.27256
 Alpha  occ. eigenvalues --   -0.26661  -0.24951
 Alpha virt. eigenvalues --   -0.11563  -0.10622  -0.06558  -0.06160  -0.05569
 Alpha virt. eigenvalues --   -0.05339  -0.04596  -0.03900  -0.03670  -0.03624
 Alpha virt. eigenvalues --   -0.03057  -0.02847  -0.02691  -0.02091  -0.01966

 Mulliken charges:
               1
     1  N   -0.765592
     2  H    0.413580
     3  H    0.436343
     4  H    0.407794
     5  C   -0.099406
     6  H    0.212896
     7  C    0.655512
     8  C   -0.125637
     9  H    0.192983
    10  O   -0.553933
    11  C   -0.461562
    12  H    0.138261
    13  H    0.198383
    14  H    0.171581
    15  C   -0.481791
    16  H    0.140673
    17  H    0.193173
    18  H    0.200017
    19  N   -0.612295
    20  H    0.377274
    21  C   -0.075092
    22  H    0.196449
    23  C    0.650176
    24  C   -0.078014
    25  H    0.150036
    26  O   -0.571495
    27  C   -0.278985
    28  H    0.157700
    29  H    0.152866
    30  C   -0.462022
    31  H    0.166788
    32  H    0.135570
    33  H    0.163615
    34  C   -0.462705
    35  H    0.171746
    36  H    0.150096
    37  H    0.152463
    38  N   -0.625291
    39  H    0.380414
    40  C   -0.041169
    41  H    0.180100
    42  C    0.637617
    43  C   -0.383596
    44  H    0.173928
    45  H    0.172804
    46  O   -0.539126
    47  C    0.158036
    48  C   -0.195938
    49  H    0.106307
    50  C   -0.211400
    51  H    0.204634
    52  C   -0.132782
    53  H    0.104662
    54  C   -0.155280
    55  H    0.179154
    56  C   -0.133774
    57  H    0.134005
    58  N   -0.601206
    59  H    0.338524
    60  C   -0.054818
    61  H    0.172712
    62  C    0.640144
    63  C   -0.284551
    64  H    0.149076
    65  H    0.145874
    66  O   -0.553601
    67  C   -0.085486
    68  H    0.144111
    69  C   -0.447966
    70  H    0.143578
    71  H    0.143553
    72  H    0.151785
    73  C   -0.444681
    74  H    0.143279
    75  H    0.145242
    76  H    0.148040
    77  N   -0.602278
    78  H    0.349175
    79  C   -0.063265
    80  H    0.211844
    81  C    0.597128
    82  C   -0.270708
    83  H    0.140564
    84  H    0.167638
    85  O   -0.570901
    86  C   -0.348718
    87  H    0.151049
    88  H    0.156289
    89  C    0.621235
    90  O   -0.586345
    91  O   -0.612942
    92  N   -0.654268
    93  H    0.405075
    94  C   -0.028006
    95  H    0.195406
    96  C    0.608726
    97  C   -0.386443
    98  H    0.175762
    99  H    0.205927
   100  O   -0.566997
   101  C    0.637085
   102  N   -0.740489
   103  H    0.350992
   104  H    0.348639
   105  O   -0.533448
   106  N   -0.632477
   107  H    0.405200
   108  C   -0.025391
   109  H    0.159271
   110  C    0.638895
   111  C   -0.407856
   112  H    0.173871
   113  H    0.158697
   114  O   -0.535331
   115  C    0.181844
   116  C   -0.187824
   117  H    0.121424
   118  C   -0.203558
   119  H    0.161408
   120  C   -0.156149
   121  H    0.142676
   122  C   -0.198285
   123  H    0.123817
   124  O   -0.640867
   125  H    0.408925
   126  C    0.351493
   127  N   -0.629677
   128  H    0.351392
   129  C   -0.015486
   130  H    0.198291
   131  C    0.579459
   132  C   -0.288666
   133  H    0.162270
   134  H    0.186874
   135  O   -0.467967
   136  C   -0.287831
   137  H    0.173711
   138  H    0.146111
   139  C   -0.155859
   140  H    0.166612
   141  H    0.185108
   142  N   -0.608287
   143  H    0.337430
   144  N   -0.802293
   145  H    0.435597
   146  H    0.377600
   147  N   -0.800149
   148  H    0.424201
   149  H    0.334864
   150  C    0.775196
   151  O   -0.562784
   152  H    0.422419
 Sum of Mulliken charges =   1.00000

 Dipole moment (field-independent basis, Debye):
    X=            -15.2409    Y=              3.0173    Z=             29.4230  Tot=             33.2732
 Quadrupole moment (field-independent basis, Debye-Ang):
   XX=            -88.9801   YY=           -418.8795   ZZ=            -59.3131
   XY=             53.5827   XZ=           -225.4284   YZ=            -27.2416

 Normal termination of Gaussian 16 at Sat Aug 13 08:30:50 2022.
