 Gaussian 16, Revision C.01,
 Gaussian 16:  ES64L-G16RevC.01  3-Jul-2019

 -------------------------------------------------------------------
 # B3LYP/6-31G* guess=read geom=check nosymm integral(ultrafinegrid)
 -------------------------------------------------------------------

 ------------------------------------------------------
 Candidate Structure: Conf:669 Charge calc in gas phase
 ------------------------------------------------------
 Structure from the checkpoint file:  "conf-669.chk"
 Charge =  1 Multiplicity = 1

                          Input orientation:
 ---------------------------------------------------------------------
 Center     Atomic      Atomic             Coordinates (Angstroms)
 Number     Number       Type             X           Y           Z
 ---------------------------------------------------------------------
      1          7           0      -11.917293    4.662747    5.813747
      2          1           0      -12.220764    5.353274    5.125066
      3          1           0      -12.364842    3.770283    5.593675
      4          1           0      -12.235941    4.964095    6.734972
      5          6           0      -10.451724    4.473653    5.782174
      6          1           0       -9.961841    5.453914    5.835499
      7          6           0      -10.090397    3.808525    4.456543
      8          6           0       -9.952494    3.631604    6.972735
      9          1           0      -10.534479    2.706537    6.954400
     10          8           0      -10.789925    2.928219    3.968916
     11          6           0       -8.470490    3.271062    6.865728
     12          1           0       -7.857324    4.177385    6.814085
     13          1           0       -8.163897    2.711093    7.752318
     14          1           0       -8.240828    2.655144    5.994649
     15          6           0      -10.188180    4.346918    8.301930
     16          1           0       -9.611768    5.274943    8.329240
     17          1           0      -11.234267    4.594492    8.484658
     18          1           0       -9.853911    3.716460    9.128550
     19          7           0       -8.942106    4.252153    3.874075
     20          1           0       -8.314351    4.813344    4.430130
     21          6           0       -8.270902    3.463273    2.861466
     22          1           0       -8.763226    2.487638    2.823794
     23          6           0       -6.815880    3.281122    3.305957
     24          6           0       -8.374863    4.079836    1.450511
     25          1           0       -7.817624    3.403747    0.793152
     26          8           0       -6.319556    3.956304    4.202927
     27          6           0       -7.725293    5.462268    1.371802
     28          1           0       -6.771348    5.440584    1.913084
     29          1           0       -8.365914    6.172296    1.900190
     30          6           0       -9.835070    4.103145    0.999707
     31          1           0      -10.409207    4.802689    1.607814
     32          1           0      -10.290368    3.115274    1.100824
     33          1           0       -9.919634    4.417747   -0.041097
     34          6           0       -7.496609    5.942760   -0.055118
     35          1           0       -7.019628    6.924526   -0.059930
     36          1           0       -6.847097    5.252926   -0.600677
     37          1           0       -8.432385    6.025729   -0.611567
     38          7           0       -6.113135    2.358705    2.613207
     39          1           0       -6.541882    1.779179    1.908671
     40          6           0       -4.740808    2.051904    2.954226
     41          1           0       -4.204667    2.990575    3.119512
     42          6           0       -4.153716    1.290221    1.764607
     43          6           0       -4.641524    1.219993    4.244790
     44          1           0       -5.168976    0.276288    4.099881
     45          1           0       -5.162135    1.783320    5.021510
     46          8           0       -4.854843    0.606848    1.032692
     47          6           0       -3.207033    0.970611    4.625185
     48          6           0       -2.603852   -0.254006    4.353089
     49          1           0       -3.178231   -1.029694    3.857434
     50          6           0       -2.449213    1.989039    5.201373
     51          1           0       -2.926030    2.949213    5.387199
     52          6           0       -1.264877   -0.461582    4.672908
     53          1           0       -0.806232   -1.420031    4.452682
     54          6           0       -1.107552    1.784744    5.518983
     55          1           0       -0.528810    2.583082    5.965287
     56          6           0       -0.516361    0.552450    5.258244
     57          1           0        0.527545    0.390650    5.493812
     58          7           0       -2.815810    1.388411    1.621280
     59          1           0       -2.248228    1.922680    2.262176
     60          6           0       -2.111886    0.682089    0.575412
     61          1           0       -2.489564   -0.342791    0.544342
     62          6           0       -0.631137    0.718198    0.965637
     63          6           0       -2.352640    1.347446   -0.791895
     64          1           0       -1.840870    2.313317   -0.795892
     65          1           0       -3.421841    1.557782   -0.860819
     66          8           0       -0.184640    1.640019    1.634186
     67          6           0       -1.945435    0.527751   -2.016333
     68          1           0       -0.890765    0.251575   -1.928360
     69          6           0       -2.793764   -0.733041   -2.140125
     70          1           0       -3.851538   -0.462079   -2.201580
     71          1           0       -2.670236   -1.405801   -1.286271
     72          1           0       -2.535761   -1.290905   -3.043909
     73          6           0       -2.077300    1.383027   -3.275083
     74          1           0       -3.110468    1.709881   -3.408002
     75          1           0       -1.775436    0.823604   -4.161888
     76          1           0       -1.440230    2.269238   -3.212275
     77          7           0        0.136127   -0.290916    0.483866
     78          1           0       -0.293654   -0.976065   -0.115434
     79          6           0        1.583865   -0.155953    0.319172
     80          1           0        1.846774    0.893269    0.413021
     81          6           0        1.925395   -0.695440   -1.068042
     82          6           0        2.381052   -0.915096    1.378321
     83          1           0        3.440698   -0.845430    1.124374
     84          1           0        2.096107   -1.965817    1.361723
     85          8           0        1.456420   -1.765378   -1.453606
     86          6           0        2.153631   -0.327598    2.762668
     87          1           0        1.105508   -0.040878    2.881386
     88          1           0        2.394322   -1.035108    3.558540
     89          6           0        2.988685    0.949056    3.030291
     90          8           0        3.151121    1.213529    4.227755
     91          8           0        3.356590    1.609435    2.038436
     92          7           0        2.766648    0.048291   -1.815310
     93          1           0        3.318164    0.776541   -1.380302
     94          6           0        3.308090   -0.427337   -3.075549
     95          1           0        3.135342   -1.500345   -3.150423
     96          6           0        4.811754   -0.152955   -3.027035
     97          6           0        2.676148    0.265793   -4.275389
     98          1           0        2.724748    1.348566   -4.169047
     99          1           0        3.234522    0.016917   -5.181780
    100          8           0        5.285277    0.724096   -2.323585
    101          6           0        1.226801   -0.069809   -4.602711
    102          7           0        0.736764   -1.257886   -4.170073
    103          1           0       -0.220060   -1.415286   -4.432731
    104          1           0        1.030726   -1.651829   -3.280381
    105          8           0        0.588192    0.674098   -5.336050
    106          7           0        5.578990   -0.947464   -3.818203
    107          1           0        5.185800   -1.541629   -4.531687
    108          6           0        7.019707   -0.856902   -3.818289
    109          1           0        7.286919    0.136407   -3.458644
    110          6           0        7.493191   -1.106324   -5.248413
    111          6           0        7.655304   -1.917136   -2.889945
    112          1           0        7.403601   -2.901054   -3.295364
    113          1           0        8.741573   -1.811967   -2.936858
    114          8           0        6.840056   -1.769482   -6.030034
    115          6           0        7.172801   -1.816898   -1.469650
    116          6           0        7.859229   -1.066059   -0.513966
    117          1           0        8.785277   -0.570689   -0.782884
    118          6           0        5.996687   -2.465170   -1.069415
    119          1           0        5.443859   -3.057280   -1.793081
    120          6           0        7.380218   -0.932594    0.790066
    121          1           0        7.910057   -0.342824    1.525625
    122          6           0        5.497507   -2.326697    0.224695
    123          1           0        4.567470   -2.811889    0.501554
    124          8           0        5.737753   -1.380945    2.436329
    125          1           0        4.832391   -1.703146    2.490294
    126          6           0        6.189195   -1.552410    1.149774
    127          7           0        8.708332   -0.564736   -5.563450
    128          1           0        9.271483   -0.246011   -4.793553
    129          6           0        9.469402   -1.107841   -6.679801
    130          1           0        8.754451   -1.467925   -7.419347
    131          6           0       10.304151   -2.270303   -6.181224
    132          6           0       10.368149   -0.023525   -7.284189
    133          1           0        9.736397    0.835533   -7.497933
    134          1           0       11.092848    0.291791   -6.528583
    135          8           0       10.764521   -2.360063   -5.069118
    136          6           0       11.088506   -0.450044   -8.553343
    137          1           0       11.793791   -1.258115   -8.337423
    138          1           0       10.369742   -0.851002   -9.272291
    139          6           0       11.842825    0.702106   -9.186379
    140          1           0       12.514375    1.140104   -8.444816
    141          1           0       12.458497    0.349654  -10.022930
    142          7           0       10.884734    1.734743   -9.641510
    143          1           0       10.046748    1.360946  -10.065664
    144          7           0       12.593735    3.238988  -10.186369
    145          1           0       12.835890    4.205351  -10.336732
    146          1           0       13.216559    2.718248   -9.591470
    147          7           0       10.376500    3.654164  -10.832757
    148          1           0       10.643583    4.601861  -11.051121
    149          1           0        9.413241    3.547081  -10.544872
    150          6           0       11.295631    2.883052  -10.202984
    151          8           0       10.515414   -3.191703   -7.142529
    152          1           0       11.086142   -3.865203   -6.753339
 ---------------------------------------------------------------------

 SCF Done:  E(RB3LYP) =  -3586.47120583     A.U. after    3 cycles

 Alpha  occ. eigenvalues --  -19.27763 -19.24194 -19.22083 -19.18751 -19.18526
 Alpha  occ. eigenvalues --  -19.17077 -19.14860 -19.14800 -19.14427 -19.12297
 Alpha  occ. eigenvalues --  -19.12244 -19.01061 -19.00822 -14.62473 -14.52421
 Alpha  occ. eigenvalues --  -14.51966 -14.51804 -14.46673 -14.43070 -14.41837
 Alpha  occ. eigenvalues --  -14.39384 -14.38162 -14.37912 -14.36580 -14.35800
 Alpha  occ. eigenvalues --  -10.47083 -10.41339 -10.39852 -10.39780 -10.36226
 Alpha  occ. eigenvalues --  -10.35562 -10.35068 -10.33286 -10.32006 -10.31994
 Alpha  occ. eigenvalues --  -10.31649 -10.30981 -10.30773 -10.30530 -10.30234
 Alpha  occ. eigenvalues --  -10.30217 -10.29402 -10.29321 -10.28215 -10.27596
 Alpha  occ. eigenvalues --  -10.27363 -10.26400 -10.26317 -10.25189 -10.24710
 Alpha  occ. eigenvalues --  -10.24181 -10.23965 -10.22781 -10.22752 -10.22474
 Alpha  occ. eigenvalues --  -10.22286 -10.22187 -10.20933 -10.20397 -10.20245
 Alpha  occ. eigenvalues --  -10.20228 -10.20167 -10.20058 -10.19963 -10.19788
 Alpha  occ. eigenvalues --  -10.19564 -10.19552 -10.19516 -10.19095 -10.19033
 Alpha  occ. eigenvalues --  -10.18882 -10.18824 -10.17935 -10.16698 -10.12766
 Alpha  occ. eigenvalues --   -1.19048  -1.18555  -1.16813  -1.15293  -1.11166
 Alpha  occ. eigenvalues --   -1.11014  -1.09888  -1.07565  -1.07385  -1.06514
 Alpha  occ. eigenvalues --   -1.06336  -1.05442  -1.05180  -1.04564  -1.04405
 Alpha  occ. eigenvalues --   -1.03406  -1.00447  -0.98594  -0.96542  -0.95222
 Alpha  occ. eigenvalues --   -0.95221  -0.95007  -0.94764  -0.93208  -0.92199
 Alpha  occ. eigenvalues --   -0.91345  -0.89179  -0.87294  -0.86832  -0.86254
 Alpha  occ. eigenvalues --   -0.86164  -0.85875  -0.83567  -0.82773  -0.82520
 Alpha  occ. eigenvalues --   -0.80757  -0.80684  -0.80327  -0.79636  -0.78266
 Alpha  occ. eigenvalues --   -0.78118  -0.77929  -0.76551  -0.76161  -0.75806
 Alpha  occ. eigenvalues --   -0.75686  -0.75531  -0.75489  -0.74574  -0.74443
 Alpha  occ. eigenvalues --   -0.73110  -0.71642  -0.70696  -0.70311  -0.70160
 Alpha  occ. eigenvalues --   -0.69973  -0.69895  -0.69344  -0.68869  -0.68798
 Alpha  occ. eigenvalues --   -0.67532  -0.66838  -0.66176  -0.65595  -0.65251
 Alpha  occ. eigenvalues --   -0.64611  -0.64419  -0.63590  -0.63314  -0.62997
 Alpha  occ. eigenvalues --   -0.62671  -0.61912  -0.61568  -0.61283  -0.60958
 Alpha  occ. eigenvalues --   -0.60595  -0.60277  -0.60099  -0.59901  -0.59712
 Alpha  occ. eigenvalues --   -0.59446  -0.59152  -0.58372  -0.58093  -0.57685
 Alpha  occ. eigenvalues --   -0.57388  -0.56789  -0.56614  -0.56124  -0.55411
 Alpha  occ. eigenvalues --   -0.55267  -0.54957  -0.54820  -0.54632  -0.54245
 Alpha  occ. eigenvalues --   -0.53863  -0.53035  -0.52999  -0.52669  -0.52210
 Alpha  occ. eigenvalues --   -0.51817  -0.51539  -0.51448  -0.51040  -0.50777
 Alpha  occ. eigenvalues --   -0.50526  -0.50338  -0.50191  -0.50077  -0.49892
 Alpha  occ. eigenvalues --   -0.49402  -0.49266  -0.48985  -0.48533  -0.48415
 Alpha  occ. eigenvalues --   -0.48313  -0.48136  -0.47608  -0.47430  -0.47370
 Alpha  occ. eigenvalues --   -0.47355  -0.47021  -0.46715  -0.46541  -0.46378
 Alpha  occ. eigenvalues --   -0.46329  -0.46163  -0.45836  -0.45737  -0.45608
 Alpha  occ. eigenvalues --   -0.45379  -0.45170  -0.44855  -0.44839  -0.44430
 Alpha  occ. eigenvalues --   -0.44383  -0.43959  -0.43866  -0.43812  -0.43515
 Alpha  occ. eigenvalues --   -0.43456  -0.43289  -0.43101  -0.42984  -0.42676
 Alpha  occ. eigenvalues --   -0.42595  -0.42471  -0.42292  -0.41971  -0.41675
 Alpha  occ. eigenvalues --   -0.41396  -0.41231  -0.40694  -0.40644  -0.40591
 Alpha  occ. eigenvalues --   -0.40432  -0.39956  -0.39908  -0.39807  -0.39564
 Alpha  occ. eigenvalues --   -0.39360  -0.38993  -0.38727  -0.38340  -0.38209
 Alpha  occ. eigenvalues --   -0.38100  -0.37906  -0.37854  -0.37186  -0.37000
 Alpha  occ. eigenvalues --   -0.36807  -0.36131  -0.36026  -0.35859  -0.35387
 Alpha  occ. eigenvalues --   -0.35069  -0.35044  -0.34786  -0.34529  -0.34241
 Alpha  occ. eigenvalues --   -0.34138  -0.33979  -0.33669  -0.33259  -0.32788
 Alpha  occ. eigenvalues --   -0.32689  -0.32047  -0.31563  -0.30816  -0.29553
 Alpha  occ. eigenvalues --   -0.29398  -0.28997  -0.28685  -0.28420  -0.28097
 Alpha  occ. eigenvalues --   -0.27847  -0.27751  -0.26050  -0.25956  -0.25869
 Alpha  occ. eigenvalues --   -0.25784  -0.25482  -0.25087  -0.22456  -0.16602
 Alpha  occ. eigenvalues --   -0.15300  -0.14561
 Alpha virt. eigenvalues --   -0.13897  -0.12509  -0.10405  -0.08659  -0.07468
 Alpha virt. eigenvalues --   -0.06739  -0.05547  -0.05225  -0.04705  -0.04339
 Alpha virt. eigenvalues --   -0.03831  -0.03336  -0.02446  -0.01528  -0.01285

 Mulliken charges:
               1
     1  N   -0.719070
     2  H    0.431371
     3  H    0.427281
     4  H    0.420510
     5  C   -0.140143
     6  H    0.204323
     7  C    0.613847
     8  C   -0.103331
     9  H    0.166880
    10  O   -0.515236
    11  C   -0.469233
    12  H    0.177368
    13  H    0.188172
    14  H    0.191062
    15  C   -0.470333
    16  H    0.177878
    17  H    0.127710
    18  H    0.205550
    19  N   -0.576313
    20  H    0.355792
    21  C   -0.096070
    22  H    0.188993
    23  C    0.635705
    24  C   -0.073912
    25  H    0.149235
    26  O   -0.557683
    27  C   -0.271938
    28  H    0.161503
    29  H    0.122831
    30  C   -0.450929
    31  H    0.124116
    32  H    0.160939
    33  H    0.166967
    34  C   -0.452657
    35  H    0.158531
    36  H    0.160418
    37  H    0.149566
    38  N   -0.615635
    39  H    0.351544
    40  C   -0.031466
    41  H    0.181725
    42  C    0.615569
    43  C   -0.352736
    44  H    0.148665
    45  H    0.160124
    46  O   -0.560120
    47  C    0.148121
    48  C   -0.180057
    49  H    0.120190
    50  C   -0.202577
    51  H    0.120121
    52  C   -0.133897
    53  H    0.137605
    54  C   -0.122307
    55  H    0.148540
    56  C   -0.119442
    57  H    0.186392
    58  N   -0.614292
    59  H    0.367035
    60  C   -0.036438
    61  H    0.161662
    62  C    0.607801
    63  C   -0.258152
    64  H    0.148006
    65  H    0.152856
    66  O   -0.508370
    67  C   -0.097744
    68  H    0.128491
    69  C   -0.444384
    70  H    0.150008
    71  H    0.140020
    72  H    0.131856
    73  C   -0.444943
    74  H    0.124967
    75  H    0.163564
    76  H    0.146767
    77  N   -0.608952
    78  H    0.335320
    79  C   -0.046749
    80  H    0.218855
    81  C    0.600392
    82  C   -0.264880
    83  H    0.147470
    84  H    0.112395
    85  O   -0.570225
    86  C   -0.394557
    87  H    0.166507
    88  H    0.107997
    89  C    0.579069
    90  O   -0.568181
    91  O   -0.587686
    92  N   -0.593570
    93  H    0.384050
    94  C   -0.090254
    95  H    0.177921
    96  C    0.632085
    97  C   -0.344585
    98  H    0.186612
    99  H    0.166662
   100  O   -0.511316
   101  C    0.576228
   102  N   -0.781486
   103  H    0.333732
   104  H    0.390297
   105  O   -0.521475
   106  N   -0.620131
   107  H    0.345633
   108  C   -0.056584
   109  H    0.187287
   110  C    0.613041
   111  C   -0.370424
   112  H    0.154805
   113  H    0.151953
   114  O   -0.515049
   115  C    0.192889
   116  C   -0.182380
   117  H    0.107268
   118  C   -0.200470
   119  H    0.116906
   120  C   -0.147767
   121  H    0.150182
   122  C   -0.195858
   123  H    0.138726
   124  O   -0.635078
   125  H    0.425988
   126  C    0.369990
   127  N   -0.596894
   128  H    0.343680
   129  C   -0.056896
   130  H    0.207106
   131  C    0.586974
   132  C   -0.283742
   133  H    0.168172
   134  H    0.159830
   135  O   -0.450751
   136  C   -0.310216
   137  H    0.189574
   138  H    0.166944
   139  C   -0.167160
   140  H    0.177176
   141  H    0.193268
   142  N   -0.584027
   143  H    0.362991
   144  N   -0.730864
   145  H    0.374693
   146  H    0.384973
   147  N   -0.733387
   148  H    0.370396
   149  H    0.377964
   150  C    0.734485
   151  O   -0.559339
   152  H    0.423678
 Sum of Mulliken charges =   1.00000

 Dipole moment (field-independent basis, Debye):
    X=             -5.2279    Y=             23.0522    Z=            -23.9865  Tot=             33.6762
 Quadrupole moment (field-independent basis, Debye-Ang):
   XX=            605.0334   YY=           -306.3697   ZZ=             54.1270
   XY=           -123.8914   XZ=           -784.2181   YZ=             -8.2345

 Normal termination of Gaussian 16 at Sat Aug 13 08:30:45 2022.
