 Gaussian 16, Revision C.01,
 Gaussian 16:  ES64L-G16RevC.01  3-Jul-2019

 -------------------------------------------------------------------
 # B3LYP/6-31G* guess=read geom=check nosymm integral(ultrafinegrid)
 -------------------------------------------------------------------

 ------------------------------------------------------
 Candidate Structure: Conf:538 Charge calc in gas phase
 ------------------------------------------------------
 Structure from the checkpoint file:  "conf-538.chk"
 Charge =  1 Multiplicity = 1

                          Input orientation:
 ---------------------------------------------------------------------
 Center     Atomic      Atomic             Coordinates (Angstroms)
 Number     Number       Type             X           Y           Z
 ---------------------------------------------------------------------
      1          7           0      -11.363068    2.653737    5.310033
      2          1           0      -11.961859    1.826339    5.235651
      3          1           0      -10.784090    2.571233    6.198513
      4          1           0      -11.956394    3.487030    5.312872
      5          6           0      -10.278320    2.698728    4.246571
      6          1           0      -10.603962    2.083951    3.402975
      7          6           0       -9.082708    2.053917    5.011057
      8          6           0      -10.033408    4.161211    3.787915
      9          1           0       -9.673495    4.719343    4.664253
     10          8           0       -9.135217    2.082162    6.252048
     11          6           0       -8.953066    4.221134    2.693520
     12          1           0       -9.259910    3.656721    1.803986
     13          1           0       -8.812263    5.260951    2.384602
     14          1           0       -7.981444    3.843938    3.019175
     15          6           0      -11.327036    4.818579    3.270093
     16          1           0      -11.751362    4.257128    2.429286
     17          1           0      -12.111671    4.939406    4.030205
     18          1           0      -11.103967    5.828291    2.913860
     19          7           0       -8.119249    1.501130    4.285110
     20          1           0       -8.075765    1.640929    3.274974
     21          6           0       -6.838823    1.009116    4.815979
     22          1           0       -6.732782    1.384611    5.838277
     23          6           0       -5.794808    1.649717    3.870333
     24          6           0       -6.776738   -0.550398    4.819569
     25          1           0       -6.891525   -0.871231    3.773727
     26          8           0       -6.124983    1.928349    2.713233
     27          6           0       -7.945573   -1.139472    5.638782
     28          1           0       -8.885767   -0.686691    5.300127
     29          1           0       -7.827970   -0.850629    6.692565
     30          6           0       -5.411942   -1.045021    5.327285
     31          1           0       -5.216992   -0.680005    6.346220
     32          1           0       -4.589733   -0.746163    4.671024
     33          1           0       -5.399920   -2.137078    5.372769
     34          6           0       -8.083902   -2.663114    5.529833
     35          1           0       -8.980647   -3.004192    6.058446
     36          1           0       -8.172843   -2.980516    4.483755
     37          1           0       -7.230636   -3.190262    5.966681
     38          7           0       -4.576393    1.911362    4.381546
     39          1           0       -4.340893    1.503380    5.277356
     40          6           0       -3.454323    2.314449    3.528967
     41          1           0       -3.775592    3.185594    2.950852
     42          6           0       -3.090084    1.151766    2.575968
     43          6           0       -2.260707    2.692743    4.436911
     44          1           0       -1.974409    1.799977    5.007638
     45          1           0       -2.616112    3.443684    5.154629
     46          8           0       -3.104939   -0.010077    2.986903
     47          6           0       -1.065918    3.217968    3.669998
     48          6           0        0.045604    2.400208    3.429393
     49          1           0        0.059549    1.387269    3.826533
     50          6           0       -1.067309    4.523149    3.158581
     51          1           0       -1.916594    5.176838    3.351887
     52          6           0        1.125613    2.869176    2.680450
     53          1           0        1.988190    2.241469    2.481339
     54          6           0        0.009248    4.993157    2.405458
     55          1           0       -0.011432    6.004823    2.008812
     56          6           0        1.105307    4.164179    2.160419
     57          1           0        1.944178    4.501507    1.559930
     58          7           0       -2.768247    1.518574    1.320591
     59          1           0       -2.614334    2.498268    1.092743
     60          6           0       -2.233576    0.607908    0.315838
     61          1           0       -1.810111   -0.258944    0.830922
     62          6           0       -1.133686    1.392972   -0.426781
     63          6           0       -3.307257    0.162139   -0.707738
     64          1           0       -2.810254   -0.433938   -1.486832
     65          1           0       -3.680332    1.069221   -1.201951
     66          8           0       -1.166399    2.623076   -0.468465
     67          6           0       -4.496809   -0.639204   -0.144540
     68          1           0       -4.942218   -0.052975    0.671049
     69          6           0       -5.562624   -0.809151   -1.239069
     70          1           0       -5.168864   -1.381786   -2.088819
     71          1           0       -5.905771    0.159897   -1.621379
     72          1           0       -6.436720   -1.349354   -0.855771
     73          6           0       -4.070557   -2.003031    0.418740
     74          1           0       -3.565768   -2.605373   -0.348509
     75          1           0       -4.946093   -2.571371    0.756203
     76          1           0       -3.401751   -1.891650    1.276802
     77          7           0       -0.187456    0.642158   -1.033502
     78          1           0       -0.318261   -0.359646   -1.137014
     79          6           0        0.787057    1.217356   -1.951843
     80          1           0        0.286682    2.015742   -2.517081
     81          6           0        1.151393    0.100894   -2.951035
     82          6           0        1.992441    1.855022   -1.224770
     83          1           0        1.598131    2.606284   -0.536774
     84          1           0        2.589486    2.413760   -1.959065
     85          8           0        0.552649   -0.974831   -2.955674
     86          6           0        2.893509    0.874967   -0.462723
     87          1           0        2.307035    0.379188    0.322816
     88          1           0        3.295635    0.101346   -1.122308
     89          6           0        4.083745    1.589249    0.195291
     90          8           0        5.218610    1.050907    0.067032
     91          8           0        3.840639    2.669723    0.817382
     92          7           0        2.127458    0.419357   -3.845821
     93          1           0        2.777017    1.152445   -3.579829
     94          6           0        2.727968   -0.590390   -4.705151
     95          1           0        2.187614   -1.520536   -4.507972
     96          6           0        4.200849   -0.753209   -4.255397
     97          6           0        2.574739   -0.176084   -6.189897
     98          1           0        1.511932    0.041791   -6.359246
     99          1           0        3.126793    0.747252   -6.384642
    100          8           0        4.710294    0.058805   -3.483980
    101          6           0        3.027191   -1.180476   -7.250062
    102          7           0        2.774103   -2.511649   -6.961703
    103          1           0        2.968497   -3.162695   -7.714860
    104          1           0        1.995819   -2.755910   -6.362015
    105          8           0        3.601397   -0.836771   -8.266634
    106          7           0        4.865809   -1.836495   -4.720005
    107          1           0        4.459155   -2.404457   -5.458235
    108          6           0        6.252886   -2.051441   -4.351955
    109          1           0        6.290321   -2.180036   -3.262121
    110          6           0        7.121658   -0.817176   -4.684477
    111          6           0        6.815220   -3.355114   -4.996001
    112          1           0        7.910199   -3.280152   -4.970018
    113          1           0        6.550346   -4.189442   -4.337015
    114          8           0        7.001077   -0.154940   -5.705417
    115          6           0        6.336285   -3.691256   -6.398112
    116          6           0        5.715985   -4.925905   -6.641231
    117          1           0        5.583144   -5.628435   -5.820970
    118          6           0        6.492559   -2.811154   -7.480518
    119          1           0        6.934091   -1.832720   -7.322704
    120          6           0        5.268419   -5.284575   -7.911477
    121          1           0        4.798727   -6.246209   -8.094048
    122          6           0        6.043021   -3.153091   -8.753253
    123          1           0        6.148035   -2.442474   -9.570034
    124          8           0        4.966345   -4.777747  -10.202306
    125          1           0        5.137923   -4.067973  -10.841169
    126          6           0        5.431391   -4.391981   -8.976005
    127          7           0        8.077631   -0.561151   -3.743409
    128          1           0        8.112021   -1.128778   -2.908394
    129          6           0        9.006042    0.541541   -3.860307
    130          1           0        8.521283    1.292655   -4.495076
    131          6           0       10.312716    0.187799   -4.582698
    132          6           0        9.332617    1.157019   -2.485613
    133          1           0        9.814097    0.389653   -1.859566
    134          1           0       10.085582    1.934896   -2.650355
    135          8           0       11.218071    0.976803   -4.738079
    136          6           0        8.109303    1.726075   -1.756655
    137          1           0        7.638708    2.509385   -2.363470
    138          1           0        7.343451    0.956214   -1.610338
    139          6           0        8.503156    2.313936   -0.393250
    140          1           0        9.126331    1.589134    0.153974
    141          1           0        9.106051    3.218453   -0.540673
    142          7           0        7.316128    2.640465    0.388122
    143          1           0        6.462682    2.001259    0.292700
    144          7           0        8.297772    4.402719    1.571962
    145          1           0        8.182770    5.150517    2.239993
    146          1           0        9.210311    3.972447    1.554159
    147          7           0        6.008477    3.964014    1.736839
    148          1           0        5.945871    4.565325    2.544761
    149          1           0        5.136834    3.449393    1.399759
    150          6           0        7.206372    3.647775    1.241548
    151          8           0       10.359511   -1.086312   -5.028182
    152          1           0       11.215294   -1.175799   -5.489912
 ---------------------------------------------------------------------

 SCF Done:  E(RB3LYP) =  -3586.62850828     A.U. after    1 cycles

 Alpha  occ. eigenvalues --  -19.26407 -19.23994 -19.21395 -19.21081 -19.17903
 Alpha  occ. eigenvalues --  -19.17189 -19.16905 -19.16207 -19.16096 -19.15730
 Alpha  occ. eigenvalues --  -19.15118 -19.12295 -19.12018 -14.59677 -14.49094
 Alpha  occ. eigenvalues --  -14.45142 -14.43681 -14.41088 -14.40393 -14.40290
 Alpha  occ. eigenvalues --  -14.40288 -14.40218 -14.40100 -14.40051 -14.39962
 Alpha  occ. eigenvalues --  -10.43246 -10.40467 -10.38292 -10.38153 -10.36065
 Alpha  occ. eigenvalues --  -10.34457 -10.34379 -10.33719 -10.33688 -10.33395
 Alpha  occ. eigenvalues --  -10.33181 -10.32999 -10.32452 -10.31303 -10.30638
 Alpha  occ. eigenvalues --  -10.29954 -10.29491 -10.28466 -10.28364 -10.28350
 Alpha  occ. eigenvalues --  -10.28229 -10.28174 -10.28030 -10.27899 -10.27486
 Alpha  occ. eigenvalues --  -10.26434 -10.26200 -10.24791 -10.24547 -10.24359
 Alpha  occ. eigenvalues --  -10.24348 -10.24295 -10.24032 -10.23388 -10.23329
 Alpha  occ. eigenvalues --  -10.23305 -10.23197 -10.22936 -10.22934 -10.22655
 Alpha  occ. eigenvalues --  -10.22595 -10.22212 -10.22139 -10.21950 -10.21901
 Alpha  occ. eigenvalues --  -10.21885 -10.21794 -10.21765 -10.20986 -10.20204
 Alpha  occ. eigenvalues --   -1.18925  -1.14751  -1.13713  -1.13135  -1.09146
 Alpha  occ. eigenvalues --   -1.09107  -1.08913  -1.08195  -1.07727  -1.07533
 Alpha  occ. eigenvalues --   -1.06902  -1.06831  -1.05602  -1.05599  -1.05052
 Alpha  occ. eigenvalues --   -1.01392  -0.97660  -0.97295  -0.97026  -0.96721
 Alpha  occ. eigenvalues --   -0.96706  -0.96630  -0.95932  -0.95015  -0.94540
 Alpha  occ. eigenvalues --   -0.94476  -0.90427  -0.89793  -0.88605  -0.86396
 Alpha  occ. eigenvalues --   -0.85961  -0.85135  -0.84880  -0.83968  -0.82506
 Alpha  occ. eigenvalues --   -0.82451  -0.81259  -0.81160  -0.79862  -0.79665
 Alpha  occ. eigenvalues --   -0.78834  -0.78264  -0.77884  -0.77725  -0.76521
 Alpha  occ. eigenvalues --   -0.75096  -0.74711  -0.73728  -0.73264  -0.72336
 Alpha  occ. eigenvalues --   -0.72246  -0.72040  -0.71931  -0.71208  -0.70103
 Alpha  occ. eigenvalues --   -0.69431  -0.69114  -0.68606  -0.67724  -0.66438
 Alpha  occ. eigenvalues --   -0.66243  -0.66137  -0.65447  -0.65386  -0.64565
 Alpha  occ. eigenvalues --   -0.64391  -0.64020  -0.63593  -0.63406  -0.63336
 Alpha  occ. eigenvalues --   -0.63046  -0.62736  -0.62291  -0.62148  -0.61662
 Alpha  occ. eigenvalues --   -0.61372  -0.61016  -0.60843  -0.59822  -0.58857
 Alpha  occ. eigenvalues --   -0.58657  -0.58305  -0.58025  -0.57534  -0.57312
 Alpha  occ. eigenvalues --   -0.56725  -0.56574  -0.56266  -0.55756  -0.55720
 Alpha  occ. eigenvalues --   -0.55481  -0.54850  -0.54558  -0.54369  -0.53871
 Alpha  occ. eigenvalues --   -0.52960  -0.52899  -0.52808  -0.52676  -0.52473
 Alpha  occ. eigenvalues --   -0.52210  -0.52121  -0.51812  -0.51751  -0.51358
 Alpha  occ. eigenvalues --   -0.51287  -0.51007  -0.50747  -0.50630  -0.50417
 Alpha  occ. eigenvalues --   -0.50265  -0.50083  -0.49687  -0.49520  -0.49281
 Alpha  occ. eigenvalues --   -0.49076  -0.48705  -0.48555  -0.48460  -0.48373
 Alpha  occ. eigenvalues --   -0.48068  -0.47800  -0.47571  -0.47463  -0.47321
 Alpha  occ. eigenvalues --   -0.47214  -0.47028  -0.46890  -0.46652  -0.46398
 Alpha  occ. eigenvalues --   -0.46209  -0.46021  -0.45874  -0.45601  -0.45580
 Alpha  occ. eigenvalues --   -0.45343  -0.45016  -0.44972  -0.44812  -0.44746
 Alpha  occ. eigenvalues --   -0.44685  -0.44553  -0.44318  -0.44114  -0.43960
 Alpha  occ. eigenvalues --   -0.43841  -0.43767  -0.43426  -0.43339  -0.43034
 Alpha  occ. eigenvalues --   -0.42903  -0.42743  -0.42513  -0.42329  -0.42231
 Alpha  occ. eigenvalues --   -0.42130  -0.41893  -0.41848  -0.41201  -0.40974
 Alpha  occ. eigenvalues --   -0.40712  -0.40552  -0.40488  -0.40277  -0.40116
 Alpha  occ. eigenvalues --   -0.40077  -0.39710  -0.39592  -0.39429  -0.39085
 Alpha  occ. eigenvalues --   -0.38726  -0.38411  -0.38185  -0.38182  -0.37868
 Alpha  occ. eigenvalues --   -0.37425  -0.36909  -0.36726  -0.36576  -0.36492
 Alpha  occ. eigenvalues --   -0.36446  -0.35895  -0.35698  -0.35372  -0.34903
 Alpha  occ. eigenvalues --   -0.34220  -0.32982  -0.32138  -0.31641  -0.31485
 Alpha  occ. eigenvalues --   -0.31037  -0.30841  -0.30586  -0.30552  -0.29815
 Alpha  occ. eigenvalues --   -0.29768  -0.29441  -0.28894  -0.28786  -0.28688
 Alpha  occ. eigenvalues --   -0.28412  -0.28334  -0.27908  -0.27720  -0.27019
 Alpha  occ. eigenvalues --   -0.26191  -0.25184
 Alpha virt. eigenvalues --   -0.12292  -0.10850  -0.07409  -0.06339  -0.04571
 Alpha virt. eigenvalues --   -0.04224  -0.04160  -0.03746  -0.03523  -0.03232
 Alpha virt. eigenvalues --   -0.02895  -0.02749  -0.02616  -0.02176  -0.02019

 Mulliken charges:
               1
     1  N   -0.759073
     2  H    0.415339
     3  H    0.432490
     4  H    0.407668
     5  C   -0.105236
     6  H    0.204760
     7  C    0.645974
     8  C   -0.107516
     9  H    0.171738
    10  O   -0.544056
    11  C   -0.481245
    12  H    0.166740
    13  H    0.187072
    14  H    0.193154
    15  C   -0.478709
    16  H    0.176441
    17  H    0.141285
    18  H    0.203501
    19  N   -0.590351
    20  H    0.373979
    21  C   -0.092847
    22  H    0.185080
    23  C    0.650539
    24  C   -0.065882
    25  H    0.146908
    26  O   -0.548660
    27  C   -0.247926
    28  H    0.109241
    29  H    0.146487
    30  C   -0.516003
    31  H    0.133405
    32  H    0.216045
    33  H    0.172692
    34  C   -0.452840
    35  H    0.151990
    36  H    0.151090
    37  H    0.165232
    38  N   -0.596955
    39  H    0.347174
    40  C   -0.042856
    41  H    0.172439
    42  C    0.648746
    43  C   -0.391419
    44  H    0.163198
    45  H    0.159454
    46  O   -0.545644
    47  C    0.159902
    48  C   -0.186077
    49  H    0.130964
    50  C   -0.189399
    51  H    0.113330
    52  C   -0.135326
    53  H    0.164211
    54  C   -0.118925
    55  H    0.131435
    56  C   -0.130528
    57  H    0.157380
    58  N   -0.592147
    59  H    0.359921
    60  C   -0.072590
    61  H    0.178289
    62  C    0.623165
    63  C   -0.255219
    64  H    0.143995
    65  H    0.143582
    66  O   -0.540290
    67  C   -0.072505
    68  H    0.139843
    69  C   -0.442833
    70  H    0.145551
    71  H    0.137756
    72  H    0.132444
    73  C   -0.461914
    74  H    0.136012
    75  H    0.130545
    76  H    0.177070
    77  N   -0.610178
    78  H    0.354166
    79  C   -0.049973
    80  H    0.186266
    81  C    0.594832
    82  C   -0.290055
    83  H    0.197055
    84  H    0.137771
    85  O   -0.538543
    86  C   -0.345481
    87  H    0.146913
    88  H    0.164269
    89  C    0.607433
    90  O   -0.596240
    91  O   -0.601374
    92  N   -0.595565
    93  H    0.359371
    94  C   -0.104500
    95  H    0.182026
    96  C    0.643809
    97  C   -0.352167
    98  H    0.183197
    99  H    0.194540
   100  O   -0.530056
   101  C    0.565897
   102  N   -0.763161
   103  H    0.357299
   104  H    0.341028
   105  O   -0.474390
   106  N   -0.628675
   107  H    0.382730
   108  C   -0.035011
   109  H    0.156433
   110  C    0.660921
   111  C   -0.384373
   112  H    0.178323
   113  H    0.156189
   114  O   -0.524585
   115  C    0.119647
   116  C   -0.193374
   117  H    0.126535
   118  C   -0.188283
   119  H    0.186156
   120  C   -0.172148
   121  H    0.141439
   122  C   -0.182097
   123  H    0.139350
   124  O   -0.642989
   125  H    0.413308
   126  C    0.337811
   127  N   -0.605887
   128  H    0.331214
   129  C   -0.037168
   130  H    0.214455
   131  C    0.595735
   132  C   -0.305494
   133  H    0.136276
   134  H    0.179072
   135  O   -0.462345
   136  C   -0.290466
   137  H    0.163527
   138  H    0.197994
   139  C   -0.140304
   140  H    0.150594
   141  H    0.155980
   142  N   -0.633458
   143  H    0.431021
   144  N   -0.763603
   145  H    0.350130
   146  H    0.359361
   147  N   -0.802821
   148  H    0.330219
   149  H    0.436103
   150  C    0.763300
   151  O   -0.561184
   152  H    0.415969
 Sum of Mulliken charges =   1.00000

 Dipole moment (field-independent basis, Debye):
    X=            -30.7600    Y=             11.8034    Z=             20.5416  Tot=             38.8260
 Quadrupole moment (field-independent basis, Debye-Ang):
   XX=            138.4618   YY=           -364.7856   ZZ=           -336.6931
   XY=            -95.3292   XZ=           -167.5263   YZ=             85.4569

 Normal termination of Gaussian 16 at Sat Aug 13 08:29:11 2022.
