 Gaussian 16, Revision C.01,
 Gaussian 16:  ES64L-G16RevC.01  3-Jul-2019

 -------------------------------------------------------------------
 # B3LYP/6-31G* guess=read geom=check nosymm integral(ultrafinegrid)
 -------------------------------------------------------------------

 ------------------------------------------------------
 Candidate Structure: Conf:315 Charge calc in gas phase
 ------------------------------------------------------
 Structure from the checkpoint file:  "conf-315.chk"
 Charge =  1 Multiplicity = 1

                          Input orientation:
 ---------------------------------------------------------------------
 Center     Atomic      Atomic             Coordinates (Angstroms)
 Number     Number       Type             X           Y           Z
 ---------------------------------------------------------------------
      1          7           0       -7.306734   -4.971579    4.345794
      2          1           0       -7.624220   -5.556136    3.568102
      3          1           0       -6.301778   -5.240323    4.601811
      4          1           0       -7.940709   -5.105763    5.137910
      5          6           0       -7.129313   -3.511903    3.963947
      6          1           0       -7.607403   -3.360275    2.993026
      7          6           0       -5.579339   -3.404188    3.848665
      8          6           0       -7.785014   -2.593578    5.029123
      9          1           0       -8.818376   -2.960822    5.129357
     10          8           0       -4.912361   -4.340651    4.326068
     11          6           0       -7.095269   -2.684816    6.400097
     12          1           0       -6.072900   -2.295061    6.358431
     13          1           0       -7.649712   -2.088530    7.130430
     14          1           0       -7.043534   -3.707386    6.795153
     15          6           0       -7.878346   -1.139459    4.538024
     16          1           0       -6.898554   -0.656222    4.473085
     17          1           0       -8.364937   -1.070525    3.558193
     18          1           0       -8.480200   -0.559038    5.243546
     19          7           0       -5.091256   -2.326840    3.257191
     20          1           0       -5.685477   -1.564477    2.926182
     21          6           0       -3.665116   -2.001991    3.129674
     22          1           0       -3.160795   -2.332837    4.041828
     23          6           0       -3.656861   -0.460253    3.035904
     24          6           0       -3.033286   -2.731192    1.900610
     25          1           0       -3.303136   -3.786262    2.052620
     26          8           0       -4.693399    0.138034    2.729884
     27          6           0       -1.491528   -2.659699    1.861663
     28          1           0       -1.174369   -1.630918    1.653311
     29          1           0       -1.180673   -3.238991    0.982821
     30          6           0       -3.634627   -2.250824    0.571117
     31          1           0       -3.336912   -1.220636    0.351964
     32          1           0       -4.729662   -2.302851    0.569569
     33          1           0       -3.274571   -2.882994   -0.247386
     34          6           0       -0.768839   -3.222570    3.093045
     35          1           0        0.309487   -3.277383    2.912777
     36          1           0       -0.901765   -2.605814    3.991161
     37          1           0       -1.119687   -4.233747    3.333870
     38          7           0       -2.497272    0.156810    3.337582
     39          1           0       -1.661847   -0.403521    3.461990
     40          6           0       -2.280795    1.563970    3.046292
     41          1           0       -3.220294    2.081950    3.262164
     42          6           0       -1.997794    1.743356    1.530404
     43          6           0       -1.172014    2.138663    3.974600
     44          1           0       -1.608659    2.249098    4.973082
     45          1           0       -0.921204    3.147180    3.626551
     46          8           0       -1.769957    0.786141    0.792163
     47          6           0        0.080101    1.288030    4.065255
     48          6           0        0.252797    0.402439    5.139796
     49          1           0       -0.498981    0.361070    5.925780
     50          6           0        1.076550    1.349582    3.080619
     51          1           0        0.966101    2.039037    2.248813
     52          6           0        1.387885   -0.407463    5.222460
     53          1           0        1.509629   -1.082221    6.065652
     54          6           0        2.213403    0.543103    3.158902
     55          1           0        2.979931    0.604819    2.389235
     56          6           0        2.366666   -0.341482    4.230240
     57          1           0        3.245975   -0.975589    4.287103
     58          7           0       -2.063258    3.020680    1.083061
     59          1           0       -2.235459    3.775016    1.734942
     60          6           0       -1.961190    3.370975   -0.341990
     61          1           0       -2.366378    2.514755   -0.887565
     62          6           0       -0.473392    3.566005   -0.723941
     63          6           0       -2.780648    4.636177   -0.617988
     64          1           0       -2.318216    5.462261   -0.063243
     65          1           0       -3.791151    4.482909   -0.213247
     66          8           0        0.072853    4.664954   -0.660021
     67          6           0       -2.884158    5.043650   -2.101924
     68          1           0       -1.862550    5.185693   -2.476993
     69          6           0       -3.577931    3.977188   -2.963641
     70          1           0       -4.592432    3.772021   -2.596445
     71          1           0       -3.028557    3.028899   -2.980321
     72          1           0       -3.665581    4.318101   -4.001454
     73          6           0       -3.613814    6.390567   -2.216252
     74          1           0       -4.644682    6.314841   -1.845550
     75          1           0       -3.660679    6.723556   -3.259137
     76          1           0       -3.104789    7.170389   -1.638360
     77          7           0        0.154486    2.431863   -1.116960
     78          1           0       -0.317561    1.533793   -1.066899
     79          6           0        1.566202    2.400565   -1.472729
     80          1           0        1.779829    3.283175   -2.086213
     81          6           0        1.759788    1.128428   -2.312772
     82          6           0        2.454564    2.464520   -0.200108
     83          1           0        2.322424    1.540633    0.371250
     84          1           0        2.036829    3.290394    0.383970
     85          8           0        0.943766    0.200211   -2.257839
     86          6           0        3.955160    2.714471   -0.416665
     87          1           0        4.124522    3.460207   -1.202298
     88          1           0        4.357174    3.143833    0.509715
     89          6           0        4.789669    1.445746   -0.694369
     90          8           0        5.531504    1.482061   -1.738734
     91          8           0        4.687197    0.493688    0.108017
     92          7           0        2.843031    1.097656   -3.131747
     93          1           0        3.648626    1.676855   -2.892795
     94          6           0        3.162645   -0.090613   -3.931610
     95          1           0        2.201643   -0.514648   -4.241888
     96          6           0        3.914811   -1.132990   -3.074998
     97          6           0        3.995823    0.371249   -5.144204
     98          1           0        3.324450    0.862704   -5.858755
     99          1           0        4.712054    1.123914   -4.814104
    100          8           0        5.092320   -1.409596   -3.301272
    101          6           0        4.809723   -0.681644   -5.896376
    102          7           0        4.136973   -1.785188   -6.317050
    103          1           0        4.689796   -2.532974   -6.715609
    104          1           0        3.259151   -2.054155   -5.895320
    105          8           0        5.986070   -0.482632   -6.213291
    106          7           0        3.200887   -1.685056   -2.073699
    107          1           0        2.246888   -1.364369   -1.930418
    108          6           0        3.876446   -2.444857   -1.031667
    109          1           0        4.683332   -1.811882   -0.647814
    110          6           0        4.486169   -3.728876   -1.638492
    111          6           0        2.895301   -2.727417    0.125675
    112          1           0        2.398390   -1.776421    0.358649
    113          1           0        2.122964   -3.428253   -0.214512
    114          8           0        4.006326   -4.297806   -2.609390
    115          6           0        3.582077   -3.259772    1.366949
    116          6           0        3.280570   -4.527415    1.882759
    117          1           0        2.538476   -5.144811    1.381139
    118          6           0        4.555113   -2.491961    2.026953
    119          1           0        4.802445   -1.499550    1.653503
    120          6           0        3.917512   -5.023753    3.017424
    121          1           0        3.686426   -6.009226    3.409108
    122          6           0        5.208524   -2.983282    3.158214
    123          1           0        5.966735   -2.378197    3.653285
    124          8           0        5.491026   -4.784667    4.763773
    125          1           0        6.183062   -4.179378    5.072643
    126          6           0        4.891526   -4.252412    3.657774
    127          7           0        5.645399   -4.133014   -1.029431
    128          1           0        5.890509   -3.761862   -0.119119
    129          6           0        6.477879   -5.190046   -1.565406
    130          1           0        5.899367   -5.699515   -2.339769
    131          6           0        6.839179   -6.169477   -0.458081
    132          6           0        7.793488   -4.617034   -2.172994
    133          1           0        8.367499   -4.171916   -1.346464
    134          1           0        8.397222   -5.444900   -2.562789
    135          8           0        6.865005   -5.897110    0.721671
    136          6           0        7.517702   -3.553252   -3.247156
    137          1           0        7.257989   -4.032994   -4.198883
    138          1           0        6.644518   -2.966720   -2.957385
    139          6           0        8.684699   -2.568743   -3.462847
    140          1           0        9.201521   -2.361387   -2.518426
    141          1           0        9.447640   -2.978399   -4.131930
    142          7           0        8.268542   -1.282872   -4.029314
    143          1           0        8.072809   -1.254201   -5.023859
    144          7           0        7.637180   -0.298612   -1.978262
    145          1           0        6.873951    0.310937   -1.609002
    146          1           0        7.753440   -1.183424   -1.507744
    147          7           0        7.268912    0.809942   -3.962263
    148          1           0        6.674216    1.410850   -3.391350
    149          1           0        6.954379    0.659654   -4.922904
    150          6           0        7.697530   -0.291336   -3.317095
    151          8           0        7.198350   -7.374014   -0.952646
    152          1           0        7.468602   -7.920192   -0.189572
 ---------------------------------------------------------------------

 SCF Done:  E(RB3LYP) =  -3586.64080037     A.U. after    3 cycles

 Alpha  occ. eigenvalues --  -19.26467 -19.25199 -19.22354 -19.21560 -19.19489
 Alpha  occ. eigenvalues --  -19.19235 -19.18545 -19.17912 -19.17131 -19.16116
 Alpha  occ. eigenvalues --  -19.15683 -19.13049 -19.12250 -14.59561 -14.48919
 Alpha  occ. eigenvalues --  -14.45082 -14.43630 -14.42983 -14.42288 -14.41668
 Alpha  occ. eigenvalues --  -14.40470 -14.40461 -14.40384 -14.40369 -14.40019
 Alpha  occ. eigenvalues --  -10.43153 -10.40371 -10.38486 -10.37786 -10.37417
 Alpha  occ. eigenvalues --  -10.36219 -10.35769 -10.35282 -10.34525 -10.33811
 Alpha  occ. eigenvalues --  -10.33516 -10.33321 -10.33004 -10.31813 -10.30509
 Alpha  occ. eigenvalues --  -10.30448 -10.30153 -10.29795 -10.29540 -10.29088
 Alpha  occ. eigenvalues --  -10.29016 -10.28954 -10.28549 -10.28042 -10.27478
 Alpha  occ. eigenvalues --  -10.27447 -10.26131 -10.26076 -10.25231 -10.25211
 Alpha  occ. eigenvalues --  -10.25137 -10.24891 -10.24679 -10.24564 -10.24470
 Alpha  occ. eigenvalues --  -10.24383 -10.24350 -10.24254 -10.23915 -10.23897
 Alpha  occ. eigenvalues --  -10.23775 -10.23709 -10.23669 -10.23624 -10.23426
 Alpha  occ. eigenvalues --  -10.23160 -10.23105 -10.22080 -10.21676 -10.21636
 Alpha  occ. eigenvalues --   -1.18894  -1.16047  -1.13722  -1.13168  -1.10921
 Alpha  occ. eigenvalues --   -1.10439  -1.10402  -1.09533  -1.08900  -1.07905
 Alpha  occ. eigenvalues --   -1.07556  -1.07006  -1.06658  -1.05558  -1.05333
 Alpha  occ. eigenvalues --   -1.01776  -0.99609  -0.98972  -0.97281  -0.97195
 Alpha  occ. eigenvalues --   -0.97023  -0.96933  -0.96478  -0.96247  -0.94968
 Alpha  occ. eigenvalues --   -0.93827  -0.91665  -0.89988  -0.89955  -0.86907
 Alpha  occ. eigenvalues --   -0.85996  -0.85666  -0.85578  -0.85019  -0.83365
 Alpha  occ. eigenvalues --   -0.82669  -0.82171  -0.81278  -0.80956  -0.80517
 Alpha  occ. eigenvalues --   -0.80163  -0.79479  -0.79319  -0.78507  -0.77657
 Alpha  occ. eigenvalues --   -0.76247  -0.75224  -0.74172  -0.73612  -0.73429
 Alpha  occ. eigenvalues --   -0.73123  -0.72765  -0.72357  -0.70600  -0.70333
 Alpha  occ. eigenvalues --   -0.69603  -0.68881  -0.68527  -0.68390  -0.67431
 Alpha  occ. eigenvalues --   -0.66837  -0.66670  -0.66446  -0.66301  -0.66014
 Alpha  occ. eigenvalues --   -0.65734  -0.65185  -0.64891  -0.64351  -0.64109
 Alpha  occ. eigenvalues --   -0.63733  -0.63541  -0.62951  -0.62540  -0.62385
 Alpha  occ. eigenvalues --   -0.61970  -0.61457  -0.60985  -0.60126  -0.59973
 Alpha  occ. eigenvalues --   -0.59736  -0.58938  -0.58856  -0.58402  -0.57503
 Alpha  occ. eigenvalues --   -0.57125  -0.56803  -0.56564  -0.56226  -0.55734
 Alpha  occ. eigenvalues --   -0.55525  -0.55097  -0.54957  -0.54592  -0.54215
 Alpha  occ. eigenvalues --   -0.54019  -0.53884  -0.53708  -0.53438  -0.53346
 Alpha  occ. eigenvalues --   -0.52590  -0.52564  -0.52351  -0.52207  -0.52052
 Alpha  occ. eigenvalues --   -0.51746  -0.51670  -0.51624  -0.51116  -0.51019
 Alpha  occ. eigenvalues --   -0.50752  -0.50518  -0.50442  -0.50392  -0.50247
 Alpha  occ. eigenvalues --   -0.49966  -0.49773  -0.49707  -0.49486  -0.49371
 Alpha  occ. eigenvalues --   -0.49315  -0.48434  -0.48320  -0.48268  -0.48148
 Alpha  occ. eigenvalues --   -0.47999  -0.47670  -0.47574  -0.47462  -0.47220
 Alpha  occ. eigenvalues --   -0.47089  -0.46961  -0.46953  -0.46823  -0.46622
 Alpha  occ. eigenvalues --   -0.46584  -0.46459  -0.46206  -0.46090  -0.45753
 Alpha  occ. eigenvalues --   -0.45494  -0.45394  -0.45162  -0.45015  -0.44825
 Alpha  occ. eigenvalues --   -0.44748  -0.44409  -0.44121  -0.44078  -0.43935
 Alpha  occ. eigenvalues --   -0.43397  -0.43275  -0.43231  -0.43201  -0.42970
 Alpha  occ. eigenvalues --   -0.42724  -0.42532  -0.42135  -0.41931  -0.41802
 Alpha  occ. eigenvalues --   -0.41514  -0.41264  -0.41207  -0.41161  -0.40884
 Alpha  occ. eigenvalues --   -0.40571  -0.40468  -0.40296  -0.39928  -0.39764
 Alpha  occ. eigenvalues --   -0.39667  -0.39558  -0.39487  -0.39206  -0.38421
 Alpha  occ. eigenvalues --   -0.38071  -0.37959  -0.37860  -0.37812  -0.37305
 Alpha  occ. eigenvalues --   -0.37264  -0.36971  -0.36877  -0.35615  -0.35144
 Alpha  occ. eigenvalues --   -0.34333  -0.33932  -0.33510  -0.33313  -0.32676
 Alpha  occ. eigenvalues --   -0.32632  -0.32281  -0.31994  -0.31470  -0.30914
 Alpha  occ. eigenvalues --   -0.30858  -0.30502  -0.30252  -0.29986  -0.29726
 Alpha  occ. eigenvalues --   -0.29518  -0.29186  -0.29099  -0.28394  -0.27298
 Alpha  occ. eigenvalues --   -0.26304  -0.26236
 Alpha virt. eigenvalues --   -0.11970  -0.11036  -0.07525  -0.06781  -0.06653
 Alpha virt. eigenvalues --   -0.06161  -0.05364  -0.05201  -0.04887  -0.04586
 Alpha virt. eigenvalues --   -0.04537  -0.03900  -0.03700  -0.03436  -0.02898

 Mulliken charges:
               1
     1  N   -0.763941
     2  H    0.415232
     3  H    0.436062
     4  H    0.409822
     5  C   -0.104485
     6  H    0.209973
     7  C    0.655482
     8  C   -0.110458
     9  H    0.157721
    10  O   -0.552827
    11  C   -0.468894
    12  H    0.185287
    13  H    0.193286
    14  H    0.141775
    15  C   -0.478716
    16  H    0.188260
    17  H    0.166657
    18  H    0.188230
    19  N   -0.606320
    20  H    0.381634
    21  C   -0.087254
    22  H    0.190248
    23  C    0.648972
    24  C   -0.072338
    25  H    0.142625
    26  O   -0.555124
    27  C   -0.292750
    28  H    0.181138
    29  H    0.152091
    30  C   -0.477143
    31  H    0.202329
    32  H    0.122763
    33  H    0.159908
    34  C   -0.472122
    35  H    0.179851
    36  H    0.135109
    37  H    0.149185
    38  N   -0.604209
    39  H    0.370017
    40  C   -0.078468
    41  H    0.188575
    42  C    0.648383
    43  C   -0.368874
    44  H    0.166479
    45  H    0.167941
    46  O   -0.531323
    47  C    0.132776
    48  C   -0.202311
    49  H    0.124484
    50  C   -0.183133
    51  H    0.145750
    52  C   -0.125672
    53  H    0.138256
    54  C   -0.159810
    55  H    0.186518
    56  C   -0.132573
    57  H    0.152132
    58  N   -0.609942
    59  H    0.337685
    60  C   -0.051745
    61  H    0.173674
    62  C    0.636818
    63  C   -0.280147
    64  H    0.157185
    65  H    0.130951
    66  O   -0.537856
    67  C   -0.081251
    68  H    0.155152
    69  C   -0.451958
    70  H    0.137806
    71  H    0.143646
    72  H    0.151715
    73  C   -0.446274
    74  H    0.136882
    75  H    0.149292
    76  H    0.151218
    77  N   -0.622496
    78  H    0.368834
    79  C   -0.043030
    80  H    0.180566
    81  C    0.615618
    82  C   -0.282271
    83  H    0.167273
    84  H    0.171173
    85  O   -0.557110
    86  C   -0.353553
    87  H    0.139480
    88  H    0.164799
    89  C    0.587019
    90  O   -0.645758
    91  O   -0.567366
    92  N   -0.608907
    93  H    0.365607
    94  C   -0.089323
    95  H    0.181159
    96  C    0.664784
    97  C   -0.370301
    98  H    0.188118
    99  H    0.169871
   100  O   -0.542999
   101  C    0.634398
   102  N   -0.720174
   103  H    0.349968
   104  H    0.350343
   105  O   -0.554583
   106  N   -0.630777
   107  H    0.373071
   108  C   -0.036064
   109  H    0.196997
   110  C    0.632675
   111  C   -0.394437
   112  H    0.176206
   113  H    0.154463
   114  O   -0.530573
   115  C    0.142575
   116  C   -0.189960
   117  H    0.126849
   118  C   -0.237040
   119  H    0.197445
   120  C   -0.151479
   121  H    0.140995
   122  C   -0.204137
   123  H    0.127635
   124  O   -0.640127
   125  H    0.410227
   126  C    0.361505
   127  N   -0.612294
   128  H    0.349146
   129  C   -0.042672
   130  H    0.203404
   131  C    0.581610
   132  C   -0.277424
   133  H    0.135357
   134  H    0.166113
   135  O   -0.461216
   136  C   -0.301413
   137  H    0.147852
   138  H    0.224808
   139  C   -0.177752
   140  H    0.162654
   141  H    0.174699
   142  N   -0.588294
   143  H    0.363169
   144  N   -0.767674
   145  H    0.413542
   146  H    0.341773
   147  N   -0.791318
   148  H    0.390773
   149  H    0.378728
   150  C    0.776239
   151  O   -0.562826
   152  H    0.416772
 Sum of Mulliken charges =   1.00000

 Dipole moment (field-independent basis, Debye):
    X=            -20.9728    Y=            -17.7808    Z=             13.6359  Tot=             30.6913
 Quadrupole moment (field-independent basis, Debye-Ang):
   XX=           -151.9402   YY=           -351.5493   ZZ=           -322.8340
   XY=             66.3011   XZ=           -144.5566   YZ=            -47.2503

 Normal termination of Gaussian 16 at Sat Aug 13 08:31:49 2022.
