 Gaussian 16, Revision C.01,
 Gaussian 16:  ES64L-G16RevC.01  3-Jul-2019

 -------------------------------------------------------------------
 # B3LYP/6-31G* guess=read geom=check nosymm integral(ultrafinegrid)
 -------------------------------------------------------------------

 -----------------------------------------------------
 Candidate Structure: Conf:34 Charge calc in gas phase
 -----------------------------------------------------
 Structure from the checkpoint file:  "conf-34.chk"
 Charge =  1 Multiplicity = 1

                          Input orientation:
 ---------------------------------------------------------------------
 Center     Atomic      Atomic             Coordinates (Angstroms)
 Number     Number       Type             X           Y           Z
 ---------------------------------------------------------------------
      1          7           0       -5.832700   -1.186083    4.813482
      2          1           0       -6.319885   -1.879071    4.199870
      3          1           0       -4.833844   -1.462520    4.786364
      4          1           0       -6.159756   -1.227580    5.779664
      5          6           0       -6.056335    0.159848    4.149835
      6          1           0       -6.906822    0.626598    4.661966
      7          6           0       -6.499593   -0.259304    2.718105
      8          6           0       -4.781676    1.028342    4.315497
      9          1           0       -3.929276    0.525332    3.839791
     10          8           0       -6.647230   -1.464145    2.476335
     11          6           0       -4.880418    2.420276    3.667332
     12          1           0       -5.802735    2.951389    3.942039
     13          1           0       -4.034111    3.015013    4.018686
     14          1           0       -4.773961    2.385360    2.579073
     15          6           0       -4.439531    1.190705    5.808391
     16          1           0       -5.190872    1.791504    6.337784
     17          1           0       -4.329465    0.236985    6.340617
     18          1           0       -3.472183    1.693747    5.878820
     19          7           0       -6.724259    0.706742    1.810541
     20          1           0       -6.445047    1.650961    2.048024
     21          6           0       -6.690889    0.394654    0.364205
     22          1           0       -7.158161   -0.585421    0.241653
     23          6           0       -5.177085    0.347762    0.064710
     24          6           0       -7.440549    1.449038   -0.469034
     25          1           0       -6.951772    2.415548   -0.279372
     26          8           0       -4.531858    1.402063    0.072557
     27          6           0       -8.919788    1.543537   -0.041204
     28          1           0       -8.972841    1.630736    1.051463
     29          1           0       -9.425728    0.600836   -0.295550
     30          6           0       -7.284036    1.124662   -1.963412
     31          1           0       -7.735313    0.154107   -2.206727
     32          1           0       -6.231320    1.099559   -2.263656
     33          1           0       -7.776790    1.881849   -2.578777
     34          6           0       -9.678856    2.719972   -0.666006
     35          1           0      -10.699867    2.769414   -0.273356
     36          1           0       -9.188734    3.674404   -0.438481
     37          1           0       -9.752488    2.633756   -1.754814
     38          7           0       -4.618914   -0.878251   -0.062834
     39          1           0       -5.240907   -1.673548    0.009496
     40          6           0       -3.185208   -1.156689    0.163399
     41          1           0       -2.825177   -0.495336    0.965197
     42          6           0       -2.258707   -0.789836   -1.024372
     43          6           0       -2.997963   -2.620224    0.593411
     44          1           0       -1.948172   -2.862619    0.405319
     45          1           0       -3.574483   -3.281670   -0.067775
     46          8           0       -1.452638   -1.607103   -1.509221
     47          6           0       -3.311445   -2.927260    2.048454
     48          6           0       -2.663205   -2.223723    3.078468
     49          1           0       -2.004045   -1.391713    2.837336
     50          6           0       -4.169699   -3.979846    2.393177
     51          1           0       -4.680489   -4.535128    1.609479
     52          6           0       -2.848863   -2.594360    4.414968
     53          1           0       -2.300770   -2.061440    5.188883
     54          6           0       -4.360640   -4.350798    3.727951
     55          1           0       -5.011773   -5.187540    3.966977
     56          6           0       -3.688659   -3.668535    4.745778
     57          1           0       -3.798427   -3.983108    5.781301
     58          7           0       -2.310971    0.498930   -1.394537
     59          1           0       -2.966034    1.094392   -0.881073
     60          6           0       -1.423897    1.121007   -2.372817
     61          1           0       -0.918401    0.305030   -2.897490
     62          6           0       -0.295955    1.966423   -1.724693
     63          6           0       -2.212770    1.971664   -3.382997
     64          1           0       -1.475670    2.478263   -4.014571
     65          1           0       -2.741917    2.763846   -2.833854
     66          8           0        0.361052    2.742264   -2.419196
     67          6           0       -3.220052    1.198818   -4.255152
     68          1           0       -3.943454    0.706468   -3.587236
     69          6           0       -3.996386    2.183086   -5.143494
     70          1           0       -3.322273    2.698223   -5.839479
     71          1           0       -4.503813    2.949637   -4.545542
     72          1           0       -4.755268    1.663659   -5.740010
     73          6           0       -2.552213    0.108540   -5.107770
     74          1           0       -1.773268    0.536901   -5.751872
     75          1           0       -3.287891   -0.378648   -5.758223
     76          1           0       -2.090937   -0.673811   -4.494601
     77          7           0       -0.042602    1.765646   -0.410180
     78          1           0       -0.591167    1.146169    0.212138
     79          6           0        0.994946    2.541181    0.250807
     80          1           0        0.733288    3.607545    0.204450
     81          6           0        2.339219    2.355586   -0.472376
     82          6           0        1.146244    2.119575    1.730122
     83          1           0        1.978450    2.706839    2.136737
     84          1           0        1.448423    1.067064    1.764437
     85          8           0        2.726190    1.236238   -0.860311
     86          6           0       -0.096419    2.333726    2.618028
     87          1           0        0.217765    2.514115    3.651244
     88          1           0       -0.632472    3.243714    2.310830
     89          6           0       -1.120786    1.173826    2.658956
     90          8           0       -1.881885    1.121662    3.649670
     91          8           0       -1.117872    0.356090    1.675767
     92          7           0        3.103977    3.458656   -0.582881
     93          1           0        2.639407    4.361042   -0.445742
     94          6           0        4.243014    3.541294   -1.510493
     95          1           0        3.970239    2.975689   -2.412096
     96          6           0        5.557627    2.917299   -0.954048
     97          6           0        4.527437    5.012709   -1.876544
     98          1           0        5.022882    5.491083   -1.025639
     99          1           0        5.250155    5.023853   -2.696019
    100          8           0        6.595769    3.568163   -0.867710
    101          6           0        3.282214    5.832155   -2.192789
    102          7           0        3.233171    6.411485   -3.417052
    103          1           0        2.429622    6.979731   -3.648780
    104          1           0        3.969773    6.312272   -4.098256
    105          8           0        2.382810    5.983724   -1.362824
    106          7           0        5.471510    1.602059   -0.640583
    107          1           0        4.554739    1.152223   -0.671118
    108          6           0        6.614160    0.862548   -0.134757
    109          1           0        7.502498    1.204657   -0.675958
    110          6           0        6.343274   -0.619554   -0.402240
    111          6           0        6.846701    1.094875    1.385861
    112          1           0        6.945795    2.176676    1.519278
    113          1           0        5.943236    0.772658    1.914587
    114          8           0        5.280323   -1.136295   -0.031607
    115          6           0        8.065580    0.375134    1.917849
    116          6           0        7.959362   -0.886981    2.523149
    117          1           0        6.976577   -1.337298    2.644891
    118          6           0        9.343873    0.933556    1.789315
    119          1           0        9.456962    1.916451    1.336834
    120          6           0        9.081136   -1.571432    2.982183
    121          1           0        8.994656   -2.540941    3.462901
    122          6           0       10.478188    0.260798    2.243484
    123          1           0       11.460746    0.718191    2.141602
    124          8           0       11.416620   -1.709642    3.310330
    125          1           0       12.225960   -1.187587    3.194793
    126          6           0       10.349766   -0.996907    2.842554
    127          7           0        7.317168   -1.299646   -1.045113
    128          1           0        8.201105   -0.833049   -1.203253
    129          6           0        7.308226   -2.754533   -1.221205
    130          1           0        7.404187   -3.221649   -0.227858
    131          6           0        8.561974   -3.209652   -1.971791
    132          6           0        6.019740   -3.293962   -1.900483
    133          1           0        5.463796   -2.440246   -2.295830
    134          1           0        6.307050   -3.914867   -2.753068
    135          8           0        8.670361   -4.284277   -2.510270
    136          6           0        5.138875   -4.123624   -0.944389
    137          1           0        5.475621   -5.166316   -0.943121
    138          1           0        5.244120   -3.752998    0.080738
    139          6           0        3.649325   -4.102120   -1.296256
    140          1           0        3.491948   -4.376575   -2.348532
    141          1           0        3.130343   -4.846937   -0.675276
    142          7           0        3.094773   -2.770110   -1.044293
    143          1           0        3.729564   -2.070433   -0.654046
    144          7           0        0.914706   -3.371984   -1.623680
    145          1           0       -0.062614   -3.095436   -1.672001
    146          1           0        1.130613   -4.353448   -1.553353
    147          7           0        1.370949   -1.209060   -0.988548
    148          1           0        0.374103   -1.043992   -1.103708
    149          1           0        1.973832   -0.385613   -0.861300
    150          6           0        1.806326   -2.443271   -1.208833
    151          8           0        9.562151   -2.299465   -1.919960
    152          1           0       10.327621   -2.688247   -2.384856
 ---------------------------------------------------------------------

 SCF Done:  E(RB3LYP) =  -3586.66393425     A.U. after    3 cycles

 Alpha  occ. eigenvalues --  -19.28134 -19.24670 -19.22869 -19.21944 -19.21335
 Alpha  occ. eigenvalues --  -19.20127 -19.20084 -19.19201 -19.17592 -19.16954
 Alpha  occ. eigenvalues --  -19.16042 -19.13208 -19.12246 -14.55738 -14.47694
 Alpha  occ. eigenvalues --  -14.45770 -14.44800 -14.44670 -14.44507 -14.42621
 Alpha  occ. eigenvalues --  -14.42238 -14.42103 -14.41700 -14.40633 -14.39563
 Alpha  occ. eigenvalues --  -10.41463 -10.40699 -10.40364 -10.38214 -10.37243
 Alpha  occ. eigenvalues --  -10.36916 -10.36761 -10.35409 -10.35349 -10.34106
 Alpha  occ. eigenvalues --  -10.33275 -10.32969 -10.32507 -10.31452 -10.30832
 Alpha  occ. eigenvalues --  -10.30725 -10.30138 -10.30120 -10.29709 -10.29147
 Alpha  occ. eigenvalues --  -10.28945 -10.28556 -10.27810 -10.27706 -10.27549
 Alpha  occ. eigenvalues --  -10.27341 -10.27185 -10.27158 -10.27102 -10.26892
 Alpha  occ. eigenvalues --  -10.26608 -10.26520 -10.26085 -10.25897 -10.25814
 Alpha  occ. eigenvalues --  -10.25749 -10.25130 -10.24579 -10.24398 -10.24351
 Alpha  occ. eigenvalues --  -10.24304 -10.24281 -10.24205 -10.24147 -10.23936
 Alpha  occ. eigenvalues --  -10.23725 -10.23598 -10.22413 -10.22330 -10.22272
 Alpha  occ. eigenvalues --   -1.18881  -1.16946  -1.13148  -1.11730  -1.11227
 Alpha  occ. eigenvalues --   -1.10927  -1.10591  -1.10268  -1.09836  -1.09369
 Alpha  occ. eigenvalues --   -1.09302  -1.08686  -1.07785  -1.05664  -1.04207
 Alpha  occ. eigenvalues --   -1.01672  -1.00910  -0.99620  -0.99237  -0.98690
 Alpha  occ. eigenvalues --   -0.97665  -0.97177  -0.96733  -0.96663  -0.95979
 Alpha  occ. eigenvalues --   -0.93571  -0.91252  -0.90586  -0.89293  -0.88108
 Alpha  occ. eigenvalues --   -0.87239  -0.86228  -0.85348  -0.84350  -0.83686
 Alpha  occ. eigenvalues --   -0.83041  -0.82825  -0.82510  -0.82065  -0.80976
 Alpha  occ. eigenvalues --   -0.79948  -0.79783  -0.78674  -0.77967  -0.77221
 Alpha  occ. eigenvalues --   -0.76847  -0.76170  -0.73815  -0.73365  -0.73266
 Alpha  occ. eigenvalues --   -0.72027  -0.71770  -0.71392  -0.71005  -0.70378
 Alpha  occ. eigenvalues --   -0.70268  -0.70089  -0.69794  -0.68383  -0.67891
 Alpha  occ. eigenvalues --   -0.67681  -0.67330  -0.67087  -0.66560  -0.66122
 Alpha  occ. eigenvalues --   -0.66045  -0.65536  -0.65333  -0.65100  -0.64752
 Alpha  occ. eigenvalues --   -0.64665  -0.64217  -0.63158  -0.62915  -0.62687
 Alpha  occ. eigenvalues --   -0.62214  -0.61838  -0.61544  -0.60771  -0.60023
 Alpha  occ. eigenvalues --   -0.59867  -0.59482  -0.59046  -0.58785  -0.58751
 Alpha  occ. eigenvalues --   -0.58066  -0.57451  -0.57354  -0.56940  -0.56744
 Alpha  occ. eigenvalues --   -0.56502  -0.56341  -0.55851  -0.55689  -0.55327
 Alpha  occ. eigenvalues --   -0.55029  -0.54866  -0.54359  -0.54041  -0.54027
 Alpha  occ. eigenvalues --   -0.53926  -0.53497  -0.53221  -0.52938  -0.52670
 Alpha  occ. eigenvalues --   -0.52576  -0.52087  -0.51856  -0.51834  -0.51577
 Alpha  occ. eigenvalues --   -0.51478  -0.51117  -0.50724  -0.50551  -0.50382
 Alpha  occ. eigenvalues --   -0.49870  -0.49765  -0.49632  -0.49492  -0.49339
 Alpha  occ. eigenvalues --   -0.49127  -0.48846  -0.48744  -0.48569  -0.48475
 Alpha  occ. eigenvalues --   -0.48380  -0.48353  -0.48107  -0.47825  -0.47783
 Alpha  occ. eigenvalues --   -0.47711  -0.47396  -0.47309  -0.46886  -0.46764
 Alpha  occ. eigenvalues --   -0.46676  -0.46581  -0.46371  -0.46128  -0.45643
 Alpha  occ. eigenvalues --   -0.45611  -0.45417  -0.45287  -0.45204  -0.45128
 Alpha  occ. eigenvalues --   -0.44735  -0.44375  -0.44174  -0.44101  -0.43991
 Alpha  occ. eigenvalues --   -0.43741  -0.43646  -0.43493  -0.43379  -0.43203
 Alpha  occ. eigenvalues --   -0.43126  -0.42920  -0.42855  -0.42714  -0.42658
 Alpha  occ. eigenvalues --   -0.42057  -0.41818  -0.41724  -0.41705  -0.41440
 Alpha  occ. eigenvalues --   -0.41143  -0.41085  -0.40995  -0.40986  -0.40441
 Alpha  occ. eigenvalues --   -0.40323  -0.40079  -0.39942  -0.39833  -0.39411
 Alpha  occ. eigenvalues --   -0.38757  -0.38725  -0.38426  -0.37895  -0.37883
 Alpha  occ. eigenvalues --   -0.37664  -0.37600  -0.37352  -0.36649  -0.35905
 Alpha  occ. eigenvalues --   -0.35738  -0.34520  -0.34345  -0.34258  -0.34110
 Alpha  occ. eigenvalues --   -0.33853  -0.33467  -0.33422  -0.33360  -0.33123
 Alpha  occ. eigenvalues --   -0.32679  -0.32044  -0.31475  -0.30724  -0.30438
 Alpha  occ. eigenvalues --   -0.30207  -0.29834  -0.29253  -0.28464  -0.27630
 Alpha  occ. eigenvalues --   -0.26804  -0.26277
 Alpha virt. eigenvalues --   -0.11058  -0.08975  -0.08769  -0.07423  -0.07318
 Alpha virt. eigenvalues --   -0.06401  -0.06390  -0.06072  -0.05418  -0.04968
 Alpha virt. eigenvalues --   -0.04502  -0.04236  -0.03595  -0.02729  -0.02396

 Mulliken charges:
               1
     1  N   -0.772681
     2  H    0.425996
     3  H    0.423295
     4  H    0.401469
     5  C   -0.109731
     6  H    0.201530
     7  C    0.642151
     8  C   -0.106424
     9  H    0.222588
    10  O   -0.541533
    11  C   -0.506288
    12  H    0.136901
    13  H    0.203182
    14  H    0.185567
    15  C   -0.471891
    16  H    0.149436
    17  H    0.115345
    18  H    0.220002
    19  N   -0.595758
    20  H    0.365355
    21  C   -0.057575
    22  H    0.175743
    23  C    0.635005
    24  C   -0.093180
    25  H    0.150583
    26  O   -0.551507
    27  C   -0.258543
    28  H    0.136083
    29  H    0.139621
    30  C   -0.482187
    31  H    0.147376
    32  H    0.172382
    33  H    0.173374
    34  C   -0.451946
    35  H    0.158848
    36  H    0.149737
    37  H    0.158487
    38  N   -0.599274
    39  H    0.348612
    40  C   -0.091122
    41  H    0.263515
    42  C    0.644527
    43  C   -0.399674
    44  H    0.191191
    45  H    0.148063
    46  O   -0.591023
    47  C    0.156346
    48  C   -0.185309
    49  H    0.229027
    50  C   -0.181662
    51  H    0.136236
    52  C   -0.217863
    53  H    0.164214
    54  C   -0.139339
    55  H    0.146942
    56  C   -0.171593
    57  H    0.143410
    58  N   -0.619489
    59  H    0.393555
    60  C   -0.084001
    61  H    0.189590
    62  C    0.630999
    63  C   -0.268931
    64  H    0.176450
    65  H    0.137286
    66  O   -0.544999
    67  C   -0.074425
    68  H    0.120722
    69  C   -0.443990
    70  H    0.148616
    71  H    0.140709
    72  H    0.143342
    73  C   -0.457042
    74  H    0.147496
    75  H    0.145403
    76  H    0.148649
    77  N   -0.677294
    78  H    0.413499
    79  C   -0.033868
    80  H    0.167294
    81  C    0.666634
    82  C   -0.291945
    83  H    0.146962
    84  H    0.161671
    85  O   -0.598149
    86  C   -0.363839
    87  H    0.158179
    88  H    0.152533
    89  C    0.603679
    90  O   -0.590640
    91  O   -0.621624
    92  N   -0.623518
    93  H    0.390808
    94  C   -0.056895
    95  H    0.187934
    96  C    0.629285
    97  C   -0.390152
    98  H    0.211082
    99  H    0.165171
   100  O   -0.532020
   101  C    0.624097
   102  N   -0.741154
   103  H    0.355064
   104  H    0.348510
   105  O   -0.526109
   106  N   -0.656137
   107  H    0.393223
   108  C   -0.012083
   109  H    0.165799
   110  C    0.636415
   111  C   -0.360004
   112  H    0.182542
   113  H    0.161687
   114  O   -0.574634
   115  C    0.148297
   116  C   -0.198276
   117  H    0.134792
   118  C   -0.201906
   119  H    0.146726
   120  C   -0.162368
   121  H    0.144277
   122  C   -0.192112
   123  H    0.129161
   124  O   -0.637916
   125  H    0.411937
   126  C    0.351436
   127  N   -0.628890
   128  H    0.371836
   129  C   -0.013657
   130  H    0.205679
   131  C    0.576363
   132  C   -0.286533
   133  H    0.170403
   134  H    0.187949
   135  O   -0.441185
   136  C   -0.311493
   137  H    0.169127
   138  H    0.174467
   139  C   -0.142980
   140  H    0.172479
   141  H    0.156405
   142  N   -0.645993
   143  H    0.417786
   144  N   -0.797645
   145  H    0.407017
   146  H    0.357411
   147  N   -0.838543
   148  H    0.404788
   149  H    0.427334
   150  C    0.792317
   151  O   -0.577810
   152  H    0.431334
 Sum of Mulliken charges =   1.00000

 Dipole moment (field-independent basis, Debye):
    X=             -7.4251    Y=             -5.8119    Z=              4.7583  Tot=             10.5618
 Quadrupole moment (field-independent basis, Debye-Ang):
   XX=           -171.6010   YY=           -388.2261   ZZ=           -356.9539
   XY=              5.1815   XZ=            -91.3160   YZ=            -26.9702

 Normal termination of Gaussian 16 at Sat Aug 13 08:33:08 2022.
