 Gaussian 16, Revision C.01,
 Gaussian 16:  ES64L-G16RevC.01  3-Jul-2019

 ----------------------------------------------------------------------
 # B3LYP/6-31G* empiricaldispersion=gd3 guess=read geom=check nosymm in
 tegral(ultrafinegrid)
 ----------------------------------------------------------------------

 ------------------------------------------------------
 Candidate Structure: Conf:474 Charge calc in gas phase
 ------------------------------------------------------
 Structure from the checkpoint file:  "conf-474.chk"
 Charge =  1 Multiplicity = 1

                          Input orientation:
 ---------------------------------------------------------------------
 Center     Atomic      Atomic             Coordinates (Angstroms)
 Number     Number       Type             X           Y           Z
 ---------------------------------------------------------------------
      1          7           0        0.569550   -0.870724    3.144971
      2          1           0        1.537754    0.458848    2.608492
      3          1           0        0.317917   -1.014069    4.121490
      4          1           0        1.156963   -1.651670    2.848286
      5          6           0       -0.634967   -0.826812    2.293402
      6          1           0       -1.133035    0.131462    2.486562
      7          6           0       -0.140047   -0.866282    0.840252
      8          6           0       -1.658145   -1.957482    2.548907
      9          1           0       -2.531089   -1.789558    1.904080
     10          1           0       -2.012032   -1.876300    3.583472
     11          8           0        0.810530   -1.577968    0.524923
     12          6           0       -1.107739   -3.375163    2.306467
     13          1           0       -0.253351   -3.560486    2.967671
     14          1           0       -0.775792   -3.502413    1.275141
     15          6           0       -2.164794   -4.420762    2.588871
     16          8           0       -2.687404   -5.136531    1.767360
     17          8           0       -2.487972   -4.446299    3.908720
     18          7           0       -0.786447   -0.069364   -0.053519
     19          1           0       -1.611060    0.434433    0.243217
     20          6           0       -0.422007   -0.039375   -1.480429
     21          1           0       -0.897431    0.859637   -1.890478
     22          6           0        1.113992    0.138235   -1.608844
     23          6           0       -0.925487   -1.273613   -2.260645
     24          1           0       -0.250270   -2.107329   -2.053882
     25          1           0       -1.907070   -1.534544   -1.846909
     26          8           0        1.795516   -0.519678   -2.373530
     27          6           0       -1.054303   -1.021887   -3.747901
     28          6           0       -2.178803   -0.351694   -4.252691
     29          1           0       -2.965715   -0.035624   -3.569533
     30          6           0       -0.071297   -1.431647   -4.654476
     31          1           0        0.816827   -1.930629   -4.282561
     32          6           0       -2.326207   -0.093765   -5.611845
     33          1           0       -3.201480    0.415804   -6.001741
     34          6           0       -0.206926   -1.187628   -6.020577
     35          1           0        0.565165   -1.520055   -6.712421
     36          8           0       -1.528552   -0.244651   -7.829923
     37          1           0       -0.804660   -0.633774   -8.344642
     38          6           0       -1.335422   -0.517178   -6.504500
     39          7           0        1.640494    1.123277   -0.792020
     40          1           0        0.996656    1.477442   -0.093435
     41          6           0        2.980663    0.921463   -0.249328
     42          1           0        3.413896    0.064714   -0.771868
     43          6           0        2.906333    0.531863    1.235658
     44          6           0        3.890214    2.146231   -0.467808
     45          1           0        3.807942    2.401434   -1.532000
     46          1           0        3.499099    3.002606    0.099219
     47          8           0        3.737911   -0.168424    1.772606
     48          6           0        5.346067    1.865045   -0.067892
     49          1           0        5.724245    1.000986   -0.630414
     50          1           0        5.389634    1.572383    0.984963
     51          6           0        6.295556    3.060187   -0.270092
     52          1           0        5.915627    3.933147    0.279345
     53          1           0        7.281164    2.811203    0.147254
     54          6           0        6.449739    3.411537   -1.744791
     55          1           0        6.836960    2.574816   -2.331866
     56          1           0        5.522107    3.765130   -2.198407
     57          7           0        7.460271    4.551669   -1.918535
     58          1           0        7.589896    4.812724   -2.903853
     59          1           0        8.378590    4.286812   -1.540786
     60          1           0        7.155317    5.390524   -1.409339
     61          8           0        1.841803    1.069208    1.851177
     62          1           0       -3.178957   -5.127629    4.013472
 ---------------------------------------------------------------------

 SCF Done:  E(RB3LYP) =  -1526.26157658     A.U. after    1 cycles

 Alpha  occ. eigenvalues --  -19.25221 -19.24498 -19.22472 -19.20511 -19.20288
 Alpha  occ. eigenvalues --  -19.19483 -19.19021 -14.65634 -14.45319 -14.42604
 Alpha  occ. eigenvalues --  -14.42505 -10.42339 -10.38653 -10.37750 -10.37411
 Alpha  occ. eigenvalues --  -10.36109 -10.34920 -10.31877 -10.31401 -10.31359
 Alpha  occ. eigenvalues --  -10.30768 -10.29599 -10.29579 -10.27782 -10.26548
 Alpha  occ. eigenvalues --  -10.24937 -10.23971 -10.23871 -10.23578 -10.23481
 Alpha  occ. eigenvalues --  -10.23186  -1.19472  -1.16094  -1.15950  -1.12590
 Alpha  occ. eigenvalues --   -1.10756  -1.10494  -1.07653  -1.07055  -1.01495
 Alpha  occ. eigenvalues --   -0.99561  -0.98763  -0.95949  -0.90169  -0.88858
 Alpha  occ. eigenvalues --   -0.87056  -0.85143  -0.83278  -0.80348  -0.79385
 Alpha  occ. eigenvalues --   -0.78939  -0.78073  -0.77604  -0.75575  -0.72417
 Alpha  occ. eigenvalues --   -0.70921  -0.70462  -0.68036  -0.67640  -0.67181
 Alpha  occ. eigenvalues --   -0.66790  -0.66320  -0.64674  -0.63256  -0.62550
 Alpha  occ. eigenvalues --   -0.61716  -0.60116  -0.59045  -0.58341  -0.58104
 Alpha  occ. eigenvalues --   -0.56418  -0.55997  -0.55451  -0.55070  -0.54521
 Alpha  occ. eigenvalues --   -0.53706  -0.53326  -0.53275  -0.52903  -0.52703
 Alpha  occ. eigenvalues --   -0.51425  -0.50961  -0.50793  -0.49855  -0.49564
 Alpha  occ. eigenvalues --   -0.48876  -0.48495  -0.48072  -0.47676  -0.47433
 Alpha  occ. eigenvalues --   -0.46936  -0.46567  -0.46215  -0.45357  -0.45200
 Alpha  occ. eigenvalues --   -0.44673  -0.44461  -0.44228  -0.44001  -0.43510
 Alpha  occ. eigenvalues --   -0.42770  -0.42552  -0.41679  -0.40548  -0.38217
 Alpha  occ. eigenvalues --   -0.37958  -0.37607  -0.37416  -0.35936  -0.35565
 Alpha  occ. eigenvalues --   -0.34793  -0.33705  -0.32834  -0.32252  -0.31791
 Alpha  occ. eigenvalues --   -0.29795  -0.26372
 Alpha virt. eigenvalues --   -0.15989  -0.09322  -0.09279  -0.07862  -0.06918
 Alpha virt. eigenvalues --   -0.06210  -0.05313  -0.04871  -0.04719  -0.03334
 Alpha virt. eigenvalues --   -0.03127  -0.02092  -0.01591  -0.00447   0.00140

 Mulliken charges:
               1
     1  N   -0.779679
     2  H    0.457280
     3  H    0.333546
     4  H    0.360737
     5  C   -0.066319
     6  H    0.152215
     7  C    0.652760
     8  C   -0.290327
     9  H    0.158695
    10  H    0.175203
    11  O   -0.529899
    12  C   -0.338935
    13  H    0.164767
    14  H    0.202264
    15  C    0.559472
    16  O   -0.441907
    17  O   -0.565392
    18  N   -0.635307
    19  H    0.338640
    20  C   -0.056672
    21  H    0.173527
    22  C    0.618525
    23  C   -0.347166
    24  H    0.190555
    25  H    0.147146
    26  O   -0.495775
    27  C    0.149233
    28  C   -0.191478
    29  H    0.115271
    30  C   -0.170481
    31  H    0.154815
    32  C   -0.157472
    33  H    0.144053
    34  C   -0.198521
    35  H    0.120529
    36  O   -0.639643
    37  H    0.409233
    38  C    0.350315
    39  N   -0.602528
    40  H    0.343231
    41  C   -0.049685
    42  H    0.207994
    43  C    0.601324
    44  C   -0.285705
    45  H    0.149469
    46  H    0.150737
    47  O   -0.470916
    48  C   -0.281961
    49  H    0.166261
    50  H    0.205733
    51  C   -0.296516
    52  H    0.168462
    53  H    0.169494
    54  C   -0.205264
    55  H    0.232109
    56  H    0.233233
    57  N   -0.731835
    58  H    0.432568
    59  H    0.427823
    60  H    0.427628
    61  O   -0.632784
    62  H    0.417321
 Sum of Mulliken charges =   1.00000

 Dipole moment (field-independent basis, Debye):
    X=             27.0113    Y=             20.2413    Z=             -4.0128  Tot=             33.9915
 Quadrupole moment (field-independent basis, Debye-Ang):
   XX=             53.4120   YY=            -96.4630   ZZ=           -137.9581
   XY=            142.9359   XZ=            -76.9806   YZ=            -43.2861

 Normal termination of Gaussian 16 at Wed Jun  1 23:31:14 2022.
