 Gaussian 16, Revision C.01,
 Gaussian 16:  ES64L-G16RevC.01  3-Jul-2019

 ----------------------------------------------------------------------
 # B3LYP/6-31G* empiricaldispersion=gd3 guess=read geom=check nosymm in
 tegral(ultrafinegrid)
 ----------------------------------------------------------------------

 ------------------------------------------------------
 Candidate Structure: Conf:448 Charge calc in gas phase
 ------------------------------------------------------
 Structure from the checkpoint file:  "conf-448.chk"
 Charge =  1 Multiplicity = 1

                          Input orientation:
 ---------------------------------------------------------------------
 Center     Atomic      Atomic             Coordinates (Angstroms)
 Number     Number       Type             X           Y           Z
 ---------------------------------------------------------------------
      1          7           0       -0.007695   -0.587693    3.877760
      2          1           0        0.837397    0.885297    3.460077
      3          1           0       -0.323785   -0.743222    4.833993
      4          1           0        0.759353   -1.240495    3.703223
      5          6           0       -1.104110   -0.877239    2.926744
      6          1           0       -1.920935   -0.179738    3.150176
      7          6           0       -0.534612   -0.599960    1.528329
      8          6           0       -1.624677   -2.324952    3.006500
      9          1           0       -1.936518   -2.518598    4.040367
     10          1           0       -0.800535   -3.008835    2.778463
     11          8           0        0.553782   -1.063002    1.203011
     12          6           0       -2.800576   -2.592995    2.051631
     13          1           0       -2.469128   -2.477727    1.011484
     14          1           0       -3.624162   -1.894042    2.225490
     15          6           0       -3.373171   -3.989821    2.199066
     16          8           0       -4.537069   -4.249723    2.390432
     17          8           0       -2.404681   -4.930549    2.081142
     18          7           0       -1.272304    0.194040    0.698056
     19          1           0       -2.150019    0.562830    1.039166
     20          6           0       -0.780574    0.730117   -0.574842
     21          1           0       -1.015050    1.803783   -0.548537
     22          6           0        0.758353    0.637119   -0.641920
     23          6           0       -1.412183    0.160661   -1.858988
     24          1           0       -1.095921   -0.877774   -1.986374
     25          1           0       -2.502866    0.171078   -1.747862
     26          8           0        1.370251   -0.015856   -1.466178
     27          6           0       -0.980914    1.013271   -3.041842
     28          6           0       -1.416157    2.342680   -3.160709
     29          1           0       -2.148123    2.736079   -2.457789
     30          6           0       -0.064652    0.541678   -3.991585
     31          1           0        0.307081   -0.474271   -3.911101
     32          6           0       -0.949078    3.182524   -4.175293
     33          1           0       -1.316776    4.198183   -4.283713
     34          6           0        0.406402    1.360054   -5.020222
     35          1           0        1.102994    0.961935   -5.755288
     36          8           0        0.386975    3.548160   -6.084429
     37          1           0        0.876060    3.067849   -6.771794
     38          6           0       -0.038054    2.687087   -5.121011
     39          7           0        1.396502    1.581118    0.169954
     40          1           0        0.773461    1.982960    0.869785
     41          6           0        2.663285    1.185990    0.834495
     42          1           0        2.920092    0.187725    0.470332
     43          6           0        2.411452    0.979403    2.338017
     44          6           0        3.816439    2.143006    0.494571
     45          1           0        3.492356    3.176425    0.675759
     46          1           0        4.633732    1.949097    1.195335
     47          8           0        3.183643    0.361709    3.030290
     48          6           0        4.299854    1.930419   -0.967506
     49          1           0        3.670860    1.167154   -1.444663
     50          1           0        5.303986    1.494947   -0.954375
     51          6           0        4.362434    3.171677   -1.877838
     52          1           0        5.073959    3.905120   -1.480535
     53          1           0        4.755101    2.862278   -2.854946
     54          6           0        3.041197    3.918183   -2.097001
     55          1           0        2.749671    4.505882   -1.222766
     56          1           0        3.098579    4.587622   -2.957923
     57          7           0        1.897190    2.959558   -2.329625
     58          1           0        1.050906    3.407331   -2.710059
     59          1           0        1.653010    2.516352   -1.409470
     60          1           0        2.120225    2.196253   -2.979206
     61          8           0        1.238303    1.496369    2.752424
     62          1           0       -2.839632   -5.798687    2.182841
 ---------------------------------------------------------------------

 SCF Done:  E(RB3LYP) =  -1526.29445669     A.U. after    3 cycles

 Alpha  occ. eigenvalues --  -19.29316 -19.27185 -19.26962 -19.25335 -19.23968
 Alpha  occ. eigenvalues --  -19.22669 -19.21458 -14.57735 -14.49469 -14.48345
 Alpha  occ. eigenvalues --  -14.45096 -10.42284 -10.41080 -10.41078 -10.39879
 Alpha  occ. eigenvalues --  -10.38369 -10.37209 -10.36893 -10.34568 -10.34317
 Alpha  occ. eigenvalues --  -10.32362 -10.31486 -10.31208 -10.30983 -10.30959
 Alpha  occ. eigenvalues --  -10.30913 -10.30717 -10.30523 -10.30361 -10.29580
 Alpha  occ. eigenvalues --  -10.29401  -1.18564  -1.17984  -1.17537  -1.17437
 Alpha  occ. eigenvalues --   -1.15923  -1.12847  -1.10100  -1.09102  -1.05750
 Alpha  occ. eigenvalues --   -1.04390  -1.01297  -0.97516  -0.93183  -0.91554
 Alpha  occ. eigenvalues --   -0.89442  -0.88641  -0.86797  -0.85469  -0.83152
 Alpha  occ. eigenvalues --   -0.81401  -0.78155  -0.76936  -0.74247  -0.73950
 Alpha  occ. eigenvalues --   -0.71739  -0.71524  -0.71353  -0.70809  -0.70368
 Alpha  occ. eigenvalues --   -0.70132  -0.68588  -0.68312  -0.66273  -0.65327
 Alpha  occ. eigenvalues --   -0.63867  -0.62619  -0.61880  -0.61140  -0.60083
 Alpha  occ. eigenvalues --   -0.59734  -0.58838  -0.58020  -0.57246  -0.56980
 Alpha  occ. eigenvalues --   -0.56440  -0.56371  -0.55740  -0.55358  -0.54910
 Alpha  occ. eigenvalues --   -0.54563  -0.54258  -0.54026  -0.53759  -0.53443
 Alpha  occ. eigenvalues --   -0.53006  -0.52660  -0.52173  -0.51736  -0.51104
 Alpha  occ. eigenvalues --   -0.50755  -0.50077  -0.49784  -0.49015  -0.48438
 Alpha  occ. eigenvalues --   -0.47919  -0.47766  -0.47167  -0.46744  -0.45908
 Alpha  occ. eigenvalues --   -0.45503  -0.45293  -0.45194  -0.45009  -0.44771
 Alpha  occ. eigenvalues --   -0.44350  -0.41500  -0.40163  -0.39360  -0.38869
 Alpha  occ. eigenvalues --   -0.38639  -0.38245  -0.37439  -0.37036  -0.35529
 Alpha  occ. eigenvalues --   -0.34712  -0.33748
 Alpha virt. eigenvalues --   -0.13351  -0.12715  -0.11204  -0.10061  -0.08299
 Alpha virt. eigenvalues --   -0.07908  -0.06711  -0.05094  -0.03771  -0.03510
 Alpha virt. eigenvalues --   -0.02156  -0.02029  -0.01593  -0.01449  -0.00799

 Mulliken charges:
               1
     1  N   -0.774179
     2  H    0.459765
     3  H    0.342844
     4  H    0.359206
     5  C   -0.063199
     6  H    0.153088
     7  C    0.645208
     8  C   -0.282256
     9  H    0.165753
    10  H    0.194923
    11  O   -0.519202
    12  C   -0.359269
    13  H    0.180164
    14  H    0.171183
    15  C    0.571275
    16  O   -0.439205
    17  O   -0.559195
    18  N   -0.627701
    19  H    0.345732
    20  C   -0.028793
    21  H    0.152714
    22  C    0.587323
    23  C   -0.339314
    24  H    0.194216
    25  H    0.167696
    26  O   -0.482700
    27  C    0.140867
    28  C   -0.206388
    29  H    0.149010
    30  C   -0.169790
    31  H    0.176526
    32  C   -0.215496
    33  H    0.173509
    34  C   -0.235241
    35  H    0.154341
    36  O   -0.625209
    37  H    0.424623
    38  C    0.348928
    39  N   -0.662240
    40  H    0.364683
    41  C   -0.069045
    42  H    0.230588
    43  C    0.608989
    44  C   -0.283163
    45  H    0.143582
    46  H    0.200376
    47  O   -0.447400
    48  C   -0.314905
    49  H    0.164601
    50  H    0.188826
    51  C   -0.295999
    52  H    0.192201
    53  H    0.171366
    54  C   -0.188243
    55  H    0.202814
    56  H    0.213791
    57  N   -0.785322
    58  H    0.401265
    59  H    0.440915
    60  H    0.409644
    61  O   -0.642028
    62  H    0.422947
 Sum of Mulliken charges =   1.00000

 Dipole moment (field-independent basis, Debye):
    X=              3.5694    Y=             10.1401    Z=             -6.5921  Tot=             12.6102
 Quadrupole moment (field-independent basis, Debye-Ang):
   XX=           -162.6540   YY=           -134.5408   ZZ=           -120.8582
   XY=             22.7039   XZ=            -29.8528   YZ=            -32.0197

 Normal termination of Gaussian 16 at Wed Jun  1 23:31:38 2022.
