 Gaussian 16, Revision C.01,
 Gaussian 16:  ES64L-G16RevC.01  3-Jul-2019

 ----------------------------------------------------------------------
 # B3LYP/6-31G* empiricaldispersion=gd3 guess=read geom=check nosymm in
 tegral(ultrafinegrid)
 ----------------------------------------------------------------------

 -----------------------------------------------------
 Candidate Structure: Conf:28 Charge calc in gas phase
 -----------------------------------------------------
 Structure from the checkpoint file:  "conf-28.chk"
 Charge =  1 Multiplicity = 1

                          Input orientation:
 ---------------------------------------------------------------------
 Center     Atomic      Atomic             Coordinates (Angstroms)
 Number     Number       Type             X           Y           Z
 ---------------------------------------------------------------------
      1          7           0       -3.009570   -1.614846    2.826663
      2          1           0       -3.502735   -1.789648    1.929167
      3          1           0       -3.277340   -2.310173    3.528070
      4          1           0       -3.283813   -0.645668    3.104682
      5          6           0       -1.517255   -1.508594    2.590247
      6          1           0       -1.246170   -2.287461    1.873898
      7          6           0       -1.411413   -0.096596    1.969421
      8          6           0       -0.730832   -1.670468    3.895865
      9          1           0        0.331265   -1.581020    3.646686
     10          1           0       -0.875537   -2.692215    4.272426
     11          8           0       -2.231280    0.744891    2.361784
     12          6           0       -1.085385   -0.644996    4.988439
     13          1           0       -2.131916   -0.714759    5.298627
     14          1           0       -0.914390    0.372081    4.619949
     15          6           0       -0.255420   -0.850814    6.243581
     16          8           0       -0.703731   -1.017237    7.351473
     17          8           0        1.067815   -0.823020    5.958381
     18          7           0       -0.485296    0.088407    1.034783
     19          1           0        0.211523   -0.611857    0.784852
     20          6           0       -0.477460    1.244539    0.143440
     21          1           0       -0.845252    2.110417    0.696506
     22          6           0        0.984958    1.413881   -0.317431
     23          6           0       -1.382967    0.959806   -1.097720
     24          1           0       -1.490300    1.900180   -1.648727
     25          1           0       -0.837406    0.261595   -1.743209
     26          8           0        1.665403    0.379818   -0.467364
     27          6           0       -2.727551    0.376784   -0.729753
     28          6           0       -2.915001   -1.010172   -0.678282
     29          1           0       -2.117585   -1.668640   -1.015786
     30          6           0       -3.793538    1.193110   -0.325360
     31          1           0       -3.675573    2.273140   -0.346744
     32          6           0       -4.109696   -1.575098   -0.212670
     33          1           0       -4.279513   -2.648726   -0.243160
     34          6           0       -4.992564    0.655536    0.134137
     35          1           0       -5.800042    1.313202    0.448021
     36          8           0       -6.287566   -1.335876    0.666965
     37          1           0       -6.980574   -0.670869    0.807385
     38          6           0       -5.156125   -0.734712    0.198264
     39          7           0        1.342516    2.664807   -0.556551
     40          1           0        0.787205    3.498917   -0.245101
     41          6           0        2.676679    3.195489   -0.807616
     42          1           0        3.381369    2.774897   -0.077668
     43          6           0        2.541265    4.766362   -0.508993
     44          6           0        3.220776    2.988895   -2.218248
     45          1           0        2.425779    3.200222   -2.946809
     46          1           0        3.987124    3.764863   -2.336361
     47          8           0        3.556933    5.428995   -0.759902
     48          6           0        3.833524    1.609709   -2.488788
     49          1           0        3.072813    0.823719   -2.435090
     50          1           0        4.565687    1.383830   -1.701055
     51          6           0        4.544725    1.596529   -3.853294
     52          1           0        3.814676    1.775800   -4.655744
     53          1           0        5.269799    2.422969   -3.882525
     54          6           0        5.263230    0.281384   -4.093395
     55          1           0        6.011058    0.068409   -3.325521
     56          1           0        4.581407   -0.568553   -4.175553
     57          7           0        6.035896    0.335354   -5.423531
     58          1           0        6.543466   -0.533812   -5.628007
     59          1           0        6.717633    1.103998   -5.407060
     60          1           0        5.395225    0.520685   -6.204691
     61          8           0        1.406386    5.098205   -0.065719
     62          1           0        1.546861   -0.936680    6.801661
 ---------------------------------------------------------------------

 SCF Done:  E(RB3LYP) =  -1526.20158533     A.U. after    1 cycles

 Alpha  occ. eigenvalues --  -19.28333 -19.27860 -19.24093 -19.22613 -19.17655
 Alpha  occ. eigenvalues --  -19.08742 -19.07522 -14.63581 -14.58177 -14.47314
 Alpha  occ. eigenvalues --  -14.39471 -10.41311 -10.41095 -10.40147 -10.39215
 Alpha  occ. eigenvalues --  -10.35456 -10.34559 -10.33087 -10.31836 -10.31727
 Alpha  occ. eigenvalues --  -10.30958 -10.29536 -10.29125 -10.28938 -10.28841
 Alpha  occ. eigenvalues --  -10.28824 -10.28222 -10.26721 -10.26575 -10.24393
 Alpha  occ. eigenvalues --  -10.23207  -1.19141  -1.17390  -1.16966  -1.15962
 Alpha  occ. eigenvalues --   -1.12085  -1.10318  -1.09066  -1.03768  -1.01846
 Alpha  occ. eigenvalues --   -0.96539  -0.95403  -0.93360  -0.93245  -0.92997
 Alpha  occ. eigenvalues --   -0.88256  -0.85922  -0.84896  -0.84855  -0.82458
 Alpha  occ. eigenvalues --   -0.78897  -0.77415  -0.76135  -0.76014  -0.74813
 Alpha  occ. eigenvalues --   -0.72357  -0.72071  -0.71567  -0.71032  -0.69911
 Alpha  occ. eigenvalues --   -0.69335  -0.68357  -0.67242  -0.64807  -0.64388
 Alpha  occ. eigenvalues --   -0.63680  -0.61101  -0.60956  -0.60644  -0.59868
 Alpha  occ. eigenvalues --   -0.58379  -0.58021  -0.57310  -0.56356  -0.55803
 Alpha  occ. eigenvalues --   -0.55262  -0.54668  -0.54158  -0.53768  -0.53654
 Alpha  occ. eigenvalues --   -0.53085  -0.52832  -0.52173  -0.51359  -0.50778
 Alpha  occ. eigenvalues --   -0.50461  -0.50229  -0.49177  -0.48598  -0.48375
 Alpha  occ. eigenvalues --   -0.48199  -0.47467  -0.47042  -0.46807  -0.46363
 Alpha  occ. eigenvalues --   -0.45273  -0.44710  -0.44312  -0.43530  -0.43039
 Alpha  occ. eigenvalues --   -0.42465  -0.40717  -0.40480  -0.40120  -0.38876
 Alpha  occ. eigenvalues --   -0.38728  -0.38078  -0.37203  -0.36096  -0.36056
 Alpha  occ. eigenvalues --   -0.35106  -0.32464  -0.31563  -0.30376  -0.23719
 Alpha  occ. eigenvalues --   -0.23682  -0.21908
 Alpha virt. eigenvalues --   -0.14166  -0.11578  -0.10898  -0.09408  -0.08136
 Alpha virt. eigenvalues --   -0.07768  -0.07528  -0.07335  -0.04763  -0.03933
 Alpha virt. eigenvalues --   -0.03292  -0.02650  -0.01879  -0.01266  -0.00528

 Mulliken charges:
               1
     1  N   -0.757593
     2  H    0.417855
     3  H    0.404288
     4  H    0.426622
     5  C   -0.121022
     6  H    0.199068
     7  C    0.679773
     8  C   -0.301086
     9  H    0.218585
    10  H    0.175977
    11  O   -0.544709
    12  C   -0.364722
    13  H    0.164938
    14  H    0.224172
    15  C    0.575600
    16  O   -0.431321
    17  O   -0.559734
    18  N   -0.603551
    19  H    0.353835
    20  C   -0.059067
    21  H    0.202848
    22  C    0.618163
    23  C   -0.362773
    24  H    0.185621
    25  H    0.161082
    26  O   -0.595705
    27  C    0.166553
    28  C   -0.193675
    29  H    0.137958
    30  C   -0.150801
    31  H    0.166508
    32  C   -0.270753
    33  H    0.162825
    34  C   -0.190918
    35  H    0.151780
    36  O   -0.637940
    37  H    0.424106
    38  C    0.353370
    39  N   -0.611337
    40  H    0.365023
    41  C   -0.072060
    42  H    0.142772
    43  C    0.591085
    44  C   -0.265289
    45  H    0.128983
    46  H    0.179152
    47  O   -0.576294
    48  C   -0.271084
    49  H    0.172195
    50  H    0.146013
    51  C   -0.291530
    52  H    0.160567
    53  H    0.167810
    54  C   -0.205447
    55  H    0.226118
    56  H    0.222329
    57  N   -0.731220
    58  H    0.424556
    59  H    0.426940
    60  H    0.423956
    61  O   -0.607660
    62  H    0.428266
 Sum of Mulliken charges =   1.00000

 Dipole moment (field-independent basis, Debye):
    X=              7.0685    Y=            -17.6644    Z=            -12.8022  Tot=             22.9323
 Quadrupole moment (field-independent basis, Debye-Ang):
   XX=             -3.1556   YY=           -248.3232   ZZ=            -41.3579
   XY=            -25.3253   XZ=           -138.6853   YZ=            -20.0781

 Normal termination of Gaussian 16 at Wed Jun  1 23:31:13 2022.
