 Gaussian 16, Revision C.01,
 Gaussian 16:  ES64L-G16RevC.01  3-Jul-2019

 ----------------------------------------------------------------------
 # B3LYP/6-31G* empiricaldispersion=gd3 guess=read geom=check nosymm in
 tegral(ultrafinegrid)
 ----------------------------------------------------------------------

 ------------------------------------------------------
 Candidate Structure: Conf:222 Charge calc in gas phase
 ------------------------------------------------------
 Structure from the checkpoint file:  "conf-222.chk"
 Charge =  1 Multiplicity = 1

                          Input orientation:
 ---------------------------------------------------------------------
 Center     Atomic      Atomic             Coordinates (Angstroms)
 Number     Number       Type             X           Y           Z
 ---------------------------------------------------------------------
      1          7           0       -0.991146   -3.222995    2.249231
      2          1           0       -0.491038   -3.449845    1.367922
      3          1           0       -1.288725   -4.094255    2.698813
      4          1           0       -1.815548   -2.650836    1.992563
      5          6           0       -0.145677   -2.346628    3.157285
      6          1           0        0.864873   -2.763556    3.148410
      7          6           0       -0.245124   -0.976886    2.447212
      8          6           0       -0.743605   -2.321098    4.562943
      9          1           0       -0.802554   -3.338973    4.964497
     10          1           0       -1.762675   -1.920937    4.499776
     11          8           0       -1.370189   -0.593774    2.123283
     12          6           0        0.102535   -1.450713    5.505969
     13          1           0        0.169923   -0.419702    5.150358
     14          1           0        1.124477   -1.849538    5.565680
     15          6           0       -0.443738   -1.395039    6.923446
     16          8           0       -0.498109   -0.398737    7.599461
     17          8           0       -0.841693   -2.619961    7.347750
     18          7           0        0.911240   -0.370193    2.171103
     19          1           0        1.802746   -0.826690    2.375009
     20          6           0        1.064640    0.633944    1.124972
     21          1           0        0.692304    1.602094    1.475533
     22          6           0        2.594020    0.724499    0.903520
     23          6           0        0.302046    0.269824   -0.195926
     24          1           0       -0.687661    0.728406   -0.146558
     25          1           0        0.834414    0.754126   -1.024037
     26          8           0        3.336537   -0.171768    1.324784
     27          6           0        0.125691   -1.211600   -0.479270
     28          6           0        1.147577   -2.155564   -0.289840
     29          1           0        2.128202   -1.833792    0.047929
     30          6           0       -1.121876   -1.682547   -0.913895
     31          1           0       -1.939459   -0.979514   -1.046899
     32          6           0        0.928263   -3.519247   -0.511301
     33          1           0        1.726890   -4.243446   -0.383061
     34          6           0       -1.352538   -3.034978   -1.167781
     35          1           0       -2.326893   -3.365477   -1.521327
     36          8           0       -0.466033   -5.302774   -1.184736
     37          1           0       -1.299411   -5.479971   -1.649977
     38          6           0       -0.320430   -3.965791   -0.974697
     39          7           0        3.017571    1.795990    0.225908
     40          1           0        2.377175    2.514688   -0.100563
     41          6           0        4.413713    2.019117   -0.135967
     42          1           0        5.049231    1.772259    0.717174
     43          6           0        4.568305    3.492528   -0.486881
     44          6           0        4.824902    1.145754   -1.364053
     45          1           0        4.987112    0.132158   -0.984226
     46          1           0        3.959132    1.098525   -2.036904
     47          8           0        5.807779    3.907758   -0.316948
     48          6           0        6.058911    1.640703   -2.151946
     49          1           0        6.535975    0.774561   -2.623671
     50          1           0        6.793408    2.050707   -1.452708
     51          6           0        5.717235    2.682062   -3.257043
     52          1           0        5.621810    2.152950   -4.212095
     53          1           0        4.730915    3.125477   -3.073144
     54          6           0        6.728895    3.831143   -3.444488
     55          1           0        7.737088    3.501676   -3.170854
     56          1           0        6.762876    4.126574   -4.501609
     57          7           0        6.397975    5.005901   -2.591954
     58          1           0        7.125218    5.716373   -2.666936
     59          1           0        6.057051    4.555587   -1.097699
     60          1           0        5.532388    5.436403   -2.919363
     61          8           0        3.648992    4.133044   -0.978255
     62          1           0       -1.153417   -2.515724    8.267499
 ---------------------------------------------------------------------

 SCF Done:  E(RB3LYP) =  -1526.28868204     A.U. after    2 cycles

 Alpha  occ. eigenvalues --  -19.29317 -19.29238 -19.25734 -19.23410 -19.23347
 Alpha  occ. eigenvalues --  -19.22872 -19.20818 -14.60310 -14.49137 -14.46449
 Alpha  occ. eigenvalues --  -14.42832 -10.42931 -10.41921 -10.40513 -10.39856
 Alpha  occ. eigenvalues --  -10.38708 -10.37228 -10.35661 -10.33810 -10.32004
 Alpha  occ. eigenvalues --  -10.31831 -10.31151 -10.31009 -10.30954 -10.30897
 Alpha  occ. eigenvalues --  -10.30855 -10.30670 -10.29736 -10.27239 -10.26213
 Alpha  occ. eigenvalues --  -10.25987  -1.19957  -1.18497  -1.17539  -1.16006
 Alpha  occ. eigenvalues --   -1.14757  -1.14062  -1.11127  -1.07604  -1.05991
 Alpha  occ. eigenvalues --   -1.02914  -0.98190  -0.97367  -0.94792  -0.90654
 Alpha  occ. eigenvalues --   -0.88161  -0.87120  -0.86667  -0.85009  -0.82764
 Alpha  occ. eigenvalues --   -0.79231  -0.78179  -0.76927  -0.74144  -0.73770
 Alpha  occ. eigenvalues --   -0.72357  -0.71873  -0.71051  -0.70647  -0.70133
 Alpha  occ. eigenvalues --   -0.68973  -0.67684  -0.66587  -0.66097  -0.65074
 Alpha  occ. eigenvalues --   -0.63676  -0.61508  -0.60707  -0.59997  -0.58855
 Alpha  occ. eigenvalues --   -0.58658  -0.58545  -0.57688  -0.57389  -0.56803
 Alpha  occ. eigenvalues --   -0.56605  -0.56070  -0.55487  -0.54944  -0.54618
 Alpha  occ. eigenvalues --   -0.54314  -0.53609  -0.53598  -0.52901  -0.52658
 Alpha  occ. eigenvalues --   -0.52106  -0.51736  -0.50941  -0.50446  -0.50333
 Alpha  occ. eigenvalues --   -0.49782  -0.49415  -0.49077  -0.48691  -0.48047
 Alpha  occ. eigenvalues --   -0.47884  -0.47756  -0.46837  -0.45666  -0.44820
 Alpha  occ. eigenvalues --   -0.44369  -0.44321  -0.43819  -0.41628  -0.41294
 Alpha  occ. eigenvalues --   -0.41062  -0.40891  -0.40097  -0.39382  -0.37364
 Alpha  occ. eigenvalues --   -0.37182  -0.36954  -0.36894  -0.35735  -0.35037
 Alpha  occ. eigenvalues --   -0.33982  -0.33884
 Alpha virt. eigenvalues --   -0.13511  -0.12553  -0.11210  -0.09512  -0.08719
 Alpha virt. eigenvalues --   -0.08599  -0.06482  -0.04659  -0.04076  -0.03505
 Alpha virt. eigenvalues --   -0.02114  -0.01636  -0.01087  -0.00465  -0.00244

 Mulliken charges:
               1
     1  N   -0.760361
     2  H    0.424951
     3  H    0.409164
     4  H    0.420955
     5  C   -0.111200
     6  H    0.202878
     7  C    0.642340
     8  C   -0.291159
     9  H    0.188156
    10  H    0.194608
    11  O   -0.530112
    12  C   -0.368489
    13  H    0.206348
    14  H    0.192580
    15  C    0.583039
    16  O   -0.425718
    17  O   -0.566987
    18  N   -0.606495
    19  H    0.368748
    20  C   -0.036164
    21  H    0.201849
    22  C    0.627253
    23  C   -0.370499
    24  H    0.192736
    25  H    0.186759
    26  O   -0.549134
    27  C    0.136652
    28  C   -0.208984
    29  H    0.183150
    30  C   -0.181561
    31  H    0.165278
    32  C   -0.228753
    33  H    0.174106
    34  C   -0.222542
    35  H    0.153474
    36  O   -0.627592
    37  H    0.424531
    38  C    0.334268
    39  N   -0.617536
    40  H    0.357815
    41  C   -0.010087
    42  H    0.196376
    43  C    0.579681
    44  C   -0.284789
    45  H    0.170082
    46  H    0.144480
    47  O   -0.597965
    48  C   -0.285153
    49  H    0.151598
    50  H    0.174741
    51  C   -0.295160
    52  H    0.155581
    53  H    0.161614
    54  C   -0.144633
    55  H    0.169599
    56  H    0.156199
    57  N   -0.783049
    58  H    0.341028
    59  H    0.463182
    60  H    0.345078
    61  O   -0.506261
    62  H    0.429506
 Sum of Mulliken charges =   1.00000

 Dipole moment (field-independent basis, Debye):
    X=              3.2936    Y=             -8.8012    Z=              2.7212  Tot=              9.7833
 Quadrupole moment (field-independent basis, Debye-Ang):
   XX=           -122.1182   YY=           -110.8554   ZZ=           -128.8626
   XY=             52.9198   XZ=            -34.1300   YZ=            -53.7102

 Normal termination of Gaussian 16 at Wed Jun  1 23:31:26 2022.
