 Gaussian 16, Revision C.01,
 Gaussian 16:  ES64L-G16RevC.01  3-Jul-2019

 ----------------------------------------------------------------------
 # B3LYP/6-31G* empiricaldispersion=gd3 guess=read geom=check nosymm in
 tegral(ultrafinegrid)
 ----------------------------------------------------------------------

 ------------------------------------------------------
 Candidate Structure: Conf:684 Charge calc in gas phase
 ------------------------------------------------------
 Structure from the checkpoint file:  "conf-684.chk"
 Charge =  1 Multiplicity = 1

                          Input orientation:
 ---------------------------------------------------------------------
 Center     Atomic      Atomic             Coordinates (Angstroms)
 Number     Number       Type             X           Y           Z
 ---------------------------------------------------------------------
      1          7           0        1.268156   -0.968571    3.447515
      2          1           0        1.983625    0.432958    3.139365
      3          1           0        1.073305   -1.213923    4.417549
      4          1           0        1.940574   -1.645509    3.081492
      5          6           0        0.031644   -1.046822    2.632703
      6          1           0       -0.657266   -0.282896    3.012447
      7          6           0        0.457401   -0.715723    1.194714
      8          6           0       -0.640735   -2.431931    2.687067
      9          1           0       -0.844553   -2.672423    3.738106
     10          1           0        0.062793   -3.181784    2.310022
     11          8           0        1.501972   -1.181873    0.743092
     12          6           0       -1.949084   -2.499768    1.880533
     13          1           0       -1.738903   -2.345370    0.814533
     14          1           0       -2.658435   -1.732393    2.204680
     15          6           0       -2.653639   -3.835978    2.021641
     16          8           0       -3.799883   -3.986925    2.368975
     17          8           0       -1.825521   -4.860102    1.699364
     18          7           0       -0.338307    0.126033    0.481675
     19          1           0       -1.222465    0.420675    0.874058
     20          6           0       -0.022563    0.514957   -0.906460
     21          1           0       -0.646356    1.389340   -1.123933
     22          6           0        1.456104    0.964439   -0.935711
     23          6           0       -0.325637   -0.589350   -1.938362
     24          1           0        0.445940   -1.358591   -1.854708
     25          1           0       -1.279430   -1.045366   -1.645726
     26          8           0        2.296474    0.457475   -1.675624
     27          6           0       -0.425600   -0.049917   -3.348825
     28          6           0       -1.597491    0.596765   -3.771685
     29          1           0       -2.441287    0.680795   -3.088638
     30          6           0        0.631158   -0.157765   -4.257880
     31          1           0        1.551881   -0.640929   -3.947553
     32          6           0       -1.717310    1.121233   -5.053208
     33          1           0       -2.626455    1.613465   -5.382487
     34          6           0        0.525880    0.357338   -5.549302
     35          1           0        1.355954    0.257790   -6.246079
     36          8           0       -0.823470    1.528617   -7.196101
     37          1           0       -0.036401    1.358397   -7.736727
     38          6           0       -0.650036    1.000599   -5.952129
     39          7           0        1.767821    1.957028   -0.030726
     40          1           0        1.053304    2.176499    0.653904
     41          6           0        3.132020    1.925452    0.477100
     42          1           0        3.636997    1.387094   -0.305656
     43          6           0        3.189472    1.051258    1.729920
     44          6           0        3.916077    3.234168    0.611641
     45          1           0        3.617662    3.893928   -0.211125
     46          1           0        3.690122    3.753596    1.549055
     47          8           0        4.057662    0.185940    1.878303
     48          6           0        5.425536    2.916301    0.513004
     49          1           0        5.720799    2.272977    1.351669
     50          1           0        5.983989    3.848709    0.637628
     51          6           0        5.842716    2.258571   -0.837700
     52          1           0        5.071172    2.415997   -1.603365
     53          1           0        6.731563    2.774465   -1.218148
     54          6           0        6.256165    0.777449   -0.833088
     55          1           0        6.693950    0.514509   -1.799277
     56          1           0        6.996303    0.579637   -0.052989
     57          7           0        5.135277   -0.220977   -0.593296
     58          1           0        5.470890   -1.178435   -0.734406
     59          1           0        4.319114   -0.080069   -1.217044
     60          1           0        4.766963   -0.150898    0.403511
     61          8           0        2.221499    1.289587    2.580403
     62          1           0       -2.339912   -5.683278    1.805026
 ---------------------------------------------------------------------

 SCF Done:  E(RB3LYP) =  -1526.30519494     A.U. after    3 cycles

 Alpha  occ. eigenvalues --  -19.28918 -19.27781 -19.26588 -19.24619 -19.24584
 Alpha  occ. eigenvalues --  -19.24089 -19.22039 -14.56833 -14.49105 -14.47659
 Alpha  occ. eigenvalues --  -14.46956 -10.44015 -10.41337 -10.41199 -10.40468
 Alpha  occ. eigenvalues --  -10.38127 -10.35410 -10.35353 -10.34896 -10.32387
 Alpha  occ. eigenvalues --  -10.32032 -10.30693 -10.30622 -10.30571 -10.30099
 Alpha  occ. eigenvalues --  -10.28407 -10.26663 -10.26498 -10.26367 -10.26070
 Alpha  occ. eigenvalues --  -10.25539  -1.21367  -1.18562  -1.16706  -1.15612
 Alpha  occ. eigenvalues --   -1.13082  -1.12718  -1.11328  -1.09701  -1.05539
 Alpha  occ. eigenvalues --   -1.04040  -1.02819  -0.93419  -0.92923  -0.90766
 Alpha  occ. eigenvalues --   -0.89469  -0.87995  -0.83600  -0.82606  -0.81952
 Alpha  occ. eigenvalues --   -0.80682  -0.77457  -0.75755  -0.74267  -0.73561
 Alpha  occ. eigenvalues --   -0.71679  -0.71302  -0.69876  -0.69736  -0.69445
 Alpha  occ. eigenvalues --   -0.69224  -0.68381  -0.66299  -0.66106  -0.64087
 Alpha  occ. eigenvalues --   -0.62774  -0.62099  -0.61581  -0.60569  -0.60273
 Alpha  occ. eigenvalues --   -0.59461  -0.59264  -0.58378  -0.57535  -0.56601
 Alpha  occ. eigenvalues --   -0.56205  -0.55829  -0.55661  -0.55433  -0.54914
 Alpha  occ. eigenvalues --   -0.54329  -0.53810  -0.53256  -0.52854  -0.52356
 Alpha  occ. eigenvalues --   -0.51614  -0.51111  -0.50708  -0.50217  -0.49832
 Alpha  occ. eigenvalues --   -0.49338  -0.49120  -0.48986  -0.48020  -0.47561
 Alpha  occ. eigenvalues --   -0.47334  -0.47043  -0.46660  -0.46498  -0.45842
 Alpha  occ. eigenvalues --   -0.45749  -0.45465  -0.44493  -0.43446  -0.42878
 Alpha  occ. eigenvalues --   -0.41661  -0.40760  -0.40331  -0.40043  -0.39890
 Alpha  occ. eigenvalues --   -0.39112  -0.37525  -0.37232  -0.36825  -0.35374
 Alpha  occ. eigenvalues --   -0.32357  -0.28887
 Alpha virt. eigenvalues --   -0.11980  -0.11505  -0.09892  -0.07980  -0.07440
 Alpha virt. eigenvalues --   -0.07352  -0.06117  -0.04778  -0.03144  -0.02109
 Alpha virt. eigenvalues --   -0.01200  -0.00830  -0.00583  -0.00277  -0.00001

 Mulliken charges:
               1
     1  N   -0.787986
     2  H    0.472086
     3  H    0.348751
     4  H    0.359618
     5  C   -0.064803
     6  H    0.163620
     7  C    0.640504
     8  C   -0.280320
     9  H    0.167661
    10  H    0.189693
    11  O   -0.543032
    12  C   -0.364976
    13  H    0.184512
    14  H    0.174610
    15  C    0.572022
    16  O   -0.435044
    17  O   -0.561552
    18  N   -0.627833
    19  H    0.348117
    20  C   -0.059557
    21  H    0.188255
    22  C    0.647641
    23  C   -0.351655
    24  H    0.182745
    25  H    0.155215
    26  O   -0.536087
    27  C    0.148767
    28  C   -0.191951
    29  H    0.122287
    30  C   -0.169930
    31  H    0.132291
    32  C   -0.154263
    33  H    0.155451
    34  C   -0.194110
    35  H    0.126165
    36  O   -0.631378
    37  H    0.413770
    38  C    0.354510
    39  N   -0.579014
    40  H    0.345709
    41  C   -0.054214
    42  H    0.140476
    43  C    0.662423
    44  C   -0.288547
    45  H    0.178386
    46  H    0.176761
    47  O   -0.531087
    48  C   -0.293624
    49  H    0.165725
    50  H    0.181186
    51  C   -0.307067
    52  H    0.182868
    53  H    0.193980
    54  C   -0.188070
    55  H    0.206775
    56  H    0.211099
    57  N   -0.801209
    58  H    0.403245
    59  H    0.432480
    60  H    0.446704
    61  O   -0.602808
    62  H    0.424008
 Sum of Mulliken charges =   1.00000

 Dipole moment (field-independent basis, Debye):
    X=             15.6081    Y=              0.8971    Z=              0.9886  Tot=             15.6651
 Quadrupole moment (field-independent basis, Debye-Ang):
   XX=            -90.8876   YY=           -155.8674   ZZ=           -143.2889
   XY=              7.6504   XZ=            -17.0657   YZ=             -6.6983

 Normal termination of Gaussian 16 at Wed Jun  1 23:31:36 2022.
