 Gaussian 16, Revision C.01,
 Gaussian 16:  ES64L-G16RevC.01  3-Jul-2019

 ----------------------------------------------------------------------
 # B3LYP/6-31G* empiricaldispersion=gd3 guess=read geom=check nosymm in
 tegral(ultrafinegrid)
 ----------------------------------------------------------------------

 ------------------------------------------------------
 Candidate Structure: Conf:217 Charge calc in gas phase
 ------------------------------------------------------
 Structure from the checkpoint file:  "conf-217.chk"
 Charge =  1 Multiplicity = 1

                          Input orientation:
 ---------------------------------------------------------------------
 Center     Atomic      Atomic             Coordinates (Angstroms)
 Number     Number       Type             X           Y           Z
 ---------------------------------------------------------------------
      1          7           0        0.711470    1.049628    3.969743
      2          1           0        0.721972    0.788941    4.958411
      3          1           0        1.697093    1.120557    3.579557
      4          1           0        0.299644    1.981133    3.833021
      5          6           0       -0.031551    0.048193    3.106239
      6          1           0       -1.033079   -0.080867    3.523961
      7          6           0       -0.137026    0.791217    1.748583
      8          6           0        0.773325   -1.278368    3.200682
      9          1           0        0.594299   -1.676631    4.207499
     10          1           0        1.833026   -1.021722    3.132196
     11          8           0        0.147980    1.994772    1.710702
     12          6           0        0.563813   -2.411616    2.180802
     13          1           0        1.223469   -3.239035    2.454954
     14          1           0        0.894144   -2.088380    1.184393
     15          6           0       -0.823529   -2.999222    2.026694
     16          8           0       -1.070676   -4.131353    1.701432
     17          8           0       -1.797197   -2.050922    2.206814
     18          7           0       -0.492976    0.068329    0.679878
     19          1           0       -0.949092   -0.824092    0.821361
     20          6           0       -0.167177    0.475163   -0.694657
     21          1           0       -0.530028    1.495735   -0.851976
     22          6           0        1.386382    0.403674   -0.725730
     23          6           0       -0.793345   -0.505734   -1.710606
     24          1           0       -0.816733    0.000408   -2.682351
     25          1           0       -0.110369   -1.354237   -1.812282
     26          8           0        1.968597   -0.657206   -0.899354
     27          6           0       -2.167778   -0.997626   -1.311582
     28          6           0       -2.352787   -2.325845   -0.903804
     29          1           0       -1.517141   -3.021133   -0.931815
     30          6           0       -3.274001   -0.137048   -1.266255
     31          1           0       -3.164316    0.898408   -1.580807
     32          6           0       -3.589263   -2.786112   -0.448961
     33          1           0       -3.726505   -3.820554   -0.149352
     34          6           0       -4.517011   -0.578759   -0.821862
     35          1           0       -5.363459    0.104407   -0.799503
     36          8           0       -5.862174   -2.406347    0.048439
     37          1           0       -6.557596   -1.734441   -0.030857
     38          6           0       -4.680538   -1.909411   -0.407531
     39          7           0        2.016651    1.580069   -0.422109
     40          1           0        1.414585    2.336511   -0.117471
     41          6           0        3.386193    1.597764    0.100534
     42          1           0        3.772315    0.583401   -0.028852
     43          6           0        3.260384    1.820112    1.629059
     44          6           0        4.262768    2.602853   -0.644558
     45          1           0        4.203662    2.364231   -1.711266
     46          1           0        3.823165    3.600658   -0.541899
     47          8           0        3.508702    2.983257    2.173629
     48          6           0        5.736066    2.585476   -0.177840
     49          1           0        6.281779    1.848127   -0.775969
     50          1           0        5.805938    2.231021    0.860303
     51          6           0        6.435727    3.953630   -0.271786
     52          1           0        7.517330    3.813234   -0.380220
     53          1           0        6.106873    4.482279   -1.177821
     54          6           0        6.222807    4.840538    0.958280
     55          1           0        6.630631    4.339259    1.843513
     56          1           0        6.767190    5.786313    0.836566
     57          7           0        4.781371    5.085116    1.236308
     58          1           0        4.692152    5.680206    2.061341
     59          1           0        3.972190    3.743201    1.626037
     60          1           0        4.369044    5.615626    0.467488
     61          8           0        2.832100    0.893825    2.325423
     62          1           0       -2.644235   -2.437688    1.900422
 ---------------------------------------------------------------------

 SCF Done:  E(RB3LYP) =  -1526.30778241     A.U. after    3 cycles

 Alpha  occ. eigenvalues --  -19.30464 -19.28298 -19.26243 -19.25073 -19.24866
 Alpha  occ. eigenvalues --  -19.24192 -19.22154 -14.57164 -14.48069 -14.46640
 Alpha  occ. eigenvalues --  -14.46193 -10.43191 -10.42510 -10.42339 -10.39222
 Alpha  occ. eigenvalues --  -10.39039 -10.34602 -10.34060 -10.33952 -10.32726
 Alpha  occ. eigenvalues --  -10.32193 -10.31248 -10.29041 -10.28746 -10.28608
 Alpha  occ. eigenvalues --  -10.28568 -10.28297 -10.28237 -10.27991 -10.27915
 Alpha  occ. eigenvalues --  -10.27213  -1.20781  -1.20187  -1.17463  -1.14439
 Alpha  occ. eigenvalues --   -1.14061  -1.12035  -1.11981  -1.11059  -1.05107
 Alpha  occ. eigenvalues --   -1.03127  -1.01492  -0.94478  -0.92780  -0.90670
 Alpha  occ. eigenvalues --   -0.88805  -0.85882  -0.85621  -0.83703  -0.82574
 Alpha  occ. eigenvalues --   -0.79543  -0.77987  -0.75082  -0.73603  -0.72453
 Alpha  occ. eigenvalues --   -0.72228  -0.71466  -0.71060  -0.71034  -0.69357
 Alpha  occ. eigenvalues --   -0.68602  -0.68189  -0.67693  -0.65342  -0.63339
 Alpha  occ. eigenvalues --   -0.63007  -0.61911  -0.61467  -0.60736  -0.59568
 Alpha  occ. eigenvalues --   -0.59190  -0.58360  -0.58125  -0.58078  -0.57089
 Alpha  occ. eigenvalues --   -0.56987  -0.56504  -0.56016  -0.55705  -0.54677
 Alpha  occ. eigenvalues --   -0.53771  -0.52907  -0.52711  -0.52485  -0.52219
 Alpha  occ. eigenvalues --   -0.51346  -0.51233  -0.50987  -0.50708  -0.50315
 Alpha  occ. eigenvalues --   -0.49515  -0.49208  -0.48566  -0.48495  -0.47757
 Alpha  occ. eigenvalues --   -0.47434  -0.47259  -0.46988  -0.45739  -0.45305
 Alpha  occ. eigenvalues --   -0.44722  -0.43907  -0.43642  -0.43370  -0.42465
 Alpha  occ. eigenvalues --   -0.42353  -0.41912  -0.41433  -0.39925  -0.39441
 Alpha  occ. eigenvalues --   -0.38796  -0.38128  -0.37646  -0.36067  -0.34675
 Alpha  occ. eigenvalues --   -0.34224  -0.30734
 Alpha virt. eigenvalues --   -0.12279  -0.11594  -0.10132  -0.09483  -0.08162
 Alpha virt. eigenvalues --   -0.07545  -0.06863  -0.04238  -0.03484  -0.01933
 Alpha virt. eigenvalues --   -0.00946  -0.00711   0.00135   0.00541   0.00908

 Mulliken charges:
               1
     1  N   -0.750472
     2  H    0.397934
     3  H    0.435772
     4  H    0.412791
     5  C   -0.124673
     6  H    0.229534
     7  C    0.657466
     8  C   -0.291995
     9  H    0.169852
    10  H    0.211845
    11  O   -0.557322
    12  C   -0.400486
    13  H    0.213818
    14  H    0.227071
    15  C    0.586966
    16  O   -0.424862
    17  O   -0.601324
    18  N   -0.624787
    19  H    0.391916
    20  C   -0.040307
    21  H    0.172766
    22  C    0.608511
    23  C   -0.402580
    24  H    0.180800
    25  H    0.200145
    26  O   -0.501508
    27  C    0.138756
    28  C   -0.214963
    29  H    0.161386
    30  C   -0.175327
    31  H    0.139419
    32  C   -0.211834
    33  H    0.175924
    34  C   -0.190434
    35  H    0.141067
    36  O   -0.627285
    37  H    0.418847
    38  C    0.355755
    39  N   -0.591586
    40  H    0.352983
    41  C   -0.054691
    42  H    0.216354
    43  C    0.618437
    44  C   -0.287642
    45  H    0.180327
    46  H    0.130568
    47  O   -0.606996
    48  C   -0.283287
    49  H    0.172078
    50  H    0.143435
    51  C   -0.277176
    52  H    0.171181
    53  H    0.151815
    54  C   -0.149248
    55  H    0.171411
    56  H    0.166886
    57  N   -0.789122
    58  H    0.347628
    59  H    0.493641
    60  H    0.337551
    61  O   -0.537255
    62  H    0.434527
 Sum of Mulliken charges =   1.00000

 Dipole moment (field-independent basis, Debye):
    X=              5.4622    Y=             11.5950    Z=              9.9898  Tot=             16.2504
 Quadrupole moment (field-independent basis, Debye-Ang):
   XX=            -98.7594   YY=           -138.3492   ZZ=           -130.1164
   XY=             46.1846   XZ=              9.3453   YZ=              8.2562

 Normal termination of Gaussian 16 at Wed Jun  1 23:31:39 2022.
