 Gaussian 16, Revision C.01,
 Gaussian 16:  ES64L-G16RevC.01  3-Jul-2019

 ----------------------------------------------------------------------
 # B3LYP/6-31G* empiricaldispersion=gd3 guess=read geom=check nosymm in
 tegral(ultrafinegrid)
 ----------------------------------------------------------------------

 ------------------------------------------------------
 Candidate Structure: Conf:234 Charge calc in gas phase
 ------------------------------------------------------
 Structure from the checkpoint file:  "conf-234.chk"
 Charge =  1 Multiplicity = 1

                          Input orientation:
 ---------------------------------------------------------------------
 Center     Atomic      Atomic             Coordinates (Angstroms)
 Number     Number       Type             X           Y           Z
 ---------------------------------------------------------------------
      1          7           0       -0.097490   -1.331454    3.753290
      2          1           0        0.939678    0.084167    3.651706
      3          1           0       -0.409050   -1.628566    4.675798
      4          1           0        0.491864   -2.072998    3.370432
      5          6           0       -1.252064   -1.138894    2.849497
      6          1           0       -1.808421   -0.267552    3.218989
      7          6           0       -0.673338   -0.846535    1.456985
      8          6           0       -2.205316   -2.344573    2.734011
      9          1           0       -1.647555   -3.197274    2.329261
     10          1           0       -2.988792   -2.117087    2.001919
     11          8           0        0.282072   -1.485171    1.030380
     12          6           0       -2.868605   -2.729837    4.057062
     13          1           0       -3.337477   -1.858517    4.536338
     14          1           0       -2.151884   -3.128063    4.784294
     15          6           0       -3.956751   -3.769079    3.853674
     16          8           0       -4.417735   -4.096271    2.783581
     17          8           0       -4.367428   -4.278734    5.034780
     18          7           0       -1.265736    0.156373    0.739816
     19          1           0       -2.060198    0.637438    1.138546
     20          6           0       -0.747428    0.630077   -0.549164
     21          1           0       -1.052743    1.681343   -0.615640
     22          6           0        0.803239    0.632041   -0.514356
     23          6           0       -1.306352   -0.118275   -1.782318
     24          1           0       -1.053774   -1.177738   -1.688032
     25          1           0       -2.399433   -0.032315   -1.761996
     26          8           0        1.493792    0.140448   -1.404291
     27          6           0       -0.718870    0.456061   -3.058558
     28          6           0        0.123789   -0.321607   -3.863643
     29          1           0        0.228251   -1.381676   -3.655885
     30          6           0       -0.847479    1.816585   -3.360369
     31          1           0       -1.527923    2.440855   -2.786181
     32          6           0        0.899937    0.253741   -4.864394
     33          1           0        1.574635   -0.343327   -5.470697
     34          6           0       -0.058626    2.420125   -4.344454
     35          1           0       -0.126168    3.490651   -4.525930
     36          8           0        1.821361    2.188589   -5.888383
     37          1           0        1.511578    3.035039   -6.251353
     38          6           0        0.841292    1.634104   -5.060534
     39          7           0        1.324787    1.288826    0.558103
     40          1           0        0.671538    1.516436    1.299843
     41          6           0        2.636233    0.892377    1.082384
     42          1           0        2.889481   -0.061314    0.604158
     43          6           0        2.512691    0.519451    2.567254
     44          6           0        3.751326    1.896193    0.712651
     45          1           0        3.591315    2.860061    1.210607
     46          1           0        4.710844    1.493685    1.054369
     47          8           0        3.391913   -0.068056    3.149705
     48          6           0        3.688447    2.043150   -0.812339
     49          1           0        2.699129    2.464047   -1.037317
     50          1           0        3.675474    1.025314   -1.213916
     51          6           0        4.726623    2.852096   -1.589282
     52          1           0        4.920183    3.829069   -1.130738
     53          1           0        5.690070    2.329751   -1.639673
     54          6           0        4.186414    3.125087   -3.001790
     55          1           0        3.361328    3.841786   -2.971134
     56          1           0        4.948574    3.495174   -3.691454
     57          7           0        3.591744    1.877457   -3.646809
     58          1           0        3.164569    2.090360   -4.574044
     59          1           0        2.842631    1.460303   -3.067911
     60          1           0        4.300234    1.148009   -3.777204
     61          8           0        1.310060    0.840346    3.085357
     62          1           0       -5.077152   -4.919874    4.838658
 ---------------------------------------------------------------------

 SCF Done:  E(RB3LYP) =  -1526.28778726     A.U. after    2 cycles

 Alpha  occ. eigenvalues --  -19.31274 -19.26709 -19.25159 -19.22277 -19.22216
 Alpha  occ. eigenvalues --  -19.21251 -19.21226 -14.59073 -14.47592 -14.44969
 Alpha  occ. eigenvalues --  -14.43873 -10.39619 -10.39580 -10.39385 -10.39320
 Alpha  occ. eigenvalues --  -10.39013 -10.36309 -10.34891 -10.33245 -10.32531
 Alpha  occ. eigenvalues --  -10.32321 -10.30463 -10.30059 -10.29963 -10.29848
 Alpha  occ. eigenvalues --  -10.29713 -10.29482 -10.29388 -10.29068 -10.28851
 Alpha  occ. eigenvalues --  -10.28303  -1.18283  -1.17665  -1.16714  -1.14770
 Alpha  occ. eigenvalues --   -1.13613  -1.13461  -1.08815  -1.08561  -1.03836
 Alpha  occ. eigenvalues --   -1.01900  -1.00070  -0.96469  -0.93187  -0.89926
 Alpha  occ. eigenvalues --   -0.88208  -0.88080  -0.85808  -0.84586  -0.82145
 Alpha  occ. eigenvalues --   -0.80858  -0.77235  -0.75927  -0.73399  -0.73256
 Alpha  occ. eigenvalues --   -0.72626  -0.71532  -0.70392  -0.69767  -0.69552
 Alpha  occ. eigenvalues --   -0.68263  -0.66608  -0.66512  -0.65740  -0.63963
 Alpha  occ. eigenvalues --   -0.63202  -0.62009  -0.60934  -0.60086  -0.59526
 Alpha  occ. eigenvalues --   -0.58338  -0.57834  -0.57193  -0.56756  -0.56138
 Alpha  occ. eigenvalues --   -0.55693  -0.55339  -0.55161  -0.54931  -0.54283
 Alpha  occ. eigenvalues --   -0.53714  -0.53492  -0.53311  -0.52967  -0.52785
 Alpha  occ. eigenvalues --   -0.52047  -0.51680  -0.51031  -0.50476  -0.49914
 Alpha  occ. eigenvalues --   -0.49760  -0.48666  -0.48276  -0.47561  -0.47133
 Alpha  occ. eigenvalues --   -0.47070  -0.46517  -0.46291  -0.45721  -0.45207
 Alpha  occ. eigenvalues --   -0.44906  -0.44701  -0.44350  -0.43778  -0.43699
 Alpha  occ. eigenvalues --   -0.43037  -0.39074  -0.39003  -0.37503  -0.37086
 Alpha  occ. eigenvalues --   -0.36711  -0.36535  -0.35674  -0.35439  -0.34876
 Alpha  occ. eigenvalues --   -0.33745  -0.32744
 Alpha virt. eigenvalues --   -0.11479  -0.10826  -0.09761  -0.09146  -0.08274
 Alpha virt. eigenvalues --   -0.06982  -0.06220  -0.05534  -0.03522  -0.02978
 Alpha virt. eigenvalues --   -0.02810  -0.01516  -0.01172  -0.00250   0.00520

 Mulliken charges:
               1
     1  N   -0.773825
     2  H    0.460335
     3  H    0.339689
     4  H    0.351816
     5  C   -0.073169
     6  H    0.148338
     7  C    0.643350
     8  C   -0.266473
     9  H    0.179119
    10  H    0.172823
    11  O   -0.521278
    12  C   -0.372704
    13  H    0.184551
    14  H    0.178010
    15  C    0.587918
    16  O   -0.450545
    17  O   -0.561090
    18  N   -0.632932
    19  H    0.343005
    20  C   -0.051203
    21  H    0.166786
    22  C    0.629302
    23  C   -0.342117
    24  H    0.190501
    25  H    0.164519
    26  O   -0.543833
    27  C    0.178266
    28  C   -0.140499
    29  H    0.162413
    30  C   -0.195808
    31  H    0.145222
    32  C   -0.188238
    33  H    0.158168
    34  C   -0.184844
    35  H    0.142434
    36  O   -0.671169
    37  H    0.431535
    38  C    0.280749
    39  N   -0.597417
    40  H    0.357692
    41  C   -0.074081
    42  H    0.211264
    43  C    0.598417
    44  C   -0.261012
    45  H    0.157302
    46  H    0.178894
    47  O   -0.444502
    48  C   -0.299506
    49  H    0.151348
    50  H    0.158016
    51  C   -0.278246
    52  H    0.189664
    53  H    0.173445
    54  C   -0.197371
    55  H    0.208502
    56  H    0.211115
    57  N   -0.781542
    58  H    0.441978
    59  H    0.437669
    60  H    0.407384
    61  O   -0.640100
    62  H    0.421965
 Sum of Mulliken charges =   1.00000

 Dipole moment (field-independent basis, Debye):
    X=              5.9096    Y=              9.1289    Z=             -8.9763  Tot=             14.1008
 Quadrupole moment (field-independent basis, Debye-Ang):
   XX=           -123.9486   YY=           -139.4861   ZZ=           -103.2011
   XY=             34.0373   XZ=            -66.0288   YZ=            -50.6286

 Normal termination of Gaussian 16 at Wed Jun  1 23:31:28 2022.
