 Gaussian 16, Revision C.01,
 Gaussian 16:  ES64L-G16RevC.01  3-Jul-2019

 ----------------------------------------------------------------------
 # B3LYP/6-31G* empiricaldispersion=gd3 guess=read geom=check nosymm in
 tegral(ultrafinegrid)
 ----------------------------------------------------------------------

 ------------------------------------------------------
 Candidate Structure: Conf:197 Charge calc in gas phase
 ------------------------------------------------------
 Structure from the checkpoint file:  "conf-197.chk"
 Charge =  1 Multiplicity = 1

                          Input orientation:
 ---------------------------------------------------------------------
 Center     Atomic      Atomic             Coordinates (Angstroms)
 Number     Number       Type             X           Y           Z
 ---------------------------------------------------------------------
      1          7           0        0.033347   -1.153617    3.675006
      2          1           0        1.237149    0.087043    3.487568
      3          1           0       -0.236178   -1.473967    4.603929
      4          1           0        0.505270   -1.930022    3.206815
      5          6           0       -1.164385   -0.787877    2.890394
      6          1           0       -1.610078    0.095964    3.364214
      7          6           0       -0.664063   -0.442768    1.479814
      8          6           0       -2.214045   -1.914206    2.809927
      9          1           0       -2.485897   -2.201517    3.833444
     10          1           0       -1.756871   -2.787948    2.334119
     11          8           0        0.134780   -1.174810    0.908614
     12          6           0       -3.479537   -1.504892    2.036506
     13          1           0       -3.224284   -1.297922    0.989319
     14          1           0       -3.932944   -0.604192    2.461201
     15          6           0       -4.548465   -2.580093    2.046605
     16          8           0       -5.691598   -2.425905    2.405886
     17          8           0       -4.060810   -3.759567    1.589712
     18          7           0       -1.136760    0.709445    0.914299
     19          1           0       -1.801944    1.268287    1.430725
     20          6           0       -0.659671    1.220354   -0.374487
     21          1           0       -0.760595    2.311319   -0.309276
     22          6           0        0.851655    0.925269   -0.532171
     23          6           0       -1.448935    0.734816   -1.606036
     24          1           0       -1.311467   -0.345094   -1.702812
     25          1           0       -2.514070    0.925093   -1.427446
     26          8           0        1.316885    0.317193   -1.485274
     27          6           0       -0.976002    1.448861   -2.859659
     28          6           0       -1.102071    2.836151   -2.992431
     29          1           0       -1.639550    3.407724   -2.238733
     30          6           0       -0.317526    0.752154   -3.883617
     31          1           0       -0.186674   -0.320748   -3.792547
     32          6           0       -0.559541    3.520772   -4.089285
     33          1           0       -0.705672    4.590035   -4.217757
     34          6           0        0.220907    1.408739   -4.986718
     35          1           0        0.739151    0.844106   -5.758647
     36          8           0        0.702634    3.527246   -6.089962
     37          1           0        0.915042    2.945336   -6.837687
     38          6           0        0.111840    2.801479   -5.088806
     39          7           0        1.626017    1.520193    0.431438
     40          1           0        1.111149    1.842471    1.246078
     41          6           0        2.890081    0.886759    0.828267
     42          1           0        3.068328    0.059900    0.136225
     43          6           0        2.687404    0.215413    2.202348
     44          6           0        4.112685    1.827461    0.807243
     45          1           0        3.848859    2.790639    1.263614
     46          1           0        4.864149    1.368880    1.459531
     47          8           0        3.339373   -0.736375    2.559717
     48          6           0        4.781058    2.032522   -0.573187
     49          1           0        4.773537    1.081287   -1.121255
     50          1           0        5.836216    2.268793   -0.396477
     51          6           0        4.254670    3.148610   -1.503780
     52          1           0        4.302882    4.116553   -0.985497
     53          1           0        4.942938    3.210699   -2.359252
     54          6           0        2.840495    2.909503   -2.014574
     55          1           0        2.684912    1.894804   -2.383858
     56          1           0        2.098321    3.094024   -1.239548
     57          7           0        2.480214    3.837957   -3.165948
     58          1           0        1.479286    3.715665   -3.433952
     59          1           0        3.036879    3.647421   -4.005995
     60          1           0        2.627425    4.822759   -2.919352
     61          8           0        1.696533    0.787445    2.911031
     62          1           0       -4.795878   -4.401069    1.624444
 ---------------------------------------------------------------------

 SCF Done:  E(RB3LYP) =  -1526.28680852     A.U. after    1 cycles

 Alpha  occ. eigenvalues --  -19.29877 -19.26792 -19.25487 -19.22616 -19.22524
 Alpha  occ. eigenvalues --  -19.21226 -19.21071 -14.60392 -14.48063 -14.45714
 Alpha  occ. eigenvalues --  -14.43954 -10.39667 -10.39643 -10.39528 -10.39466
 Alpha  occ. eigenvalues --  -10.37521 -10.37256 -10.35398 -10.33481 -10.32643
 Alpha  occ. eigenvalues --  -10.32598 -10.31285 -10.30906 -10.30801 -10.30679
 Alpha  occ. eigenvalues --  -10.30529 -10.30137 -10.29928 -10.29194 -10.28888
 Alpha  occ. eigenvalues --  -10.28866  -1.17827  -1.17589  -1.17010  -1.15188
 Alpha  occ. eigenvalues --   -1.14667  -1.14036  -1.08697  -1.08598  -1.04269
 Alpha  occ. eigenvalues --   -1.02408  -1.00230  -0.97249  -0.92976  -0.90523
 Alpha  occ. eigenvalues --   -0.88758  -0.87852  -0.86675  -0.84934  -0.82116
 Alpha  occ. eigenvalues --   -0.80583  -0.77762  -0.76498  -0.73855  -0.73667
 Alpha  occ. eigenvalues --   -0.72954  -0.72388  -0.70763  -0.70278  -0.69198
 Alpha  occ. eigenvalues --   -0.68574  -0.68090  -0.66880  -0.66220  -0.64232
 Alpha  occ. eigenvalues --   -0.63959  -0.62481  -0.60877  -0.59857  -0.59273
 Alpha  occ. eigenvalues --   -0.59100  -0.58261  -0.57624  -0.56204  -0.56021
 Alpha  occ. eigenvalues --   -0.55761  -0.55241  -0.54567  -0.54464  -0.54264
 Alpha  occ. eigenvalues --   -0.53960  -0.53646  -0.53418  -0.53166  -0.52851
 Alpha  occ. eigenvalues --   -0.52297  -0.52158  -0.50928  -0.50385  -0.50259
 Alpha  occ. eigenvalues --   -0.49958  -0.48911  -0.48569  -0.48324  -0.47619
 Alpha  occ. eigenvalues --   -0.47187  -0.46867  -0.46427  -0.46162  -0.45307
 Alpha  occ. eigenvalues --   -0.45165  -0.44688  -0.44429  -0.44270  -0.44130
 Alpha  occ. eigenvalues --   -0.43494  -0.39169  -0.38966  -0.38276  -0.37737
 Alpha  occ. eigenvalues --   -0.37508  -0.37053  -0.36136  -0.35745  -0.34313
 Alpha  occ. eigenvalues --   -0.33659  -0.33322
 Alpha virt. eigenvalues --   -0.12972  -0.11504  -0.11155  -0.09961  -0.08631
 Alpha virt. eigenvalues --   -0.06926  -0.06239  -0.05690  -0.04093  -0.03953
 Alpha virt. eigenvalues --   -0.03344  -0.01932  -0.01413  -0.01036   0.00176

 Mulliken charges:
               1
     1  N   -0.774031
     2  H    0.459870
     3  H    0.338789
     4  H    0.358295
     5  C   -0.060048
     6  H    0.150502
     7  C    0.639206
     8  C   -0.281876
     9  H    0.163323
    10  H    0.193097
    11  O   -0.515082
    12  C   -0.358352
    13  H    0.178041
    14  H    0.169476
    15  C    0.569587
    16  O   -0.441060
    17  O   -0.559122
    18  N   -0.628614
    19  H    0.342146
    20  C   -0.049829
    21  H    0.153657
    22  C    0.629152
    23  C   -0.341920
    24  H    0.195470
    25  H    0.163667
    26  O   -0.521412
    27  C    0.164269
    28  C   -0.183018
    29  H    0.147964
    30  C   -0.145458
    31  H    0.175256
    32  C   -0.263628
    33  H    0.169580
    34  C   -0.201994
    35  H    0.153093
    36  O   -0.648192
    37  H    0.426897
    38  C    0.328374
    39  N   -0.608517
    40  H    0.352422
    41  C   -0.066120
    42  H    0.212036
    43  C    0.598402
    44  C   -0.280297
    45  H    0.147929
    46  H    0.190774
    47  O   -0.451287
    48  C   -0.277567
    49  H    0.167591
    50  H    0.173730
    51  C   -0.286831
    52  H    0.160996
    53  H    0.155063
    54  C   -0.210653
    55  H    0.246032
    56  H    0.212440
    57  N   -0.755033
    58  H    0.422248
    59  H    0.411294
    60  H    0.405140
    61  O   -0.637571
    62  H    0.421703
 Sum of Mulliken charges =   1.00000

 Dipole moment (field-independent basis, Debye):
    X=              5.4211    Y=             13.8548    Z=             -9.2641  Tot=             17.5262
 Quadrupole moment (field-independent basis, Debye-Ang):
   XX=           -157.5573   YY=           -115.7886   ZZ=           -108.2653
   XY=             42.6337   XZ=            -35.3299   YZ=            -43.0392

 Normal termination of Gaussian 16 at Wed Jun  1 23:31:17 2022.
