 Gaussian 16, Revision C.01,
 Gaussian 16:  ES64L-G16RevC.01  3-Jul-2019

 ----------------------------------------------------------------------
 # B3LYP/6-31G* empiricaldispersion=gd3 guess=read geom=check nosymm in
 tegral(ultrafinegrid)
 ----------------------------------------------------------------------

 -----------------------------------------------------
 Candidate Structure: Conf:14 Charge calc in gas phase
 -----------------------------------------------------
 Structure from the checkpoint file:  "conf-14.chk"
 Charge =  1 Multiplicity = 1

                          Input orientation:
 ---------------------------------------------------------------------
 Center     Atomic      Atomic             Coordinates (Angstroms)
 Number     Number       Type             X           Y           Z
 ---------------------------------------------------------------------
      1          7           0        1.809342   -0.355988    2.528136
      2          1           0        2.494816    0.381910    2.108924
      3          1           0        1.911811   -0.464698    3.539021
      4          1           0        2.023562   -1.241564    2.041712
      5          6           0        0.411016    0.020676    2.120718
      6          1           0        0.283869    1.081010    2.357647
      7          6           0        0.416062   -0.235427    0.598514
      8          6           0       -0.618546   -0.848976    2.852226
      9          1           0       -0.480154   -0.747895    3.934507
     10          1           0       -0.438112   -1.899068    2.591026
     11          8           0        1.084995   -1.176909    0.177170
     12          6           0       -2.061276   -0.462382    2.491894
     13          1           0       -2.258006   -0.586999    1.424697
     14          1           0       -2.238143    0.592292    2.746812
     15          6           0       -3.109655   -1.281169    3.227567
     16          8           0       -4.109554   -1.727202    2.722991
     17          8           0       -2.794782   -1.427472    4.538158
     18          7           0       -0.290247    0.609702   -0.175822
     19          1           0       -0.832891    1.342124    0.261775
     20          6           0       -0.232841    0.551112   -1.654137
     21          1           0       -0.677246    1.490766   -1.999066
     22          6           0        1.262711    0.532343   -2.084092
     23          6           0       -1.028878   -0.630866   -2.247040
     24          1           0       -0.411028   -1.529257   -2.178808
     25          1           0       -1.908295   -0.781852   -1.609252
     26          8           0        1.701228   -0.257816   -2.898902
     27          6           0       -1.474674   -0.370768   -3.670672
     28          6           0       -2.667084    0.327126   -3.915972
     29          1           0       -3.282649    0.650481   -3.077903
     30          6           0       -0.716449   -0.789139   -4.769584
     31          1           0        0.218762   -1.311524   -4.601458
     32          6           0       -3.095927    0.604116   -5.209543
     33          1           0       -4.022600    1.136003   -5.399098
     34          6           0       -1.135320   -0.523136   -6.072327
     35          1           0       -0.534868   -0.859204   -6.915599
     36          8           0       -2.792952    0.470438   -7.545548
     37          1           0       -2.189013    0.104797   -8.210582
     38          6           0       -2.326455    0.175850   -6.297723
     39          7           0        2.028587    1.490645   -1.464248
     40          1           0        1.601370    1.979499   -0.686964
     41          6           0        3.460597    1.299553   -1.285110
     42          1           0        3.762784    0.452825   -1.903993
     43          6           0        3.768861    0.939206    0.174706
     44          6           0        4.249809    2.559697   -1.723932
     45          1           0        4.158965    2.623756   -2.812453
     46          1           0        3.748771    3.449014   -1.319355
     47          8           0        4.801951    0.238561    0.384442
     48          6           0        5.732792    2.551895   -1.302868
     49          1           0        6.328518    3.092034   -2.046000
     50          1           0        6.094241    1.517879   -1.306549
     51          6           0        5.981069    3.197706    0.085690
     52          1           0        6.225469    4.257122   -0.044943
     53          1           0        5.063582    3.185882    0.689953
     54          6           0        7.111536    2.545602    0.894340
     55          1           0        7.852682    2.077149    0.242184
     56          1           0        7.628615    3.257552    1.542728
     57          7           0        6.564604    1.450757    1.787805
     58          1           0        7.305504    0.839554    2.140915
     59          1           0        5.796972    0.839712    1.256107
     60          1           0        6.091387    1.861440    2.596604
     61          8           0        3.014391    1.413615    1.083933
     62          1           0       -3.518105   -1.939456    4.948798
 ---------------------------------------------------------------------

 SCF Done:  E(RB3LYP) =  -1526.29176920     A.U. after    1 cycles

 Alpha  occ. eigenvalues --  -19.29110 -19.24850 -19.23386 -19.23223 -19.22873
 Alpha  occ. eigenvalues --  -19.22836 -19.20188 -14.56111 -14.55883 -14.49227
 Alpha  occ. eigenvalues --  -14.44061 -10.42106 -10.41788 -10.40312 -10.39013
 Alpha  occ. eigenvalues --  -10.37454 -10.37156 -10.33462 -10.33170 -10.31816
 Alpha  occ. eigenvalues --  -10.31680 -10.31046 -10.30171 -10.28749 -10.28317
 Alpha  occ. eigenvalues --  -10.26492 -10.24729 -10.24672 -10.24137 -10.24067
 Alpha  occ. eigenvalues --  -10.23758  -1.19836  -1.17496  -1.16349  -1.12190
 Alpha  occ. eigenvalues --   -1.11154  -1.10994  -1.10956  -1.10655  -1.07110
 Alpha  occ. eigenvalues --   -1.05289  -1.00858  -0.93689  -0.91551  -0.90985
 Alpha  occ. eigenvalues --   -0.87815  -0.86274  -0.84850  -0.81317  -0.80001
 Alpha  occ. eigenvalues --   -0.79639  -0.77032  -0.74838  -0.73306  -0.71830
 Alpha  occ. eigenvalues --   -0.71364  -0.71185  -0.70872  -0.69519  -0.68972
 Alpha  occ. eigenvalues --   -0.68166  -0.67523  -0.66654  -0.64755  -0.64405
 Alpha  occ. eigenvalues --   -0.63511  -0.62247  -0.61360  -0.59637  -0.59347
 Alpha  occ. eigenvalues --   -0.58786  -0.58177  -0.57320  -0.57031  -0.56622
 Alpha  occ. eigenvalues --   -0.56318  -0.55770  -0.55404  -0.54969  -0.53974
 Alpha  occ. eigenvalues --   -0.53616  -0.52767  -0.52259  -0.51777  -0.51624
 Alpha  occ. eigenvalues --   -0.51440  -0.50397  -0.49332  -0.49270  -0.49185
 Alpha  occ. eigenvalues --   -0.48698  -0.48264  -0.47847  -0.47563  -0.47361
 Alpha  occ. eigenvalues --   -0.46728  -0.46083  -0.45585  -0.45359  -0.44611
 Alpha  occ. eigenvalues --   -0.43916  -0.42852  -0.42606  -0.41665  -0.41163
 Alpha  occ. eigenvalues --   -0.39542  -0.39028  -0.38960  -0.38549  -0.38129
 Alpha  occ. eigenvalues --   -0.37815  -0.37326  -0.36713  -0.33671  -0.33251
 Alpha  occ. eigenvalues --   -0.30423  -0.27046
 Alpha virt. eigenvalues --   -0.11578  -0.09496  -0.08916  -0.08346  -0.07341
 Alpha virt. eigenvalues --   -0.07268  -0.05482  -0.04733  -0.04151  -0.03548
 Alpha virt. eigenvalues --   -0.01928  -0.01698  -0.01356  -0.00463  -0.00092

 Mulliken charges:
               1
     1  N   -0.767663
     2  H    0.437168
     3  H    0.385977
     4  H    0.410862
     5  C   -0.110741
     6  H    0.192438
     7  C    0.664922
     8  C   -0.283922
     9  H    0.186285
    10  H    0.190381
    11  O   -0.519403
    12  C   -0.374893
    13  H    0.201386
    14  H    0.181956
    15  C    0.583268
    16  O   -0.426885
    17  O   -0.566183
    18  N   -0.626815
    19  H    0.344938
    20  C   -0.061478
    21  H    0.186390
    22  C    0.621748
    23  C   -0.351526
    24  H    0.193756
    25  H    0.147095
    26  O   -0.485778
    27  C    0.140349
    28  C   -0.191017
    29  H    0.114679
    30  C   -0.175847
    31  H    0.162916
    32  C   -0.155963
    33  H    0.147626
    34  C   -0.195697
    35  H    0.128447
    36  O   -0.636007
    37  H    0.412437
    38  C    0.353626
    39  N   -0.586154
    40  H    0.320990
    41  C   -0.043654
    42  H    0.209278
    43  C    0.619271
    44  C   -0.279353
    45  H    0.181340
    46  H    0.147077
    47  O   -0.597666
    48  C   -0.290558
    49  H    0.167008
    50  H    0.169935
    51  C   -0.306397
    52  H    0.184710
    53  H    0.165269
    54  C   -0.183456
    55  H    0.211941
    56  H    0.197404
    57  N   -0.767810
    58  H    0.394262
    59  H    0.450964
    60  H    0.386699
    61  O   -0.638857
    62  H    0.428924
 Sum of Mulliken charges =   1.00000

 Dipole moment (field-independent basis, Debye):
    X=             17.7163    Y=              6.9614    Z=             12.2155  Tot=             22.6174
 Quadrupole moment (field-independent basis, Debye-Ang):
   XX=            -57.2430   YY=           -163.5952   ZZ=           -118.2684
   XY=             35.5248   XZ=             30.0746   YZ=             -0.0448

 Normal termination of Gaussian 16 at Wed Jun  1 23:31:15 2022.
