 Gaussian 16, Revision C.01,
 Gaussian 16:  ES64L-G16RevC.01  3-Jul-2019

 ----------------------------------------------------------------------
 # B3LYP/6-31G* empiricaldispersion=gd3 guess=read geom=check nosymm in
 tegral(ultrafinegrid)
 ----------------------------------------------------------------------

 ------------------------------------------------------
 Candidate Structure: Conf:669 Charge calc in gas phase
 ------------------------------------------------------
 Structure from the checkpoint file:  "conf-669.chk"
 Charge =  1 Multiplicity = 1

                          Input orientation:
 ---------------------------------------------------------------------
 Center     Atomic      Atomic             Coordinates (Angstroms)
 Number     Number       Type             X           Y           Z
 ---------------------------------------------------------------------
      1          7           0       -3.890988   -2.610595    1.778802
      2          1           0       -4.268904   -3.529451    1.532110
      3          1           0       -4.228370   -2.348687    2.709531
      4          1           0       -4.210001   -1.908841    1.056078
      5          6           0       -2.378719   -2.532161    1.656740
      6          1           0       -1.976476   -3.546791    1.713220
      7          6           0       -2.176567   -1.884294    0.267163
      8          6           0       -1.799167   -1.634583    2.769455
      9          1           0       -0.720723   -1.548919    2.604769
     10          1           0       -1.923480   -2.150234    3.730589
     11          8           0       -3.133234   -1.275487   -0.226811
     12          6           0       -2.410085   -0.225761    2.819416
     13          1           0       -3.480128   -0.233594    3.055340
     14          1           0       -2.285750    0.286802    1.857365
     15          6           0       -1.744097    0.710922    3.829951
     16          8           0       -2.368337    1.509255    4.483174
     17          8           0       -0.412888    0.548190    3.828891
     18          7           0       -0.945290   -1.958145   -0.252652
     19          1           0       -0.216590   -2.435795    0.273586
     20          6           0       -0.403655   -0.900290   -1.127821
     21          1           0       -1.207585   -0.181970   -1.300100
     22          6           0        0.745441   -0.300915   -0.293687
     23          6           0        0.138039   -1.423485   -2.470391
     24          1           0        0.815037   -2.258048   -2.265801
     25          1           0       -0.693880   -1.800165   -3.075157
     26          8           0        1.706645   -1.026936   -0.013477
     27          6           0        0.886303   -0.315891   -3.188951
     28          6           0        0.206738    0.660974   -3.928206
     29          1           0       -0.871465    0.591592   -4.049176
     30          6           0        2.277219   -0.202497   -3.054233
     31          1           0        2.813329   -0.922925   -2.445300
     32          6           0        0.890259    1.718259   -4.534087
     33          1           0        0.367321    2.451825   -5.140350
     34          6           0        2.974715    0.848391   -3.648478
     35          1           0        4.053033    0.927431   -3.530675
     36          8           0        2.937490    2.876042   -4.998410
     37          1           0        3.826607    2.588223   -5.263659
     38          6           0        2.272585    1.795320   -4.390742
     39          7           0        0.557653    0.963908    0.079657
     40          1           0       -0.378120    1.390749    0.052116
     41          6           0        1.344933    1.670809    1.084101
     42          1           0        1.878831    0.947136    1.703428
     43          6           0        0.302233    2.438036    1.967964
     44          6           0        2.345152    2.626256    0.416361
     45          1           0        2.903667    3.145724    1.202222
     46          1           0        3.059759    2.027970   -0.166069
     47          8           0        0.723708    2.805269    3.090701
     48          6           0        1.633578    3.629748   -0.505499
     49          1           0        1.183383    4.433561    0.088106
     50          1           0        0.807389    3.116300   -1.011265
     51          6           0        2.554246    4.201535   -1.590293
     52          1           0        3.362115    4.801622   -1.149226
     53          1           0        3.018883    3.365303   -2.129746
     54          6           0        1.752290    5.041626   -2.575701
     55          1           0        0.883528    4.493145   -2.948653
     56          1           0        1.419889    5.991424   -2.150063
     57          7           0        2.589429    5.359397   -3.807943
     58          1           0        2.097526    5.974317   -4.464596
     59          1           0        2.817379    4.459836   -4.305581
     60          1           0        3.465958    5.821369   -3.543934
     61          8           0       -0.844748    2.556287    1.460216
     62          1           0        0.029466    1.439070    3.972045
 ---------------------------------------------------------------------

 SCF Done:  E(RB3LYP) =  -1526.24299652     A.U. after    2 cycles

 Alpha  occ. eigenvalues --  -19.32291 -19.26203 -19.21734 -19.18978 -19.17609
 Alpha  occ. eigenvalues --  -19.12844 -19.11747 -14.59750 -14.59415 -14.49038
 Alpha  occ. eigenvalues --  -14.42050 -10.42872 -10.39833 -10.38202 -10.36523
 Alpha  occ. eigenvalues --  -10.36441 -10.36116 -10.33424 -10.31773 -10.30988
 Alpha  occ. eigenvalues --  -10.30516 -10.30173 -10.30149 -10.29959 -10.29887
 Alpha  occ. eigenvalues --  -10.29381 -10.29054 -10.28275 -10.27069 -10.26654
 Alpha  occ. eigenvalues --  -10.25287  -1.18990  -1.18577  -1.14129  -1.13323
 Alpha  occ. eigenvalues --   -1.13241  -1.10927  -1.06016  -1.05336  -1.04880
 Alpha  occ. eigenvalues --   -0.99268  -0.96800  -0.96436  -0.92836  -0.91945
 Alpha  occ. eigenvalues --   -0.89467  -0.85734  -0.85507  -0.84791  -0.82825
 Alpha  occ. eigenvalues --   -0.79334  -0.76689  -0.75494  -0.74305  -0.73584
 Alpha  occ. eigenvalues --   -0.73201  -0.72679  -0.71921  -0.71141  -0.70480
 Alpha  occ. eigenvalues --   -0.69695  -0.68108  -0.65940  -0.65455  -0.65306
 Alpha  occ. eigenvalues --   -0.63845  -0.62120  -0.61562  -0.60726  -0.59909
 Alpha  occ. eigenvalues --   -0.58916  -0.58640  -0.57327  -0.56938  -0.56443
 Alpha  occ. eigenvalues --   -0.55112  -0.54944  -0.54209  -0.53488  -0.53365
 Alpha  occ. eigenvalues --   -0.53169  -0.52966  -0.52243  -0.51962  -0.51490
 Alpha  occ. eigenvalues --   -0.50723  -0.50238  -0.49740  -0.49244  -0.48852
 Alpha  occ. eigenvalues --   -0.48304  -0.47395  -0.47029  -0.46274  -0.45966
 Alpha  occ. eigenvalues --   -0.45309  -0.45004  -0.44730  -0.44574  -0.43955
 Alpha  occ. eigenvalues --   -0.43180  -0.42873  -0.41571  -0.41272  -0.40879
 Alpha  occ. eigenvalues --   -0.40387  -0.38945  -0.38858  -0.35966  -0.34868
 Alpha  occ. eigenvalues --   -0.34087  -0.33389  -0.32660  -0.31238  -0.28336
 Alpha  occ. eigenvalues --   -0.27251  -0.25736
 Alpha virt. eigenvalues --   -0.12136  -0.11723  -0.10959  -0.10560  -0.10220
 Alpha virt. eigenvalues --   -0.06120  -0.05764  -0.05188  -0.05020  -0.03565
 Alpha virt. eigenvalues --   -0.03439  -0.02782  -0.01186  -0.00568  -0.00407

 Mulliken charges:
               1
     1  N   -0.749802
     2  H    0.415518
     3  H    0.420127
     4  H    0.434789
     5  C   -0.125662
     6  H    0.210108
     7  C    0.645298
     8  C   -0.307689
     9  H    0.224917
    10  H    0.182340
    11  O   -0.527735
    12  C   -0.393257
    13  H    0.142613
    14  H    0.219397
    15  C    0.617953
    16  O   -0.437186
    17  O   -0.615650
    18  N   -0.585955
    19  H    0.361218
    20  C   -0.059391
    21  H    0.185615
    22  C    0.603783
    23  C   -0.348540
    24  H    0.175924
    25  H    0.168699
    26  O   -0.561327
    27  C    0.149836
    28  C   -0.187306
    29  H    0.154270
    30  C   -0.170373
    31  H    0.185179
    32  C   -0.163127
    33  H    0.147483
    34  C   -0.177505
    35  H    0.148889
    36  O   -0.706445
    37  H    0.436512
    38  C    0.324945
    39  N   -0.593449
    40  H    0.354134
    41  C   -0.078266
    42  H    0.173221
    43  C    0.612523
    44  C   -0.263407
    45  H    0.173995
    46  H    0.132737
    47  O   -0.614740
    48  C   -0.274439
    49  H    0.181542
    50  H    0.151571
    51  C   -0.296726
    52  H    0.163694
    53  H    0.157716
    54  C   -0.199170
    55  H    0.213213
    56  H    0.219372
    57  N   -0.767439
    58  H    0.410692
    59  H    0.446453
    60  H    0.406337
    61  O   -0.602096
    62  H    0.454065
 Sum of Mulliken charges =   1.00000

 Dipole moment (field-independent basis, Debye):
    X=              1.2345    Y=              2.5344    Z=            -17.4748  Tot=             17.7008
 Quadrupole moment (field-independent basis, Debye-Ang):
   XX=           -105.0169   YY=            -61.5645   ZZ=           -133.0641
   XY=             96.3965   XZ=            -62.3685   YZ=           -115.1034

 Normal termination of Gaussian 16 at Wed Jun  1 23:31:28 2022.
