 Gaussian 16, Revision C.01,
 Gaussian 16:  ES64L-G16RevC.01  3-Jul-2019

 ----------------------------------------------------------------------
 # B3LYP/6-31G* empiricaldispersion=gd3 guess=read geom=check nosymm in
 tegral(ultrafinegrid)
 ----------------------------------------------------------------------

 ------------------------------------------------------
 Candidate Structure: Conf:306 Charge calc in gas phase
 ------------------------------------------------------
 Structure from the checkpoint file:  "conf-306.chk"
 Charge =  1 Multiplicity = 1

                          Input orientation:
 ---------------------------------------------------------------------
 Center     Atomic      Atomic             Coordinates (Angstroms)
 Number     Number       Type             X           Y           Z
 ---------------------------------------------------------------------
      1          7           0        0.994031   -1.054131    3.104469
      2          1           0        1.875020    0.330887    2.604606
      3          1           0        0.824373   -1.246962    4.089091
      4          1           0        1.570656   -1.808041    2.725732
      5          6           0       -0.272660   -1.011641    2.343364
      6          1           0       -0.814604   -0.112650    2.665271
      7          6           0        0.124496   -0.891023    0.863588
      8          6           0       -1.179715   -2.245892    2.507878
      9          1           0       -0.642094   -3.129656    2.144707
     10          1           0       -2.058499   -2.136866    1.861948
     11          8           0        1.074451   -1.532958    0.425973
     12          6           0       -1.652050   -2.470202    3.945144
     13          1           0       -2.092570   -1.554545    4.365511
     14          1           0       -0.831454   -2.748564    4.616338
     15          6           0       -2.712428   -3.553008    4.027040
     16          8           0       -3.308870   -4.021397    3.084358
     17          8           0       -2.929984   -3.924670    5.308802
     18          7           0       -0.607136   -0.037973    0.095468
     19          1           0       -1.431556    0.392721    0.491066
     20          6           0       -0.351250    0.137857   -1.344789
     21          1           0       -0.883147    1.052890   -1.631206
     22          6           0        1.165117    0.386171   -1.560346
     23          6           0       -0.873751   -1.035673   -2.204725
     24          1           0       -0.140219   -1.844305   -2.160090
     25          1           0       -1.791989   -1.397309   -1.727149
     26          8           0        1.816196   -0.185446   -2.415688
     27          6           0       -1.173028   -0.636623   -3.634824
     28          6           0       -0.220272   -0.765803   -4.656241
     29          1           0        0.760209   -1.159849   -4.413862
     30          6           0       -2.424802   -0.105370   -3.967453
     31          1           0       -3.189771   -0.006747   -3.199047
     32          6           0       -0.506478   -0.380417   -5.961789
     33          1           0        0.227781   -0.486281   -6.754139
     34          6           0       -2.725914    0.289680   -5.270875
     35          1           0       -3.708627    0.693060   -5.508414
     36          8           0       -1.984422    0.513164   -7.574547
     37          1           0       -2.894823    0.834251   -7.666569
     38          6           0       -1.762516    0.151034   -6.275268
     39          7           0        1.710208    1.325570   -0.704517
     40          1           0        1.105511    1.594782    0.063330
     41          6           0        3.094353    1.144904   -0.280214
     42          1           0        3.521039    0.360361   -0.910691
     43          6           0        3.150930    0.623168    1.164411
     44          6           0        3.935760    2.425639   -0.445249
     45          1           0        3.764237    2.801664   -1.460770
     46          1           0        3.577610    3.197021    0.250263
     47          8           0        4.066099   -0.056728    1.581630
     48          6           0        5.430159    2.157099   -0.223453
     49          1           0        5.764616    1.390858   -0.935475
     50          1           0        5.588150    1.737136    0.776108
     51          6           0        6.283612    3.422936   -0.400259
     52          1           0        6.135132    3.834395   -1.408750
     53          1           0        5.962892    4.190320    0.318458
     54          6           0        7.754331    3.096527   -0.185812
     55          1           0        7.957847    2.733690    0.824656
     56          1           0        8.128793    2.366539   -0.907678
     57          7           0        8.622033    4.349317   -0.367396
     58          1           0        9.621693    4.156372   -0.228479
     59          1           0        8.348575    5.082526    0.298463
     60          1           0        8.506112    4.739353   -1.310978
     61          8           0        2.103314    1.029011    1.895750
     62          1           0       -3.633874   -4.600957    5.291708
 ---------------------------------------------------------------------

 SCF Done:  E(RB3LYP) =  -1526.26337703     A.U. after    1 cycles

 Alpha  occ. eigenvalues --  -19.25736 -19.23998 -19.21991 -19.20226 -19.20158
 Alpha  occ. eigenvalues --  -19.19649 -19.18397 -14.65479 -14.44711 -14.42422
 Alpha  occ. eigenvalues --  -14.41886 -10.42250 -10.38533 -10.38266 -10.36812
 Alpha  occ. eigenvalues --  -10.35477 -10.34693 -10.31441 -10.30802 -10.30706
 Alpha  occ. eigenvalues --  -10.30535 -10.29103 -10.28709 -10.27715 -10.26842
 Alpha  occ. eigenvalues --  -10.24384 -10.23641 -10.23388 -10.23286 -10.22724
 Alpha  occ. eigenvalues --  -10.22446  -1.19305  -1.16652  -1.15646  -1.11962
 Alpha  occ. eigenvalues --   -1.10145  -1.10004  -1.07790  -1.07221  -1.00891
 Alpha  occ. eigenvalues --   -0.98999  -0.98444  -0.95773  -0.89642  -0.88658
 Alpha  occ. eigenvalues --   -0.87047  -0.84718  -0.82640  -0.80252  -0.78868
 Alpha  occ. eigenvalues --   -0.78706  -0.77917  -0.77333  -0.74961  -0.72276
 Alpha  occ. eigenvalues --   -0.71067  -0.70369  -0.67701  -0.67008  -0.66336
 Alpha  occ. eigenvalues --   -0.66299  -0.65324  -0.63984  -0.63208  -0.62760
 Alpha  occ. eigenvalues --   -0.61940  -0.59487  -0.58412  -0.58004  -0.57056
 Alpha  occ. eigenvalues --   -0.56546  -0.56525  -0.55471  -0.55237  -0.54317
 Alpha  occ. eigenvalues --   -0.54052  -0.53415  -0.53064  -0.52232  -0.51844
 Alpha  occ. eigenvalues --   -0.51248  -0.50661  -0.50482  -0.49741  -0.49432
 Alpha  occ. eigenvalues --   -0.48341  -0.47948  -0.47663  -0.47420  -0.46922
 Alpha  occ. eigenvalues --   -0.46372  -0.46057  -0.45791  -0.44983  -0.44735
 Alpha  occ. eigenvalues --   -0.44586  -0.44334  -0.43875  -0.43490  -0.43184
 Alpha  occ. eigenvalues --   -0.42417  -0.41971  -0.41461  -0.39651  -0.38011
 Alpha  occ. eigenvalues --   -0.37780  -0.37519  -0.37088  -0.35589  -0.35244
 Alpha  occ. eigenvalues --   -0.34240  -0.33856  -0.33040  -0.31670  -0.31252
 Alpha  occ. eigenvalues --   -0.29256  -0.25915
 Alpha virt. eigenvalues --   -0.15866  -0.09151  -0.09131  -0.06984  -0.06652
 Alpha virt. eigenvalues --   -0.05904  -0.05233  -0.04862  -0.04222  -0.03189
 Alpha virt. eigenvalues --   -0.02857  -0.01762  -0.01061  -0.00522   0.00289

 Mulliken charges:
               1
     1  N   -0.780071
     2  H    0.457394
     3  H    0.333249
     4  H    0.355099
     5  C   -0.071803
     6  H    0.145136
     7  C    0.647003
     8  C   -0.265230
     9  H    0.179288
    10  H    0.173295
    11  O   -0.525542
    12  C   -0.370869
    13  H    0.181709
    14  H    0.173470
    15  C    0.586592
    16  O   -0.448669
    17  O   -0.564202
    18  N   -0.634591
    19  H    0.336639
    20  C   -0.053391
    21  H    0.173281
    22  C    0.620329
    23  C   -0.347295
    24  H    0.192108
    25  H    0.144345
    26  O   -0.495334
    27  C    0.143379
    28  C   -0.176544
    29  H    0.160760
    30  C   -0.191600
    31  H    0.115632
    32  C   -0.162253
    33  H    0.141749
    34  C   -0.192275
    35  H    0.121718
    36  O   -0.639848
    37  H    0.409173
    38  C    0.350927
    39  N   -0.598989
    40  H    0.342594
    41  C   -0.053877
    42  H    0.207329
    43  C    0.601285
    44  C   -0.275405
    45  H    0.167347
    46  H    0.148499
    47  O   -0.478453
    48  C   -0.283201
    49  H    0.166393
    50  H    0.187132
    51  C   -0.292072
    52  H    0.168556
    53  H    0.167472
    54  C   -0.207734
    55  H    0.234520
    56  H    0.233215
    57  N   -0.732187
    58  H    0.432348
    59  H    0.427489
    60  H    0.428059
    61  O   -0.632952
    62  H    0.419873
 Sum of Mulliken charges =   1.00000

 Dipole moment (field-independent basis, Debye):
    X=             29.4844    Y=             19.4813    Z=              3.7013  Tot=             35.5324
 Quadrupole moment (field-independent basis, Debye-Ang):
   XX=            137.4691   YY=            -96.1892   ZZ=           -159.8019
   XY=            157.1852   XZ=            -11.9861   YZ=            -24.9184

 Normal termination of Gaussian 16 at Wed Jun  1 23:31:15 2022.
