 Gaussian 16, Revision C.01,
 Gaussian 16:  ES64L-G16RevC.01  3-Jul-2019

 ----------------------------------------------------------------------
 # B3LYP/6-31G* empiricaldispersion=gd3 guess=read geom=check nosymm in
 tegral(ultrafinegrid)
 ----------------------------------------------------------------------

 ------------------------------------------------------
 Candidate Structure: Conf:549 Charge calc in gas phase
 ------------------------------------------------------
 Structure from the checkpoint file:  "conf-549.chk"
 Charge =  1 Multiplicity = 1

                          Input orientation:
 ---------------------------------------------------------------------
 Center     Atomic      Atomic             Coordinates (Angstroms)
 Number     Number       Type             X           Y           Z
 ---------------------------------------------------------------------
      1          7           0        0.931861   -1.670558    3.216707
      2          1           0        1.574395   -0.813909    3.233771
      3          1           0        0.809084   -2.074325    4.147507
      4          1           0        1.396896   -2.340958    2.587733
      5          6           0       -0.370011   -1.273288    2.563102
      6          1           0       -0.750859   -0.414669    3.123427
      7          6           0        0.057107   -0.883017    1.135578
      8          6           0       -1.374583   -2.425847    2.520333
      9          1           0       -0.925673   -3.271945    1.987011
     10          1           0       -2.215468   -2.109636    1.894897
     11          8           0        0.998460   -1.488133    0.624164
     12          6           0       -1.910744   -2.878287    3.879045
     13          1           0       -2.352055   -2.043529    4.438836
     14          1           0       -1.137628   -3.308969    4.529378
     15          6           0       -2.988418   -3.937168    3.690062
     16          8           0       -3.401331   -4.312512    2.616471
     17          8           0       -3.423129   -4.398834    4.876291
     18          7           0       -0.609030    0.131904    0.551825
     19          1           0       -1.488613    0.432462    0.951266
     20          6           0       -0.298240    0.552307   -0.828728
     21          1           0       -0.859302    1.481123   -0.980370
     22          6           0        1.216073    0.870930   -0.912711
     23          6           0       -0.732128   -0.491064   -1.882135
     24          1           0       -0.628924   -0.025935   -2.867333
     25          1           0       -0.023561   -1.321878   -1.849543
     26          8           0        1.909529    0.487383   -1.837452
     27          6           0       -2.143043   -0.964619   -1.621651
     28          6           0       -2.374014   -2.126087   -0.868222
     29          1           0       -1.525900   -2.736307   -0.565222
     30          6           0       -3.254517   -0.214994   -2.023024
     31          1           0       -3.111999    0.684563   -2.618387
     32          6           0       -3.657960   -2.522397   -0.503230
     33          1           0       -3.826505   -3.413432    0.093526
     34          6           0       -4.550526   -0.601242   -1.679391
     35          1           0       -5.401431   -0.009150   -2.010188
     36          8           0       -5.991617   -2.179433   -0.523614
     37          1           0       -6.672269   -1.609122   -0.914272
     38          6           0       -4.756471   -1.753605   -0.910696
     39          7           0        1.695937    1.621338    0.140760
     40          1           0        1.057308    1.755466    0.916095
     41          6           0        3.077265    1.438175    0.565187
     42          1           0        3.581677    0.952654   -0.270071
     43          6           0        3.078671    0.500635    1.783271
     44          6           0        3.787831    2.761532    0.901015
     45          1           0        3.624033    3.437957    0.054286
     46          1           0        3.297890    3.213974    1.772233
     47          8           0        4.048350   -0.352392    1.927151
     48          6           0        5.295126    2.607805    1.167873
     49          1           0        5.455790    1.908654    1.998945
     50          1           0        5.665681    3.574155    1.524694
     51          6           0        6.129182    2.167861   -0.066251
     52          1           0        5.514280    2.196382   -0.977428
     53          1           0        6.932696    2.892238   -0.238283
     54          6           0        6.796712    0.793569    0.043059
     55          1           0        7.529052    0.673602   -0.765346
     56          1           0        7.339308    0.715444    0.991425
     57          7           0        5.810661   -0.323023    0.011689
     58          1           0        6.301442   -1.214599    0.098152
     59          1           0        5.350626   -0.350351   -0.900904
     60          1           0        4.757298   -0.317997    1.128530
     61          8           0        2.156890    0.580346    2.613354
     62          1           0       -4.117025   -5.062875    4.697848
 ---------------------------------------------------------------------

 SCF Done:  E(RB3LYP) =  -1526.31495432     A.U. after    1 cycles

 Alpha  occ. eigenvalues --  -19.29684 -19.28240 -19.25664 -19.25451 -19.25278
 Alpha  occ. eigenvalues --  -19.24413 -19.21804 -14.57425 -14.49701 -14.46690
 Alpha  occ. eigenvalues --  -14.45441 -10.43156 -10.42881 -10.42809 -10.39625
 Alpha  occ. eigenvalues --  -10.38961 -10.34652 -10.33737 -10.32918 -10.32829
 Alpha  occ. eigenvalues --  -10.32823 -10.32379 -10.28854 -10.28614 -10.28302
 Alpha  occ. eigenvalues --  -10.27761 -10.27318 -10.27259 -10.27165 -10.26948
 Alpha  occ. eigenvalues --  -10.26279  -1.20757  -1.20506  -1.18185  -1.13710
 Alpha  occ. eigenvalues --   -1.13415  -1.12550  -1.11989  -1.11436  -1.06093
 Alpha  occ. eigenvalues --   -1.02409  -1.01840  -0.94164  -0.93457  -0.90491
 Alpha  occ. eigenvalues --   -0.88940  -0.86258  -0.85417  -0.82768  -0.82097
 Alpha  occ. eigenvalues --   -0.79465  -0.78062  -0.74891  -0.73063  -0.72928
 Alpha  occ. eigenvalues --   -0.72555  -0.71428  -0.70587  -0.70029  -0.69376
 Alpha  occ. eigenvalues --   -0.68361  -0.67909  -0.66922  -0.65602  -0.63840
 Alpha  occ. eigenvalues --   -0.62981  -0.62260  -0.62064  -0.60686  -0.59890
 Alpha  occ. eigenvalues --   -0.58949  -0.58397  -0.58152  -0.57956  -0.57860
 Alpha  occ. eigenvalues --   -0.57374  -0.55858  -0.55264  -0.54957  -0.54709
 Alpha  occ. eigenvalues --   -0.54245  -0.53920  -0.52826  -0.52469  -0.52245
 Alpha  occ. eigenvalues --   -0.51697  -0.50868  -0.50554  -0.50021  -0.49761
 Alpha  occ. eigenvalues --   -0.49608  -0.49351  -0.48931  -0.48289  -0.48024
 Alpha  occ. eigenvalues --   -0.47859  -0.47096  -0.46642  -0.46009  -0.44837
 Alpha  occ. eigenvalues --   -0.44073  -0.43560  -0.43305  -0.42852  -0.42004
 Alpha  occ. eigenvalues --   -0.41785  -0.41486  -0.40703  -0.40143  -0.39859
 Alpha  occ. eigenvalues --   -0.39079  -0.38615  -0.38052  -0.35641  -0.35026
 Alpha  occ. eigenvalues --   -0.33278  -0.29651
 Alpha virt. eigenvalues --   -0.12597  -0.10367  -0.09817  -0.08923  -0.08160
 Alpha virt. eigenvalues --   -0.07918  -0.07021  -0.04650  -0.03994  -0.02829
 Alpha virt. eigenvalues --   -0.01943  -0.01330  -0.00136   0.00202   0.00294

 Mulliken charges:
               1
     1  N   -0.757447
     2  H    0.446569
     3  H    0.398742
     4  H    0.410787
     5  C   -0.126337
     6  H    0.199760
     7  C    0.677420
     8  C   -0.287647
     9  H    0.190639
    10  H    0.215443
    11  O   -0.536797
    12  C   -0.380723
    13  H    0.199086
    14  H    0.171857
    15  C    0.599548
    16  O   -0.438040
    17  O   -0.557261
    18  N   -0.621650
    19  H    0.354057
    20  C   -0.065891
    21  H    0.186474
    22  C    0.625198
    23  C   -0.359416
    24  H    0.181149
    25  H    0.191603
    26  O   -0.496549
    27  C    0.158449
    28  C   -0.223039
    29  H    0.135264
    30  C   -0.201063
    31  H    0.138240
    32  C   -0.175466
    33  H    0.179374
    34  C   -0.190356
    35  H    0.137554
    36  O   -0.631506
    37  H    0.415781
    38  C    0.347557
    39  N   -0.586609
    40  H    0.335802
    41  C   -0.074009
    42  H    0.178685
    43  C    0.653770
    44  C   -0.279109
    45  H    0.176394
    46  H    0.158729
    47  O   -0.598545
    48  C   -0.291648
    49  H    0.150755
    50  H    0.170565
    51  C   -0.281501
    52  H    0.156900
    53  H    0.174738
    54  C   -0.154881
    55  H    0.169995
    56  H    0.175970
    57  N   -0.802263
    58  H    0.353171
    59  H    0.355153
    60  H    0.491399
    61  O   -0.576403
    62  H    0.431581
 Sum of Mulliken charges =   1.00000

 Dipole moment (field-independent basis, Debye):
    X=              5.2756    Y=             -2.1927    Z=             10.0436  Tot=             11.5548
 Quadrupole moment (field-independent basis, Debye-Ang):
   XX=            -79.8703   YY=           -155.5424   ZZ=           -142.2513
   XY=              5.1999   XZ=             -1.5149   YZ=            -28.2864

 Normal termination of Gaussian 16 at Wed Jun  1 23:31:17 2022.
