 Gaussian 16, Revision C.01,
 Gaussian 16:  ES64L-G16RevC.01  3-Jul-2019

 ----------------------------------------------------------------------
 # B3LYP/6-31G* empiricaldispersion=gd3 guess=read geom=check nosymm in
 tegral(ultrafinegrid)
 ----------------------------------------------------------------------

 ------------------------------------------------------
 Candidate Structure: Conf:472 Charge calc in gas phase
 ------------------------------------------------------
 Structure from the checkpoint file:  "conf-472.chk"
 Charge =  1 Multiplicity = 1

                          Input orientation:
 ---------------------------------------------------------------------
 Center     Atomic      Atomic             Coordinates (Angstroms)
 Number     Number       Type             X           Y           Z
 ---------------------------------------------------------------------
      1          7           0        1.116015   -0.802255    3.288011
      2          1           0        2.076829    0.538392    2.794270
      3          1           0        0.993758   -1.052483    4.267627
      4          1           0        1.595474   -1.572776    2.818224
      5          6           0       -0.189743   -0.595197    2.629679
      6          1           0       -0.611154    0.337812    3.013979
      7          6           0        0.105696   -0.449961    1.125620
      8          6           0       -1.179899   -1.755372    2.872179
      9          1           0       -1.335228   -1.865012    3.953086
     10          1           0       -0.718602   -2.682750    2.513072
     11          8           0        0.975378   -1.143394    0.600765
     12          6           0       -2.551321   -1.603576    2.171829
     13          1           0       -3.176883   -2.467924    2.405721
     14          1           0       -2.410747   -1.562681    1.087278
     15          6           0       -3.262641   -0.335287    2.586447
     16          8           0       -2.977418    0.786237    2.196045
     17          8           0       -4.239449   -0.555763    3.480661
     18          7           0       -0.614048    0.488581    0.460067
     19          1           0       -1.428020    0.880874    0.930231
     20          6           0       -0.446088    0.714464   -0.982086
     21          1           0       -0.933703    1.674033   -1.191638
     22          6           0        1.062920    0.871535   -1.298761
     23          6           0       -1.105287   -0.380653   -1.850314
     24          1           0       -0.446081   -1.252144   -1.858613
     25          1           0       -2.033647   -0.671160   -1.342126
     26          8           0        1.611951    0.304692   -2.226593
     27          6           0       -1.429383    0.083253   -3.254001
     28          6           0       -2.599546    0.817843   -3.498261
     29          1           0       -3.279419    1.031145   -2.674848
     30          6           0       -0.583695   -0.185018   -4.335455
     31          1           0        0.338732   -0.728478   -4.163273
     32          6           0       -2.923515    1.273040   -4.772491
     33          1           0       -3.832809    1.834777   -4.960906
     34          6           0       -0.896910    0.258546   -5.619715
     35          1           0       -0.229003    0.036601   -6.450392
     36          8           0       -2.432671    1.454417   -7.076215
     37          1           0       -1.777802    1.166698   -7.730958
     38          6           0       -2.068381    0.989879   -5.842973
     39          7           0        1.727767    1.728135   -0.440055
     40          1           0        1.194263    1.992796    0.380852
     41          6           0        3.124602    1.448364   -0.129522
     42          1           0        3.467942    0.697673   -0.845895
     43          6           0        3.250630    0.817332    1.266604
     44          6           0        4.014374    2.700993   -0.249816
     45          1           0        3.805989    3.161904   -1.222573
     46          1           0        3.729425    3.429858    0.521318
     47          8           0        4.134361    0.038338    1.560532
     48          6           0        5.504754    2.355291   -0.132618
     49          1           0        5.771250    1.644927   -0.926543
     50          1           0        5.693355    1.840280    0.816028
     51          6           0        6.401776    3.598689   -0.238067
     52          1           0        6.226832    4.104732   -1.198119
     53          1           0        6.144062    4.309452    0.559904
     54          6           0        7.865628    3.200441   -0.121492
     55          1           0        8.095926    2.736843    0.840886
     56          1           0        8.180728    2.528974   -0.924007
     57          7           0        8.774305    4.433181   -0.224273
     58          1           0        9.770473    4.192792   -0.149156
     59          1           0        8.557609    5.108781    0.518937
     60          1           0        8.634479    4.915166   -1.120918
     61          8           0        2.305179    1.257529    2.108261
     62          1           0       -4.630692    0.310553    3.707315
 ---------------------------------------------------------------------

 SCF Done:  E(RB3LYP) =  -1526.27612892     A.U. after    1 cycles

 Alpha  occ. eigenvalues --  -19.28090 -19.23534 -19.22752 -19.21815 -19.19711
 Alpha  occ. eigenvalues --  -19.18888 -19.17817 -14.65369 -14.42945 -14.41933
 Alpha  occ. eigenvalues --  -14.41324 -10.42122 -10.40800 -10.37797 -10.35876
 Alpha  occ. eigenvalues --  -10.34877 -10.34528 -10.30728 -10.30332 -10.30268
 Alpha  occ. eigenvalues --  -10.29935 -10.28903 -10.28394 -10.28210 -10.28075
 Alpha  occ. eigenvalues --  -10.24161 -10.23240 -10.23132 -10.22876 -10.22744
 Alpha  occ. eigenvalues --  -10.22492  -1.19194  -1.19119  -1.15185  -1.11084
 Alpha  occ. eigenvalues --   -1.09945  -1.09825  -1.09501  -1.06764  -0.99883
 Alpha  occ. eigenvalues --   -0.98377  -0.97902  -0.95611  -0.89419  -0.88415
 Alpha  occ. eigenvalues --   -0.87856  -0.84191  -0.82372  -0.79665  -0.78673
 Alpha  occ. eigenvalues --   -0.78477  -0.77807  -0.77147  -0.74702  -0.72668
 Alpha  occ. eigenvalues --   -0.70815  -0.70386  -0.67652  -0.67155  -0.66317
 Alpha  occ. eigenvalues --   -0.65942  -0.65690  -0.63592  -0.63055  -0.62248
 Alpha  occ. eigenvalues --   -0.61580  -0.59037  -0.58332  -0.57821  -0.57566
 Alpha  occ. eigenvalues --   -0.56813  -0.56273  -0.56159  -0.55189  -0.54365
 Alpha  occ. eigenvalues --   -0.53759  -0.53568  -0.52819  -0.52310  -0.51862
 Alpha  occ. eigenvalues --   -0.51282  -0.50476  -0.49780  -0.49554  -0.48925
 Alpha  occ. eigenvalues --   -0.48414  -0.48239  -0.47351  -0.47037  -0.46907
 Alpha  occ. eigenvalues --   -0.46389  -0.46130  -0.45759  -0.45484  -0.44757
 Alpha  occ. eigenvalues --   -0.44562  -0.44244  -0.43886  -0.43477  -0.43134
 Alpha  occ. eigenvalues --   -0.42976  -0.41552  -0.40903  -0.40163  -0.39726
 Alpha  occ. eigenvalues --   -0.37497  -0.37054  -0.36885  -0.36267  -0.35045
 Alpha  occ. eigenvalues --   -0.34656  -0.33269  -0.32334  -0.31048  -0.30701
 Alpha  occ. eigenvalues --   -0.29082  -0.25651
 Alpha virt. eigenvalues --   -0.15766  -0.09052  -0.09027  -0.07994  -0.06673
 Alpha virt. eigenvalues --   -0.06269  -0.05138  -0.04456  -0.03958  -0.03064
 Alpha virt. eigenvalues --   -0.02494  -0.01620  -0.00345  -0.00089   0.00646

 Mulliken charges:
               1
     1  N   -0.777816
     2  H    0.456756
     3  H    0.327369
     4  H    0.353488
     5  C   -0.061369
     6  H    0.170588
     7  C    0.622671
     8  C   -0.289525
     9  H    0.160107
    10  H    0.178512
    11  O   -0.537790
    12  C   -0.365319
    13  H    0.192955
    14  H    0.195929
    15  C    0.591239
    16  O   -0.479719
    17  O   -0.540609
    18  N   -0.653374
    19  H    0.379313
    20  C   -0.052549
    21  H    0.175163
    22  C    0.618963
    23  C   -0.353760
    24  H    0.186921
    25  H    0.140710
    26  O   -0.500047
    27  C    0.148055
    28  C   -0.191675
    29  H    0.117021
    30  C   -0.171267
    31  H    0.156236
    32  C   -0.157589
    33  H    0.142261
    34  C   -0.198233
    35  H    0.119856
    36  O   -0.640501
    37  H    0.408704
    38  C    0.350358
    39  N   -0.600396
    40  H    0.346314
    41  C   -0.051232
    42  H    0.204722
    43  C    0.600727
    44  C   -0.276064
    45  H    0.166154
    46  H    0.149198
    47  O   -0.480540
    48  C   -0.283145
    49  H    0.165614
    50  H    0.186321
    51  C   -0.291844
    52  H    0.168176
    53  H    0.167519
    54  C   -0.207708
    55  H    0.234495
    56  H    0.232588
    57  N   -0.732169
    58  H    0.431996
    59  H    0.427492
    60  H    0.427766
    61  O   -0.630712
    62  H    0.422693
 Sum of Mulliken charges =   1.00000

 Dipole moment (field-independent basis, Debye):
    X=             31.0371    Y=             17.9122    Z=              3.9159  Tot=             36.0483
 Quadrupole moment (field-independent basis, Debye-Ang):
   XX=            144.3807   YY=            -94.5508   ZZ=           -147.5455
   XY=            167.1959   XZ=            -27.1620   YZ=             -7.7817

 Normal termination of Gaussian 16 at Wed Jun  1 23:31:15 2022.
