 Gaussian 16, Revision C.01,
 Gaussian 16:  ES64L-G16RevC.01  3-Jul-2019

 ----------------------------------------------------------------------
 # B3LYP/6-31G* empiricaldispersion=gd3 guess=read geom=check nosymm in
 tegral(ultrafinegrid)
 ----------------------------------------------------------------------

 ------------------------------------------------------
 Candidate Structure: Conf:446 Charge calc in gas phase
 ------------------------------------------------------
 Structure from the checkpoint file:  "conf-446.chk"
 Charge =  1 Multiplicity = 1

                          Input orientation:
 ---------------------------------------------------------------------
 Center     Atomic      Atomic             Coordinates (Angstroms)
 Number     Number       Type             X           Y           Z
 ---------------------------------------------------------------------
      1          7           0        0.598299   -1.718862    3.082623
      2          1           0        1.558028   -0.279455    3.039541
      3          1           0        0.425518   -2.170628    3.978301
      4          1           0        1.113421   -2.374007    2.492146
      5          6           0       -0.670838   -1.367615    2.413972
      6          1           0       -1.143772   -0.581605    3.016219
      7          6           0       -0.300331   -0.810384    1.031851
      8          6           0       -1.667910   -2.526661    2.216235
      9          1           0       -1.212774   -3.284398    1.569772
     10          1           0       -2.537043   -2.141366    1.671758
     11          8           0        0.590665   -1.321980    0.359938
     12          6           0       -2.135756   -3.169553    3.528087
     13          1           0       -2.471956   -2.420687    4.252011
     14          1           0       -1.316970   -3.732449    3.996609
     15          6           0       -3.289825   -4.138895    3.343788
     16          8           0       -4.217787   -4.262889    4.105815
     17          8           0       -3.153193   -4.879592    2.212581
     18          7           0       -0.984531    0.298364    0.615397
     19          1           0       -1.825390    0.557007    1.113573
     20          6           0       -0.795745    0.860572   -0.725491
     21          1           0       -1.412200    1.766745   -0.757229
     22          6           0        0.679006    1.280155   -0.937183
     23          6           0       -1.254410   -0.087561   -1.868970
     24          1           0       -1.256391    0.494591   -2.795369
     25          1           0       -0.502188   -0.871147   -1.981299
     26          8           0        1.132098    1.354635   -2.092650
     27          6           0       -2.607142   -0.692979   -1.583485
     28          6           0       -2.703614   -1.991847   -1.064160
     29          1           0       -1.797286   -2.575275   -0.923400
     30          6           0       -3.790593    0.034880   -1.754399
     31          1           0       -3.751489    1.042217   -2.165041
     32          6           0       -3.930015   -2.548061   -0.713831
     33          1           0       -3.994374   -3.547264   -0.295251
     34          6           0       -5.029824   -0.507632   -1.414307
     35          1           0       -5.939057    0.071630   -1.561538
     36          8           0       -6.274039   -2.396258   -0.522062
     37          1           0       -7.017470   -1.801691   -0.708576
     38          6           0       -5.103190   -1.803644   -0.887051
     39          7           0        1.375857    1.553499    0.194244
     40          1           0        0.830188    1.451629    1.044802
     41          6           0        2.774922    1.143964    0.428165
     42          1           0        3.014040    0.377546   -0.317659
     43          6           0        2.870939    0.388199    1.763520
     44          6           0        3.799225    2.290679    0.256704
     45          1           0        3.668861    3.058659    1.026821
     46          1           0        4.805300    1.870227    0.356308
     47          8           0        3.807603   -0.334699    2.004927
     48          6           0        3.508384    2.818459   -1.145104
     49          1           0        2.509469    3.269257   -1.095011
     50          1           0        3.396223    1.911323   -1.743468
     51          6           0        4.393260    3.756471   -1.958695
     52          1           0        4.650675    4.679837   -1.427894
     53          1           0        5.335784    3.277131   -2.249506
     54          6           0        3.579377    4.158708   -3.202557
     55          1           0        2.795888    4.874403   -2.941350
     56          1           0        4.188753    4.576803   -4.006830
     57          7           0        2.829691    2.959826   -3.802548
     58          1           0        2.272570    3.248159   -4.613193
     59          1           0        2.184394    2.479248   -3.119112
     60          1           0        3.485541    2.240595   -4.127185
     61          8           0        1.806858    0.585030    2.558244
     62          1           0       -3.918528   -5.485422    2.185380
 ---------------------------------------------------------------------

 SCF Done:  E(RB3LYP) =  -1526.28126412     A.U. after    1 cycles

 Alpha  occ. eigenvalues --  -19.26908 -19.25888 -19.25230 -19.24681 -19.22676
 Alpha  occ. eigenvalues --  -19.21795 -19.20957 -14.60542 -14.47432 -14.46239
 Alpha  occ. eigenvalues --  -14.44174 -10.41163 -10.40273 -10.40032 -10.39610
 Alpha  occ. eigenvalues --  -10.39427 -10.34811 -10.33940 -10.33368 -10.33200
 Alpha  occ. eigenvalues --  -10.32773 -10.30786 -10.29960 -10.28729 -10.28490
 Alpha  occ. eigenvalues --  -10.28174 -10.27383 -10.27206 -10.26937 -10.26866
 Alpha  occ. eigenvalues --  -10.26185  -1.17551  -1.17512  -1.15647  -1.14745
 Alpha  occ. eigenvalues --   -1.14394  -1.13372  -1.09215  -1.08642  -1.04519
 Alpha  occ. eigenvalues --   -1.02635  -1.00353  -0.94326  -0.93416  -0.89900
 Alpha  occ. eigenvalues --   -0.88651  -0.87566  -0.83765  -0.82700  -0.82476
 Alpha  occ. eigenvalues --   -0.80396  -0.77827  -0.75063  -0.74032  -0.73126
 Alpha  occ. eigenvalues --   -0.72184  -0.70399  -0.70161  -0.69760  -0.69074
 Alpha  occ. eigenvalues --   -0.68161  -0.67912  -0.66309  -0.64276  -0.63959
 Alpha  occ. eigenvalues --   -0.62550  -0.62180  -0.61797  -0.60754  -0.58993
 Alpha  occ. eigenvalues --   -0.57597  -0.57196  -0.56760  -0.56331  -0.55761
 Alpha  occ. eigenvalues --   -0.55663  -0.55105  -0.54695  -0.54539  -0.54416
 Alpha  occ. eigenvalues --   -0.53857  -0.53601  -0.52543  -0.52406  -0.51631
 Alpha  occ. eigenvalues --   -0.51511  -0.50860  -0.50323  -0.50126  -0.49622
 Alpha  occ. eigenvalues --   -0.48698  -0.48172  -0.47978  -0.47744  -0.47426
 Alpha  occ. eigenvalues --   -0.46813  -0.46114  -0.45936  -0.45374  -0.45343
 Alpha  occ. eigenvalues --   -0.44857  -0.44319  -0.43970  -0.43168  -0.41469
 Alpha  occ. eigenvalues --   -0.40617  -0.39724  -0.39087  -0.38886  -0.38087
 Alpha  occ. eigenvalues --   -0.37130  -0.36213  -0.36058  -0.34604  -0.34200
 Alpha  occ. eigenvalues --   -0.33107  -0.29606
 Alpha virt. eigenvalues --   -0.11750  -0.11053  -0.09493  -0.08297  -0.07381
 Alpha virt. eigenvalues --   -0.06791  -0.06323  -0.05734  -0.04027  -0.03175
 Alpha virt. eigenvalues --   -0.02315  -0.01515  -0.00590  -0.00233  -0.00047

 Mulliken charges:
               1
     1  N   -0.778104
     2  H    0.463152
     3  H    0.342045
     4  H    0.353709
     5  C   -0.068248
     6  H    0.156153
     7  C    0.642302
     8  C   -0.285332
     9  H    0.182258
    10  H    0.172721
    11  O   -0.536124
    12  C   -0.362385
    13  H    0.181981
    14  H    0.177843
    15  C    0.578935
    16  O   -0.439246
    17  O   -0.564712
    18  N   -0.634265
    19  H    0.349782
    20  C   -0.050824
    21  H    0.178983
    22  C    0.644784
    23  C   -0.354169
    24  H    0.157915
    25  H    0.186925
    26  O   -0.579551
    27  C    0.164012
    28  C   -0.210738
    29  H    0.149746
    30  C   -0.200033
    31  H    0.125722
    32  C   -0.164802
    33  H    0.155026
    34  C   -0.189900
    35  H    0.135470
    36  O   -0.631765
    37  H    0.416330
    38  C    0.353203
    39  N   -0.604808
    40  H    0.379798
    41  C   -0.071513
    42  H    0.203268
    43  C    0.601519
    44  C   -0.264618
    45  H    0.168421
    46  H    0.182952
    47  O   -0.447121
    48  C   -0.291908
    49  H    0.159152
    50  H    0.137721
    51  C   -0.280252
    52  H    0.196279
    53  H    0.176831
    54  C   -0.195835
    55  H    0.218533
    56  H    0.214961
    57  N   -0.776028
    58  H    0.414206
    59  H    0.459106
    60  H    0.412799
    61  O   -0.634607
    62  H    0.422344
 Sum of Mulliken charges =   1.00000

 Dipole moment (field-independent basis, Debye):
    X=              4.8658    Y=             11.4198    Z=            -10.5967  Tot=             16.3211
 Quadrupole moment (field-independent basis, Debye-Ang):
   XX=           -126.3094   YY=           -124.1970   ZZ=           -126.3162
   XY=             37.3434   XZ=            -35.0308   YZ=            -47.5443

 Normal termination of Gaussian 16 at Wed Jun  1 23:31:16 2022.
