 Gaussian 16, Revision C.01,
 Gaussian 16:  ES64L-G16RevC.01  3-Jul-2019

 ----------------------------------------------------------------------
 # B3LYP/6-31G* empiricaldispersion=gd3 guess=read geom=check nosymm in
 tegral(ultrafinegrid)
 ----------------------------------------------------------------------

 ------------------------------------------------------
 Candidate Structure: Conf:879 Charge calc in gas phase
 ------------------------------------------------------
 Structure from the checkpoint file:  "conf-879.chk"
 Charge =  1 Multiplicity = 1

                          Input orientation:
 ---------------------------------------------------------------------
 Center     Atomic      Atomic             Coordinates (Angstroms)
 Number     Number       Type             X           Y           Z
 ---------------------------------------------------------------------
      1          7           0       -1.253884   -4.094104    2.683086
      2          1           0        0.462795   -4.177953    2.540922
      3          1           0       -1.724721   -4.515529    3.482126
      4          1           0       -1.517689   -4.615479    1.846530
      5          6           0       -1.673923   -2.689494    2.524317
      6          1           0       -1.217829   -2.129577    3.348112
      7          6           0       -1.074641   -2.191262    1.198624
      8          6           0       -3.201945   -2.457928    2.545958
      9          1           0       -3.399352   -1.382542    2.476211
     10          1           0       -3.587053   -2.788578    3.519617
     11          8           0       -0.849393   -2.983121    0.281442
     12          6           0       -3.956132   -3.186734    1.418418
     13          1           0       -3.823676   -4.268921    1.486458
     14          1           0       -3.581818   -2.856421    0.442871
     15          6           0       -5.444716   -2.920243    1.484610
     16          8           0       -6.300327   -3.744295    1.707583
     17          8           0       -5.716344   -1.605957    1.275701
     18          7           0       -0.859661   -0.851029    1.117610
     19          1           0       -0.894696   -0.344677    1.993983
     20          6           0       -0.066448   -0.182705    0.063166
     21          1           0       -0.206183    0.889261    0.218508
     22          6           0        1.422687   -0.430016    0.405433
     23          6           0       -0.508140   -0.513933   -1.376449
     24          1           0       -0.364913   -1.574108   -1.589661
     25          1           0       -1.587970   -0.331457   -1.433336
     26          8           0        2.092121    0.460161    0.905094
     27          6           0        0.234861    0.345659   -2.375085
     28          6           0       -0.199622    1.646590   -2.668884
     29          1           0       -1.104266    2.027104   -2.198922
     30          6           0        1.396760   -0.117508   -3.000740
     31          1           0        1.759203   -1.119615   -2.785260
     32          6           0        0.493257    2.459835   -3.558270
     33          1           0        0.151958    3.462710   -3.793335
     34          6           0        2.103887    0.684628   -3.896342
     35          1           0        3.001546    0.304023   -4.380231
     36          8           0        2.290436    2.817132   -5.046331
     37          1           0        3.051038    2.359366   -5.436521
     38          6           0        1.652221    1.977907   -4.178575
     39          7           0        1.873218   -1.721688    0.192232
     40          1           0        1.155655   -2.353874   -0.157048
     41          6           0        2.776184   -2.413120    1.137021
     42          1           0        3.152093   -3.300109    0.616991
     43          6           0        1.848161   -2.866247    2.282256
     44          6           0        3.940962   -1.561770    1.640202
     45          1           0        4.468976   -1.131999    0.782145
     46          1           0        3.540393   -0.730533    2.221190
     47          8           0        1.507141   -2.116162    3.183723
     48          6           0        4.898524   -2.387981    2.508355
     49          1           0        5.344694   -3.206642    1.927090
     50          1           0        4.339123   -2.845401    3.335176
     51          6           0        6.008975   -1.497718    3.089428
     52          1           0        6.587680   -1.047410    2.270792
     53          1           0        5.547182   -0.675869    3.654019
     54          6           0        6.932292   -2.291887    4.000723
     55          1           0        6.403731   -2.729387    4.851333
     56          1           0        7.472209   -3.081144    3.471705
     57          7           0        8.006957   -1.375272    4.600723
     58          1           0        8.649717   -1.878611    5.224574
     59          1           0        7.575058   -0.615389    5.141427
     60          1           0        8.567521   -0.936401    3.859662
     61          8           0        1.366349   -4.083647    2.072778
     62          1           0       -6.685368   -1.508468    1.340074
 ---------------------------------------------------------------------

 SCF Done:  E(RB3LYP) =  -1526.26279375     A.U. after    2 cycles

 Alpha  occ. eigenvalues --  -19.25314 -19.24284 -19.22945 -19.20627 -19.20489
 Alpha  occ. eigenvalues --  -19.19577 -19.19123 -14.65648 -14.44929 -14.43100
 Alpha  occ. eigenvalues --  -14.42432 -10.42514 -10.38550 -10.37874 -10.37408
 Alpha  occ. eigenvalues --  -10.36088 -10.34801 -10.31849 -10.31320 -10.31102
 Alpha  occ. eigenvalues --  -10.30934 -10.30182 -10.27810 -10.27563 -10.26744
 Alpha  occ. eigenvalues --  -10.25597 -10.24610 -10.24557 -10.24408 -10.24313
 Alpha  occ. eigenvalues --  -10.23673  -1.19480  -1.16228  -1.16062  -1.12433
 Alpha  occ. eigenvalues --   -1.11006  -1.10798  -1.07489  -1.07155  -1.01091
 Alpha  occ. eigenvalues --   -0.99693  -0.98603  -0.95990  -0.90898  -0.88972
 Alpha  occ. eigenvalues --   -0.87070  -0.85454  -0.82899  -0.80446  -0.80062
 Alpha  occ. eigenvalues --   -0.78904  -0.78068  -0.77588  -0.75364  -0.72874
 Alpha  occ. eigenvalues --   -0.71613  -0.70563  -0.67997  -0.67520  -0.66983
 Alpha  occ. eigenvalues --   -0.66397  -0.65387  -0.64112  -0.63461  -0.62885
 Alpha  occ. eigenvalues --   -0.61453  -0.60091  -0.59644  -0.59125  -0.57613
 Alpha  occ. eigenvalues --   -0.56855  -0.56392  -0.55764  -0.54694  -0.54416
 Alpha  occ. eigenvalues --   -0.54043  -0.53643  -0.53130  -0.52660  -0.51914
 Alpha  occ. eigenvalues --   -0.51406  -0.50906  -0.50627  -0.50279  -0.50141
 Alpha  occ. eigenvalues --   -0.49503  -0.49071  -0.48650  -0.47617  -0.47255
 Alpha  occ. eigenvalues --   -0.46789  -0.46113  -0.45889  -0.45677  -0.45440
 Alpha  occ. eigenvalues --   -0.44728  -0.44441  -0.44291  -0.43799  -0.43451
 Alpha  occ. eigenvalues --   -0.43107  -0.42757  -0.42107  -0.40917  -0.38998
 Alpha  occ. eigenvalues --   -0.38244  -0.38095  -0.37470  -0.36175  -0.35443
 Alpha  occ. eigenvalues --   -0.35340  -0.33768  -0.32820  -0.32103  -0.31028
 Alpha  occ. eigenvalues --   -0.30355  -0.27031
 Alpha virt. eigenvalues --   -0.15995  -0.09310  -0.09258  -0.08901  -0.07050
 Alpha virt. eigenvalues --   -0.06548  -0.05560  -0.04667  -0.04373  -0.03700
 Alpha virt. eigenvalues --   -0.03555  -0.02007  -0.00993  -0.00624   0.00395

 Mulliken charges:
               1
     1  N   -0.774955
     2  H    0.456196
     3  H    0.331479
     4  H    0.352686
     5  C   -0.072724
     6  H    0.178237
     7  C    0.633030
     8  C   -0.287563
     9  H    0.174612
    10  H    0.161512
    11  O   -0.548518
    12  C   -0.344160
    13  H    0.167907
    14  H    0.193697
    15  C    0.562934
    16  O   -0.443462
    17  O   -0.563758
    18  N   -0.599893
    19  H    0.348767
    20  C   -0.064604
    21  H    0.181981
    22  C    0.607400
    23  C   -0.376731
    24  H    0.182714
    25  H    0.163763
    26  O   -0.497884
    27  C    0.160940
    28  C   -0.185961
    29  H    0.129667
    30  C   -0.182780
    31  H    0.128167
    32  C   -0.154277
    33  H    0.149838
    34  C   -0.192302
    35  H    0.120618
    36  O   -0.636513
    37  H    0.409760
    38  C    0.352340
    39  N   -0.624275
    40  H    0.369012
    41  C   -0.016843
    42  H    0.161109
    43  C    0.572357
    44  C   -0.269558
    45  H    0.158421
    46  H    0.202107
    47  O   -0.504026
    48  C   -0.285465
    49  H    0.154841
    50  H    0.169820
    51  C   -0.291752
    52  H    0.171231
    53  H    0.177758
    54  C   -0.207600
    55  H    0.232283
    56  H    0.229726
    57  N   -0.731772
    58  H    0.432043
    59  H    0.429371
    60  H    0.428341
    61  O   -0.596890
    62  H    0.417599
 Sum of Mulliken charges =   1.00000

 Dipole moment (field-independent basis, Debye):
    X=             31.3223    Y=             -7.8846    Z=             19.4049  Tot=             37.6802
 Quadrupole moment (field-independent basis, Debye-Ang):
   XX=            102.9778   YY=           -170.9207   ZZ=            -78.7653
   XY=            -58.5745   XZ=            134.8394   YZ=            -32.3891

 Normal termination of Gaussian 16 at Wed Jun  1 23:38:18 2022.
