 Gaussian 16, Revision C.01,
 Gaussian 16:  ES64L-G16RevC.01  3-Jul-2019

 -------------------------------------------------------------------
 # B3LYP/6-31G* guess=read geom=check nosymm integral(ultrafinegrid)
 -------------------------------------------------------------------

 ------------------------------------------------------
 Candidate Structure: Conf:137 Charge calc in gas phase
 ------------------------------------------------------
 Structure from the checkpoint file:  "conf-137.chk"
 Charge =  1 Multiplicity = 1

                          Input orientation:
 ---------------------------------------------------------------------
 Center     Atomic      Atomic             Coordinates (Angstroms)
 Number     Number       Type             X           Y           Z
 ---------------------------------------------------------------------
      1          7           0       -2.311724   -5.195551    1.418605
      2          1           0       -1.793466   -5.555639    0.596507
      3          1           0       -1.885993   -5.551507    2.276140
      4          1           0       -2.211967   -4.097887    1.447053
      5          6           0       -3.723199   -5.691867    1.245037
      6          1           0       -3.748243   -6.714853    1.638503
      7          6           0       -3.882419   -5.806649   -0.296557
      8          6           0       -4.713404   -4.814305    2.005336
      9          1           0       -5.719918   -5.240610    1.951909
     10          1           0       -4.734579   -3.793139    1.615232
     11          1           0       -4.447457   -4.766753    3.066168
     12          8           0       -2.866789   -6.029540   -0.957372
     13          7           0       -5.121784   -5.684601   -0.815852
     14          1           0       -5.841723   -5.286444   -0.224121
     15          6           0       -5.306193   -5.416901   -2.262294
     16          1           0       -4.551485   -5.985048   -2.803550
     17          6           0       -5.074026   -3.892645   -2.368624
     18          6           0       -6.705781   -5.816942   -2.713435
     19          1           0       -7.445986   -5.162325   -2.236592
     20          1           0       -6.921142   -6.850138   -2.415738
     21          8           0       -5.937011   -3.120464   -1.955707
     22          6           0       -6.804294   -5.678708   -4.236281
     23          7           0       -8.018083   -5.979563   -4.771808
     24          1           0       -8.146329   -5.840031   -5.764904
     25          1           0       -8.835542   -6.147230   -4.204378
     26          8           0       -5.840436   -5.341414   -4.910618
     27          7           0       -3.827583   -3.512686   -2.739811
     28          1           0       -3.142293   -4.222488   -2.976633
     29          6           0       -3.262455   -2.245265   -2.277467
     30          1           0       -4.021141   -1.468001   -2.398448
     31          6           0       -1.997417   -1.969127   -3.098110
     32          6           0       -2.868947   -2.420066   -0.789315
     33          1           0       -3.782417   -2.695830   -0.250260
     34          1           0       -2.184731   -3.274017   -0.768793
     35          8           0       -1.115527   -2.826002   -3.150421
     36          6           0       -2.205200   -1.233799   -0.099073
     37          1           0       -2.893567   -0.383842   -0.009723
     38          1           0       -1.352435   -0.862809   -0.679705
     39          6           0       -1.673138   -1.535695    1.308069
     40          8           0       -1.060572   -0.583995    1.869100
     41          8           0       -1.849365   -2.674567    1.852166
     42          7           0       -1.912532   -0.746421   -3.672959
     43          1           0       -2.689689   -0.101326   -3.596418
     44          6           0       -0.675071   -0.202572   -4.248303
     45          1           0        0.110934   -0.916615   -3.993180
     46          6           0       -0.467312    1.143440   -3.526167
     47          6           0       -0.755814    0.006026   -5.768853
     48          1           0        0.195901    0.453679   -6.091314
     49          1           0       -1.526863    0.761990   -5.959461
     50          8           0       -1.194366    2.101668   -3.781759
     51          6           0       -1.032158   -1.256311   -6.607140
     52          1           0       -1.968365   -1.704175   -6.243804
     53          6           0       -1.242545   -0.861218   -8.077076
     54          1           0       -0.334352   -0.410137   -8.497557
     55          1           0       -2.056610   -0.134918   -8.186525
     56          1           0       -1.489616   -1.737748   -8.686598
     57          6           0        0.079069   -2.309743   -6.476990
     58          1           0        1.051590   -1.892341   -6.771356
     59          1           0        0.160358   -2.694219   -5.455348
     60          1           0       -0.123472   -3.164022   -7.133321
     61          7           0        0.478485    1.149801   -2.554799
     62          1           0        1.142280    0.385727   -2.469365
     63          6           0        0.823757    2.326622   -1.769579
     64          1           0        0.683162    3.213888   -2.397279
     65          6           0        2.312916    2.171366   -1.405258
     66          6           0       -0.007534    2.465051   -0.465871
     67          1           0        0.075880    1.515879    0.081191
     68          1           0        0.456676    3.233603    0.165809
     69          8           0        2.892117    1.093097   -1.501819
     70          6           0       -1.497638    2.837749   -0.613626
     71          1           0       -1.985596    2.085307   -1.246307
     72          6           0       -2.152313    2.800799    0.777751
     73          1           0       -1.697173    3.551894    1.437037
     74          1           0       -2.030728    1.820011    1.252131
     75          1           0       -3.223845    3.024230    0.711504
     76          6           0       -1.696899    4.209292   -1.273467
     77          1           0       -1.168754    4.994198   -0.714687
     78          1           0       -1.350014    4.211061   -2.310251
     79          1           0       -2.759912    4.476720   -1.287890
     80          7           0        2.919372    3.289974   -0.912575
     81          1           0        2.409124    4.163793   -0.913373
     82          6           0        4.315620    3.301127   -0.480469
     83          1           0        4.843727    2.573313   -1.102160
     84          6           0        4.491356    2.811472    0.969059
     85          6           0        4.926748    4.717740   -0.696742
     86          1           0        4.567090    5.025188   -1.689814
     87          8           0        5.617490    2.643493    1.452444
     88          6           0        6.468659    4.723169   -0.747569
     89          1           0        6.780479    5.770768   -0.854095
     90          1           0        6.862094    4.374320    0.212703
     91          6           0        4.415609    5.733657    0.340865
     92          1           0        4.853279    5.534101    1.326132
     93          1           0        3.324774    5.723734    0.458506
     94          1           0        4.706401    6.748652    0.051123
     95          6           0        7.084038    3.906191   -1.888757
     96          1           0        8.168972    4.052643   -1.920848
     97          1           0        6.680866    4.207074   -2.863739
     98          1           0        6.909157    2.831034   -1.769428
     99          7           0        3.354314    2.586797    1.670955
    100          1           0        2.483511    2.932426    1.281808
    101          6           0        3.370209    2.345178    3.109024
    102          1           0        4.151288    2.975023    3.554032
    103          6           0        3.734355    0.870241    3.432911
    104          6           0        2.006847    2.700440    3.726720
    105          1           0        2.063705    2.537116    4.807108
    106          1           0        1.248968    2.019306    3.326687
    107          8           0        2.883755    0.026932    3.756344
    108          6           0        1.567036    4.120234    3.378848
    109          7           0        1.517388    5.004760    4.405047
    110          1           0        1.775673    4.764170    5.349978
    111          1           0        1.246355    5.959053    4.207360
    112          8           0        1.278269    4.435876    2.223981
    113          7           0        5.047763    0.612309    3.357845
    114          1           0        5.627828    1.352630    2.964405
    115          6           0        5.668360   -0.630473    3.794505
    116          1           0        5.264421   -1.465074    3.203279
    117          6           0        5.297029   -0.850115    5.282972
    118          6           0        7.202978   -0.548461    3.562214
    119          1           0        7.554554    0.331277    4.119929
    120          8           0        5.111356    0.083187    6.050612
    121          6           0        7.940238   -1.781855    4.106322
    122          1           0        7.606618   -2.697416    3.598204
    123          1           0        9.013035   -1.682179    3.912218
    124          1           0        7.806414   -1.919402    5.182575
    125          6           0        7.527914   -0.359044    2.069685
    126          1           0        7.179332   -1.221207    1.486704
    127          1           0        8.612108   -0.284505    1.933633
    128          1           0        7.080424    0.541195    1.638530
    129          7           0        5.170294   -2.159045    5.661990
    130          1           0        5.336060   -2.885768    4.979094
    131          6           0        4.614266   -2.528905    6.951411
    132          1           0        4.544253   -1.580975    7.500286
    133          6           0        5.530181   -3.433081    7.775104
    134          6           0        3.204016   -3.150123    6.826680
    135          1           0        2.785374   -3.254816    7.832757
    136          1           0        3.289469   -4.169925    6.425249
    137          8           0        5.133354   -4.186373    8.634985
    138          6           0        2.302007   -2.311933    5.915797
    139          1           0        2.785687   -2.226310    4.937809
    140          1           0        2.249958   -1.284088    6.296413
    141          6           0        0.886346   -2.879106    5.717185
    142          1           0        0.909133   -3.976595    5.759343
    143          1           0        0.215623   -2.563090    6.528158
    144          6           0        0.287303   -2.511215    4.359762
    145          1           0        0.888625   -2.927972    3.546530
    146          1           0       -0.732199   -2.881966    4.231897
    147          7           0        0.229394   -1.036111    4.094890
    148          1           0       -0.343981   -0.858201    3.163759
    149          1           0        1.173467   -0.613645    3.988439
    150          1           0       -0.247371   -0.547721    4.856898
    151          8           0        6.836595   -3.282505    7.466523
    152          1           0        7.330047   -3.863819    8.077008
 ---------------------------------------------------------------------

 SCF Done:  E(RB3LYP) =  -3473.79894142     A.U. after    2 cycles

 Alpha  occ. eigenvalues --  -19.26954 -19.24031 -19.21211 -19.21099 -19.20273
 Alpha  occ. eigenvalues --  -19.20181 -19.19619 -19.19397 -19.19140 -19.19061
 Alpha  occ. eigenvalues --  -19.18922 -19.18409 -19.18254 -19.17295 -14.53692
 Alpha  occ. eigenvalues --  -14.50105 -14.47846 -14.44740 -14.43960 -14.43658
 Alpha  occ. eigenvalues --  -14.43613 -14.43606 -14.43307 -14.43161 -14.42510
 Alpha  occ. eigenvalues --  -14.41963 -10.41228 -10.39304 -10.38151 -10.37869
 Alpha  occ. eigenvalues --  -10.37559 -10.37455 -10.36372 -10.36302 -10.36223
 Alpha  occ. eigenvalues --  -10.36216 -10.36081 -10.35719 -10.34535 -10.33263
 Alpha  occ. eigenvalues --  -10.32687 -10.32349 -10.31549 -10.31148 -10.31110
 Alpha  occ. eigenvalues --  -10.30785 -10.30221 -10.29755 -10.29072 -10.29070
 Alpha  occ. eigenvalues --  -10.28871 -10.27939 -10.27076 -10.27074 -10.26935
 Alpha  occ. eigenvalues --  -10.26709 -10.26262 -10.26216 -10.24205 -10.24199
 Alpha  occ. eigenvalues --  -10.23941 -10.23791 -10.23726 -10.23323 -10.23205
 Alpha  occ. eigenvalues --  -10.23128 -10.22407 -10.21871 -10.21308 -10.21147
 Alpha  occ. eigenvalues --  -10.20863  -1.17799  -1.16290  -1.12693  -1.12612
 Alpha  occ. eigenvalues --   -1.11993  -1.11433  -1.11283  -1.10924  -1.10747
 Alpha  occ. eigenvalues --   -1.10340  -1.10053  -1.09086  -1.08794  -1.08749
 Alpha  occ. eigenvalues --   -1.05707  -1.03919  -1.03413  -1.01213  -1.00634
 Alpha  occ. eigenvalues --   -1.00504  -0.99835  -0.99331  -0.99307  -0.99288
 Alpha  occ. eigenvalues --   -0.98303  -0.97283  -0.90246  -0.89467  -0.88279
 Alpha  occ. eigenvalues --   -0.87635  -0.87293  -0.86511  -0.86203  -0.85932
 Alpha  occ. eigenvalues --   -0.85305  -0.85030  -0.81969  -0.80734  -0.80429
 Alpha  occ. eigenvalues --   -0.79340  -0.78898  -0.78692  -0.78234  -0.77070
 Alpha  occ. eigenvalues --   -0.75173  -0.75122  -0.74554  -0.73442  -0.72583
 Alpha  occ. eigenvalues --   -0.72025  -0.71764  -0.71421  -0.70350  -0.69670
 Alpha  occ. eigenvalues --   -0.69413  -0.68822  -0.68778  -0.68458  -0.67761
 Alpha  occ. eigenvalues --   -0.67345  -0.67080  -0.66887  -0.66191  -0.65829
 Alpha  occ. eigenvalues --   -0.65703  -0.65611  -0.65170  -0.65020  -0.64237
 Alpha  occ. eigenvalues --   -0.64112  -0.63803  -0.63512  -0.63105  -0.62590
 Alpha  occ. eigenvalues --   -0.62027  -0.61548  -0.60747  -0.60646  -0.60478
 Alpha  occ. eigenvalues --   -0.60229  -0.59528  -0.58997  -0.58548  -0.58113
 Alpha  occ. eigenvalues --   -0.57931  -0.57730  -0.57512  -0.57212  -0.56226
 Alpha  occ. eigenvalues --   -0.55951  -0.55762  -0.55481  -0.55332  -0.55023
 Alpha  occ. eigenvalues --   -0.54735  -0.54324  -0.53929  -0.53568  -0.53397
 Alpha  occ. eigenvalues --   -0.53052  -0.52973  -0.52886  -0.52483  -0.52396
 Alpha  occ. eigenvalues --   -0.52219  -0.51952  -0.51751  -0.51568  -0.51462
 Alpha  occ. eigenvalues --   -0.51259  -0.51003  -0.50861  -0.50699  -0.50545
 Alpha  occ. eigenvalues --   -0.50202  -0.50059  -0.49931  -0.49581  -0.49292
 Alpha  occ. eigenvalues --   -0.49046  -0.48919  -0.48692  -0.48365  -0.48355
 Alpha  occ. eigenvalues --   -0.48266  -0.48063  -0.48047  -0.47979  -0.47841
 Alpha  occ. eigenvalues --   -0.47277  -0.47225  -0.47106  -0.47024  -0.46975
 Alpha  occ. eigenvalues --   -0.46713  -0.46618  -0.46322  -0.46026  -0.45991
 Alpha  occ. eigenvalues --   -0.45642  -0.45373  -0.45323  -0.44948  -0.44934
 Alpha  occ. eigenvalues --   -0.44779  -0.44555  -0.44377  -0.44153  -0.44080
 Alpha  occ. eigenvalues --   -0.43796  -0.43555  -0.43462  -0.43254  -0.42788
 Alpha  occ. eigenvalues --   -0.42746  -0.42668  -0.42363  -0.42284  -0.42236
 Alpha  occ. eigenvalues --   -0.41993  -0.41808  -0.41708  -0.41174  -0.40967
 Alpha  occ. eigenvalues --   -0.40797  -0.40549  -0.40280  -0.39933  -0.39239
 Alpha  occ. eigenvalues --   -0.38901  -0.38533  -0.38525  -0.38351  -0.37908
 Alpha  occ. eigenvalues --   -0.37772  -0.37469  -0.37276  -0.36857  -0.36580
 Alpha  occ. eigenvalues --   -0.36483  -0.36469  -0.35755  -0.35613  -0.35260
 Alpha  occ. eigenvalues --   -0.35025  -0.34968  -0.34484  -0.34179  -0.34102
 Alpha  occ. eigenvalues --   -0.33638  -0.33525  -0.33158  -0.32632  -0.32582
 Alpha  occ. eigenvalues --   -0.32433  -0.32332  -0.32269  -0.32239  -0.31809
 Alpha  occ. eigenvalues --   -0.31504  -0.31000  -0.30199
 Alpha virt. eigenvalues --   -0.11052  -0.07611  -0.06529  -0.06395  -0.05994
 Alpha virt. eigenvalues --   -0.05857  -0.05576  -0.05160  -0.05048  -0.04763
 Alpha virt. eigenvalues --   -0.04366  -0.04063  -0.03568  -0.02619  -0.02145

 Mulliken charges:
               1
     1  N   -0.787456
     2  H    0.412412
     3  H    0.383336
     4  H    0.472282
     5  C   -0.098435
     6  H    0.214735
     7  C    0.650796
     8  C   -0.491551
     9  H    0.185712
    10  H    0.211829
    11  H    0.183658
    12  O   -0.523717
    13  N   -0.607669
    14  H    0.352254
    15  C   -0.054853
    16  H    0.207571
    17  C    0.640408
    18  C   -0.400382
    19  H    0.187785
    20  H    0.181597
    21  O   -0.543052
    22  C    0.625841
    23  N   -0.752463
    24  H    0.356693
    25  H    0.344130
    26  O   -0.500358
    27  N   -0.589678
    28  H    0.363714
    29  C   -0.050894
    30  H    0.176098
    31  C    0.626803
    32  C   -0.285947
    33  H    0.146455
    34  H    0.148802
    35  O   -0.538301
    36  C   -0.378443
    37  H    0.182489
    38  H    0.187248
    39  C    0.630543
    40  O   -0.587035
    41  O   -0.638328
    42  N   -0.604746
    43  H    0.347773
    44  C   -0.064764
    45  H    0.179089
    46  C    0.619053
    47  C   -0.256687
    48  H    0.140359
    49  H    0.159220
    50  O   -0.533074
    51  C   -0.072906
    52  H    0.131208
    53  C   -0.443592
    54  H    0.142400
    55  H    0.143136
    56  H    0.147653
    57  C   -0.465929
    58  H    0.134172
    59  H    0.169921
    60  H    0.146206
    61  N   -0.617102
    62  H    0.356000
    63  C   -0.053369
    64  H    0.178918
    65  C    0.607770
    66  C   -0.298425
    67  H    0.153714
    68  H    0.159315
    69  O   -0.523976
    70  C   -0.059880
    71  H    0.129495
    72  C   -0.473136
    73  H    0.142668
    74  H    0.156862
    75  H    0.138438
    76  C   -0.461362
    77  H    0.130252
    78  H    0.175658
    79  H    0.144989
    80  N   -0.662189
    81  H    0.349679
    82  C   -0.025958
    83  H    0.205153
    84  C    0.630798
    85  C   -0.105136
    86  H    0.141538
    87  O   -0.550573
    88  C   -0.257425
    89  H    0.138802
    90  H    0.169541
    91  C   -0.484636
    92  H    0.159142
    93  H    0.149498
    94  H    0.163829
    95  C   -0.459837
    96  H    0.156322
    97  H    0.145933
    98  H    0.152878
    99  N   -0.619553
   100  H    0.392290
   101  C   -0.052382
   102  H    0.187559
   103  C    0.676334
   104  C   -0.404337
   105  H    0.165532
   106  H    0.190374
   107  O   -0.577915
   108  C    0.615094
   109  N   -0.738837
   110  H    0.352403
   111  H    0.360000
   112  O   -0.518365
   113  N   -0.622200
   114  H    0.389636
   115  C   -0.011358
   116  H    0.146152
   117  C    0.631026
   118  C   -0.114395
   119  H    0.157109
   120  O   -0.524397
   121  C   -0.477862
   122  H    0.132744
   123  H    0.164906
   124  H    0.182774
   125  C   -0.469169
   126  H    0.145326
   127  H    0.160863
   128  H    0.181548
   129  N   -0.600185
   130  H    0.330071
   131  C   -0.064482
   132  H    0.223382
   133  C    0.588852
   134  C   -0.272000
   135  H    0.177188
   136  H    0.139521
   137  O   -0.455264
   138  C   -0.280099
   139  H    0.158614
   140  H    0.154168
   141  C   -0.278876
   142  H    0.156956
   143  H    0.153129
   144  C   -0.168911
   145  H    0.184507
   146  H    0.182271
   147  N   -0.816793
   148  H    0.446396
   149  H    0.443147
   150  H    0.365749
   151  O   -0.557212
   152  H    0.421660
 Sum of Mulliken charges =   1.00000

 Dipole moment (field-independent basis, Debye):
    X=             -4.6794    Y=            -12.1317    Z=             14.5816  Tot=             19.5371
 Quadrupole moment (field-independent basis, Debye-Ang):
   XX=           -286.0592   YY=           -284.0679   ZZ=           -356.5895
   XY=             89.0409   XZ=             29.4891   YZ=            -12.3570

 Normal termination of Gaussian 16 at Mon Jul 11 13:23:34 2022.
