 Gaussian 16, Revision C.01,
 Gaussian 16:  ES64L-G16RevC.01  3-Jul-2019

 -------------------------------------------------------------------
 # B3LYP/6-31G* guess=read geom=check nosymm integral(ultrafinegrid)
 -------------------------------------------------------------------

 ------------------------------------------------------
 Candidate Structure: Conf:196 Charge calc in gas phase
 ------------------------------------------------------
 Structure from the checkpoint file:  "conf-196.chk"
 Charge =  1 Multiplicity = 1

                          Input orientation:
 ---------------------------------------------------------------------
 Center     Atomic      Atomic             Coordinates (Angstroms)
 Number     Number       Type             X           Y           Z
 ---------------------------------------------------------------------
      1          7           0       -7.625769    2.526940   -8.326856
      2          1           0       -8.004549    1.866865   -9.007517
      3          1           0       -8.078366    3.431380   -8.433941
      4          1           0       -7.819957    2.150581   -7.394454
      5          6           0       -6.154294    2.631902   -8.423637
      6          1           0       -5.849425    2.553215   -9.470071
      7          6           0       -5.569044    1.458985   -7.644889
      8          6           0       -5.659839    3.950660   -7.845996
      9          1           0       -4.573907    4.030986   -7.913294
     10          1           0       -5.941349    4.030703   -6.792672
     11          1           0       -6.100943    4.795573   -8.381586
     12          8           0       -6.191961    0.943882   -6.719881
     13          7           0       -4.330152    1.062582   -7.999047
     14          1           0       -3.856946    1.541739   -8.745874
     15          6           0       -3.676191   -0.076831   -7.366177
     16          1           0       -4.462081   -0.786567   -7.094333
     17          6           0       -2.952257    0.338160   -6.081876
     18          6           0       -2.705050   -0.753438   -8.326092
     19          1           0       -1.871913   -0.092644   -8.569777
     20          1           0       -3.237599   -0.998584   -9.244508
     21          8           0       -1.758690    0.120741   -5.906177
     22          6           0       -2.224013   -2.065047   -7.741733
     23          7           0       -0.906602   -2.344714   -7.936551
     24          1           0       -0.552004   -3.163504   -7.473823
     25          1           0       -0.270739   -1.610409   -8.184624
     26          8           0       -2.992950   -2.839538   -7.191557
     27          7           0       -3.713439    0.963653   -5.145944
     28          1           0       -4.718017    0.909877   -5.248828
     29          6           0       -3.200574    1.078570   -3.793092
     30          1           0       -2.203556    1.521719   -3.853850
     31          6           0       -3.100221   -0.319807   -3.173043
     32          6           0       -4.124081    1.976766   -2.962508
     33          1           0       -4.302764    2.889594   -3.532177
     34          1           0       -5.083090    1.473725   -2.825381
     35          8           0       -4.007887   -1.140279   -3.295856
     36          6           0       -3.572684    2.365703   -1.589137
     37          1           0       -2.619988    2.890819   -1.687268
     38          1           0       -3.461488    1.495091   -0.938974
     39          6           0       -4.635941    3.325890   -1.003101
     40          8           0       -5.563257    2.774963   -0.388055
     41          8           0       -4.459184    4.532898   -1.241329
     42          7           0       -1.941557   -0.549465   -2.500403
     43          1           0       -1.387918    0.235232   -2.197923
     44          6           0       -1.733068   -1.749005   -1.728326
     45          1           0       -2.659953   -2.319229   -1.763307
     46          6           0       -1.428552   -1.315404   -0.299407
     47          6           0       -0.593043   -2.609333   -2.267993
     48          1           0       -0.564566   -3.537641   -1.691658
     49          1           0        0.355406   -2.100150   -2.082507
     50          8           0       -0.987456   -0.198839   -0.047090
     51          6           0       -0.654883   -2.945783   -3.759389
     52          1           0       -0.647615   -2.007867   -4.321630
     53          6           0        0.594507   -3.741065   -4.126670
     54          1           0        0.622473   -4.681121   -3.570636
     55          1           0        1.496042   -3.173628   -3.880912
     56          1           0        0.621311   -3.979079   -5.192865
     57          6           0       -1.925680   -3.706199   -4.117100
     58          1           0       -1.961507   -4.659189   -3.581839
     59          1           0       -2.815402   -3.133360   -3.859308
     60          1           0       -1.965888   -3.910459   -5.190857
     61          7           0       -1.645649   -2.249434    0.654659
     62          1           0       -1.815323   -3.195303    0.360482
     63          6           0       -1.228343   -2.037971    2.040593
     64          1           0       -1.466459   -0.997895    2.261692
     65          6           0        0.284453   -2.248103    2.134832
     66          6           0       -2.002061   -2.971627    2.955807
     67          1           0       -3.064497   -2.813868    2.756559
     68          1           0       -1.761813   -4.000741    2.678303
     69          8           0        0.791353   -3.321321    2.456004
     70          6           0       -1.753290   -2.785169    4.455820
     71          1           0       -0.688231   -2.960332    4.636724
     72          6           0       -2.108166   -1.379700    4.926363
     73          1           0       -3.172593   -1.182967    4.763937
     74          1           0       -1.534748   -0.611490    4.402798
     75          1           0       -1.908421   -1.273446    5.995524
     76          6           0       -2.548370   -3.829906    5.235558
     77          1           0       -3.619165   -3.697874    5.063329
     78          1           0       -2.274853   -4.841970    4.930531
     79          1           0       -2.364939   -3.740729    6.308704
     80          7           0        1.033707   -1.169407    1.806641
     81          1           0        0.600639   -0.360526    1.374961
     82          6           0        2.475099   -1.286883    1.717275
     83          1           0        2.776580   -2.020055    2.471514
     84          6           0        3.092473    0.061922    2.053849
     85          6           0        2.937825   -1.827465    0.342309
     86          1           0        2.444164   -2.802008    0.259512
     87          8           0        2.671250    1.108723    1.571662
     88          6           0        4.450428   -2.054815    0.276366
     89          1           0        4.674039   -2.385146   -0.743494
     90          1           0        4.956226   -1.093701    0.409636
     91          6           0        2.511633   -0.951627   -0.833332
     92          1           0        3.092123   -0.031157   -0.839905
     93          1           0        1.454948   -0.687360   -0.782130
     94          1           0        2.696183   -1.474746   -1.776971
     95          6           0        4.985965   -3.086515    1.258148
     96          1           0        6.038042   -3.302622    1.059471
     97          1           0        4.433805   -4.027466    1.183718
     98          1           0        4.919107   -2.735899    2.290391
     99          7           0        4.131503    0.042514    2.920182
    100          1           0        4.623518   -0.822901    3.100339
    101          6           0        4.937669    1.233153    3.108632
    102          1           0        4.250303    2.051107    3.335227
    103          6           0        5.684728    1.577783    1.821501
    104          6           0        5.903699    1.033952    4.277314
    105          1           0        5.307956    0.863753    5.175275
    106          1           0        6.500096    1.934263    4.434474
    107          8           0        6.318286    0.742772    1.188267
    108          6           0        6.811151   -0.175644    4.122711
    109          7           0        8.088671    0.003175    4.531465
    110          1           0        8.400463    0.860177    4.948703
    111          1           0        8.716527   -0.781456    4.495620
    112          8           0        6.409191   -1.249199    3.689912
    113          7           0        5.585356    2.865207    1.426546
    114          1           0        5.085696    3.539548    1.983209
    115          6           0        6.292969    3.368673    0.265060
    116          1           0        7.075922    2.647933    0.025288
    117          6           0        6.890406    4.710446    0.665020
    118          6           0        5.369487    3.517650   -0.962343
    119          1           0        4.603496    4.244663   -0.685461
    120          8           0        6.211744    5.563987    1.211321
    121          6           0        6.128153    4.048036   -2.180059
    122          1           0        6.912722    3.338249   -2.465852
    123          1           0        5.445051    4.151690   -3.026046
    124          1           0        6.588721    5.020858   -1.997544
    125          6           0        4.695148    2.190614   -1.300651
    126          1           0        5.453750    1.421471   -1.469349
    127          1           0        4.108551    2.305743   -2.213608
    128          1           0        4.027476    1.854456   -0.511430
    129          7           0        8.213973    4.879508    0.385596
    130          1           0        8.639225    4.228526   -0.256085
    131          6           0        8.809545    6.204107    0.433913
    132          1           0        8.262152    6.781018    1.179236
    133          6           0        8.678938    6.877639   -0.912959
    134          6           0       10.287530    6.097782    0.819535
    135          1           0       10.804293    5.506915    0.058901
    136          1           0       10.332054    5.533250    1.752364
    137          8           0        8.772807    6.314201   -1.980251
    138          6           0       10.983108    7.436926    1.003949
    139          1           0       10.419697    8.041915    1.722306
    140          1           0       10.977094    7.989889    0.063104
    141          6           0       12.406446    7.260449    1.508028
    142          1           0       12.386450    6.664845    2.426776
    143          1           0       12.989203    6.693497    0.775668
    144          6           0       13.116552    8.566331    1.809741
    145          1           0       12.495291    9.159510    2.486564
    146          1           0       14.056616    8.371505    2.328840
    147          7           0       13.390019    9.364276    0.586778
    148          1           0       13.830779   10.258971    0.801434
    149          1           0       12.527163    9.563789    0.082647
    150          1           0       14.001936    8.860054   -0.054711
    151          8           0        8.501385    8.208577   -0.804210
    152          1           0        8.484299    8.552477   -1.705882
 ---------------------------------------------------------------------

 SCF Done:  E(RB3LYP) =  -3473.56284677     A.U. after    3 cycles

 Alpha  occ. eigenvalues --  -19.29349 -19.25053 -19.23379 -19.18739 -19.16489
 Alpha  occ. eigenvalues --  -19.16285 -19.15927 -19.15246 -19.14292 -19.13677
 Alpha  occ. eigenvalues --  -19.12350 -19.12165 -19.01187 -19.01152 -14.62680
 Alpha  occ. eigenvalues --  -14.61967 -14.48503 -14.44113 -14.41218 -14.40504
 Alpha  occ. eigenvalues --  -14.40124 -14.39050 -14.38594 -14.37818 -14.36526
 Alpha  occ. eigenvalues --  -14.36280 -10.42104 -10.41207 -10.40735 -10.40436
 Alpha  occ. eigenvalues --  -10.35535 -10.34289 -10.34012 -10.33896 -10.33309
 Alpha  occ. eigenvalues --  -10.33000 -10.32688 -10.32455 -10.31890 -10.31179
 Alpha  occ. eigenvalues --  -10.30835 -10.30469 -10.30421 -10.29303 -10.29189
 Alpha  occ. eigenvalues --  -10.27994 -10.27790 -10.26755 -10.25550 -10.24349
 Alpha  occ. eigenvalues --  -10.24232 -10.23802 -10.23762 -10.23300 -10.21843
 Alpha  occ. eigenvalues --  -10.19958 -10.19888 -10.19612 -10.19581 -10.19475
 Alpha  occ. eigenvalues --  -10.19421 -10.19130 -10.19081 -10.18323 -10.17989
 Alpha  occ. eigenvalues --  -10.17943 -10.17765 -10.17749 -10.17664 -10.16763
 Alpha  occ. eigenvalues --  -10.13282  -1.20553  -1.18975  -1.18099  -1.15696
 Alpha  occ. eigenvalues --   -1.11532  -1.10986  -1.08759  -1.08679  -1.07872
 Alpha  occ. eigenvalues --   -1.07737  -1.06721  -1.05896  -1.04716  -1.04217
 Alpha  occ. eigenvalues --   -1.04023  -1.01254  -0.97282  -0.96224  -0.95866
 Alpha  occ. eigenvalues --   -0.95749  -0.95327  -0.95234  -0.95233  -0.94982
 Alpha  occ. eigenvalues --   -0.93809  -0.93611  -0.93144  -0.90193  -0.86509
 Alpha  occ. eigenvalues --   -0.86161  -0.85660  -0.84038  -0.83436  -0.83106
 Alpha  occ. eigenvalues --   -0.82420  -0.81815  -0.81434  -0.79622  -0.78603
 Alpha  occ. eigenvalues --   -0.77803  -0.76887  -0.76448  -0.75806  -0.75536
 Alpha  occ. eigenvalues --   -0.75240  -0.75189  -0.74702  -0.74226  -0.73674
 Alpha  occ. eigenvalues --   -0.72951  -0.72111  -0.71923  -0.70810  -0.69502
 Alpha  occ. eigenvalues --   -0.69277  -0.69228  -0.68960  -0.67386  -0.66953
 Alpha  occ. eigenvalues --   -0.66837  -0.66518  -0.65867  -0.64869  -0.64013
 Alpha  occ. eigenvalues --   -0.63751  -0.63357  -0.63153  -0.62536  -0.62478
 Alpha  occ. eigenvalues --   -0.61964  -0.61431  -0.61259  -0.60443  -0.60369
 Alpha  occ. eigenvalues --   -0.59868  -0.59641  -0.59520  -0.58997  -0.58668
 Alpha  occ. eigenvalues --   -0.58527  -0.58435  -0.58147  -0.57745  -0.57356
 Alpha  occ. eigenvalues --   -0.57194  -0.56986  -0.56376  -0.56217  -0.55608
 Alpha  occ. eigenvalues --   -0.54700  -0.54547  -0.54267  -0.53997  -0.53712
 Alpha  occ. eigenvalues --   -0.53664  -0.53318  -0.52762  -0.51609  -0.51524
 Alpha  occ. eigenvalues --   -0.51300  -0.51235  -0.50966  -0.50809  -0.50198
 Alpha  occ. eigenvalues --   -0.50134  -0.49990  -0.49401  -0.49227  -0.49055
 Alpha  occ. eigenvalues --   -0.48934  -0.48604  -0.48474  -0.48270  -0.48246
 Alpha  occ. eigenvalues --   -0.47704  -0.47432  -0.46998  -0.46939  -0.46513
 Alpha  occ. eigenvalues --   -0.46337  -0.45926  -0.45803  -0.45503  -0.45265
 Alpha  occ. eigenvalues --   -0.44975  -0.44916  -0.44839  -0.44729  -0.44541
 Alpha  occ. eigenvalues --   -0.44258  -0.43931  -0.43518  -0.43382  -0.43135
 Alpha  occ. eigenvalues --   -0.43057  -0.42938  -0.42719  -0.42593  -0.42429
 Alpha  occ. eigenvalues --   -0.42293  -0.42060  -0.41860  -0.41638  -0.41344
 Alpha  occ. eigenvalues --   -0.41321  -0.40691  -0.40430  -0.40250  -0.40127
 Alpha  occ. eigenvalues --   -0.39941  -0.39699  -0.39516  -0.39285  -0.39241
 Alpha  occ. eigenvalues --   -0.39156  -0.38776  -0.38368  -0.37974  -0.37889
 Alpha  occ. eigenvalues --   -0.37811  -0.37426  -0.37197  -0.37163  -0.37056
 Alpha  occ. eigenvalues --   -0.36878  -0.36648  -0.35927  -0.35386  -0.34227
 Alpha  occ. eigenvalues --   -0.34114  -0.33990  -0.33856  -0.33787  -0.33656
 Alpha  occ. eigenvalues --   -0.33592  -0.33559  -0.33456  -0.33152  -0.33017
 Alpha  occ. eigenvalues --   -0.32652  -0.32506  -0.32126  -0.31580  -0.30732
 Alpha  occ. eigenvalues --   -0.30554  -0.30445  -0.30037  -0.29941  -0.29706
 Alpha  occ. eigenvalues --   -0.29604  -0.29289  -0.28814  -0.28114  -0.27889
 Alpha  occ. eigenvalues --   -0.27181  -0.26285  -0.25759  -0.25593  -0.24964
 Alpha  occ. eigenvalues --   -0.16898  -0.15430  -0.14589
 Alpha virt. eigenvalues --   -0.14039  -0.12139  -0.10819  -0.08942  -0.07569
 Alpha virt. eigenvalues --   -0.07236  -0.06512  -0.05075  -0.04986  -0.04356
 Alpha virt. eigenvalues --   -0.03631  -0.02512  -0.02438  -0.02145  -0.01711

 Mulliken charges:
               1
     1  N   -0.714555
     2  H    0.431218
     3  H    0.426319
     4  H    0.436092
     5  C   -0.145370
     6  H    0.209870
     7  C    0.649128
     8  C   -0.474630
     9  H    0.222446
    10  H    0.227106
    11  H    0.186098
    12  O   -0.511527
    13  N   -0.598731
    14  H    0.342029
    15  C   -0.081686
    16  H    0.241391
    17  C    0.655478
    18  C   -0.379765
    19  H    0.155436
    20  H    0.170604
    21  O   -0.525978
    22  C    0.633238
    23  N   -0.746196
    24  H    0.360482
    25  H    0.341473
    26  O   -0.499751
    27  N   -0.629252
    28  H    0.364621
    29  C   -0.040095
    30  H    0.155431
    31  C    0.640031
    32  C   -0.296516
    33  H    0.129387
    34  H    0.162777
    35  O   -0.543862
    36  C   -0.330667
    37  H    0.109378
    38  H    0.134051
    39  C    0.535904
    40  O   -0.566945
    41  O   -0.581435
    42  N   -0.585667
    43  H    0.354070
    44  C   -0.089355
    45  H    0.190193
    46  C    0.648351
    47  C   -0.269581
    48  H    0.123840
    49  H    0.153394
    50  O   -0.544597
    51  C   -0.080336
    52  H    0.154105
    53  C   -0.441945
    54  H    0.142073
    55  H    0.139323
    56  H    0.116866
    57  C   -0.480900
    58  H    0.116771
    59  H    0.192248
    60  H    0.151011
    61  N   -0.602226
    62  H    0.336150
    63  C   -0.060498
    64  H    0.186487
    65  C    0.624662
    66  C   -0.269621
    67  H    0.143219
    68  H    0.143727
    69  O   -0.548204
    70  C   -0.083745
    71  H    0.149661
    72  C   -0.450862
    73  H    0.147233
    74  H    0.148858
    75  H    0.140597
    76  C   -0.443642
    77  H    0.139753
    78  H    0.144138
    79  H    0.140218
    80  N   -0.621242
    81  H    0.379011
    82  C   -0.053756
    83  H    0.176075
    84  C    0.626224
    85  C   -0.079414
    86  H    0.143168
    87  O   -0.549795
    88  C   -0.289061
    89  H    0.121914
    90  H    0.175356
    91  C   -0.489974
    92  H    0.167770
    93  H    0.163059
    94  H    0.132587
    95  C   -0.452437
    96  H    0.140504
    97  H    0.143552
    98  H    0.157656
    99  N   -0.623144
   100  H    0.396614
   101  C   -0.060449
   102  H    0.167521
   103  C    0.649853
   104  C   -0.389089
   105  H    0.202957
   106  H    0.141933
   107  O   -0.529269
   108  C    0.635401
   109  N   -0.746666
   110  H    0.336635
   111  H    0.351594
   112  O   -0.507549
   113  N   -0.606277
   114  H    0.348731
   115  C   -0.041787
   116  H    0.162881
   117  C    0.608399
   118  C   -0.074316
   119  H    0.151143
   120  O   -0.521726
   121  C   -0.471834
   122  H    0.135743
   123  H    0.158170
   124  H    0.150958
   125  C   -0.474783
   126  H    0.152368
   127  H    0.143151
   128  H    0.207464
   129  N   -0.599676
   130  H    0.344444
   131  C   -0.047051
   132  H    0.210260
   133  C    0.587667
   134  C   -0.285339
   135  H    0.160867
   136  H    0.176341
   137  O   -0.455469
   138  C   -0.283501
   139  H    0.169368
   140  H    0.127747
   141  C   -0.288204
   142  H    0.198413
   143  H    0.166061
   144  C   -0.220612
   145  H    0.220940
   146  H    0.223076
   147  N   -0.649166
   148  H    0.372276
   149  H    0.371543
   150  H    0.366642
   151  O   -0.559477
   152  H    0.418227
 Sum of Mulliken charges =   1.00000

 Dipole moment (field-independent basis, Debye):
    X=             46.0201    Y=             40.2011    Z=            -29.1002  Tot=             67.6816
 Quadrupole moment (field-independent basis, Debye-Ang):
   XX=            445.4791   YY=           -117.6996   ZZ=            -47.0497
   XY=            465.3870   XZ=            308.2079   YZ=            -72.5733

 Normal termination of Gaussian 16 at Mon Jul 11 13:23:57 2022.
