 Gaussian 16, Revision C.01,
 Gaussian 16:  ES64L-G16RevC.01  3-Jul-2019

 -------------------------------------------------------------------
 # B3LYP/6-31G* guess=read geom=check nosymm integral(ultrafinegrid)
 -------------------------------------------------------------------

 ------------------------------------------------------
 Candidate Structure: Conf:879 Charge calc in gas phase
 ------------------------------------------------------
 Structure from the checkpoint file:  "conf-879.chk"
 Charge =  1 Multiplicity = 1

                          Input orientation:
 ---------------------------------------------------------------------
 Center     Atomic      Atomic             Coordinates (Angstroms)
 Number     Number       Type             X           Y           Z
 ---------------------------------------------------------------------
      1          7           0       -9.398312   -3.679562   -1.201950
      2          1           0       -9.361497   -3.443752   -2.224969
      3          1           0      -10.353946   -3.645703   -0.836793
      4          1           0       -9.008392   -4.630135   -1.119905
      5          6           0       -8.436081   -2.758621   -0.470061
      6          1           0       -8.782396   -1.740115   -0.659903
      7          6           0       -7.123057   -3.075093   -1.216746
      8          6           0       -8.398022   -3.088570    1.016316
      9          1           0       -7.715575   -2.398895    1.521770
     10          1           0       -8.029438   -4.106599    1.177519
     11          1           0       -9.384637   -2.979708    1.479745
     12          8           0       -6.857606   -4.261439   -1.417043
     13          7           0       -6.431239   -2.031219   -1.689592
     14          1           0       -6.693972   -1.067421   -1.496566
     15          6           0       -5.501888   -2.159596   -2.800599
     16          1           0       -4.949918   -3.095458   -2.692411
     17          6           0       -4.591520   -0.913881   -2.726909
     18          6           0       -6.264396   -2.116551   -4.164337
     19          1           0       -5.542153   -2.283629   -4.970371
     20          1           0       -6.668237   -1.105379   -4.282200
     21          8           0       -5.087995    0.149626   -2.352839
     22          6           0       -7.447595   -3.072590   -4.275780
     23          7           0       -7.305116   -4.113958   -5.116809
     24          1           0       -8.076168   -4.756282   -5.245428
     25          1           0       -6.465733   -4.265613   -5.657181
     26          8           0       -8.498466   -2.879715   -3.641260
     27          7           0       -3.323213   -1.087936   -3.119839
     28          1           0       -2.973936   -1.980789   -3.461312
     29          6           0       -2.342371   -0.011811   -3.195850
     30          1           0       -2.828039    0.868468   -3.633532
     31          6           0       -1.234083   -0.532684   -4.130702
     32          6           0       -1.764534    0.374731   -1.810845
     33          1           0       -1.136720    1.266059   -1.939989
     34          1           0       -2.592492    0.668765   -1.159680
     35          8           0       -1.193967   -1.718526   -4.460999
     36          6           0       -0.943995   -0.731654   -1.134388
     37          1           0       -0.114848   -1.058770   -1.768526
     38          1           0       -1.587360   -1.600361   -0.944578
     39          6           0       -0.384288   -0.247602    0.212754
     40          8           0        0.898039   -0.247212    0.318401
     41          8           0       -1.191767    0.116653    1.092838
     42          7           0       -0.320765    0.394959   -4.513508
     43          1           0       -0.341711    1.296446   -4.046860
     44          6           0        1.019137    0.024706   -4.980681
     45          1           0        0.984317   -1.043408   -5.203352
     46          6           0        1.955697    0.328415   -3.795027
     47          6           0        1.407227    0.840304   -6.227855
     48          1           0        1.364415    1.903315   -5.957199
     49          1           0        0.632305    0.672685   -6.987349
     50          8           0        1.847779    1.416045   -3.211957
     51          6           0        2.794406    0.524132   -6.823165
     52          1           0        3.545877    0.648181   -6.029445
     53          6           0        2.891632   -0.914798   -7.354741
     54          1           0        2.147764   -1.092132   -8.142047
     55          1           0        2.728955   -1.668046   -6.574054
     56          1           0        3.881542   -1.103883   -7.784203
     57          6           0        3.125096    1.531615   -7.934779
     58          1           0        2.401512    1.461938   -8.757146
     59          1           0        3.107476    2.560883   -7.558608
     60          1           0        4.120660    1.343257   -8.351671
     61          7           0        2.839215   -0.624969   -3.438835
     62          1           0        2.855140   -1.481719   -3.977234
     63          6           0        3.622174   -0.629294   -2.183137
     64          1           0        2.959767   -0.214257   -1.411455
     65          6           0        4.876339    0.276202   -2.254251
     66          6           0        3.943221   -2.098854   -1.854977
     67          1           0        2.981836   -2.632334   -1.887505
     68          1           0        4.566584   -2.506607   -2.663608
     69          8           0        5.980989   -0.112742   -1.874758
     70          6           0        4.626190   -2.424589   -0.507818
     71          1           0        5.657606   -2.067990   -0.565064
     72          6           0        3.953390   -1.739956    0.690941
     73          1           0        2.867052   -1.888939    0.690106
     74          1           0        4.148012   -0.661976    0.695179
     75          1           0        4.363244   -2.137936    1.627405
     76          6           0        4.650186   -3.950494   -0.325885
     77          1           0        3.634371   -4.355741   -0.222542
     78          1           0        5.124999   -4.451525   -1.178502
     79          1           0        5.211233   -4.225599    0.574438
     80          7           0        4.653367    1.541466   -2.701540
     81          1           0        3.684033    1.829359   -2.832329
     82          6           0        5.703457    2.564464   -2.651705
     83          1           0        6.640069    2.004307   -2.591210
     84          6           0        5.533695    3.337426   -1.324472
     85          6           0        5.725581    3.434315   -3.929456
     86          1           0        5.911582    2.717137   -4.743550
     87          8           0        5.118642    4.493851   -1.240732
     88          6           0        6.894210    4.444042   -3.929044
     89          1           0        6.841812    5.002429   -4.873176
     90          1           0        6.733221    5.176867   -3.130338
     91          6           0        4.393663    4.144590   -4.228978
     92          1           0        4.165704    4.888244   -3.462069
     93          1           0        3.553214    3.442905   -4.285927
     94          1           0        4.456235    4.654083   -5.197828
     95          6           0        8.292410    3.826064   -3.800862
     96          1           0        9.064959    4.592842   -3.925632
     97          1           0        8.463079    3.057528   -4.565356
     98          1           0        8.456900    3.361889   -2.821517
     99          7           0        5.818418    2.599763   -0.212100
    100          1           0        6.095543    1.622374   -0.283376
    101          6           0        5.417027    3.076266    1.095788
    102          1           0        5.775366    4.104203    1.208493
    103          6           0        6.061677    2.169591    2.157047
    104          6           0        3.860721    3.064672    1.209874
    105          1           0        3.496714    2.042298    1.085635
    106          1           0        3.483052    3.669747    0.378242
    107          8           0        6.280982    0.984044    1.926127
    108          6           0        3.307642    3.608483    2.514085
    109          7           0        3.691055    4.872200    2.837505
    110          1           0        4.100839    5.492315    2.152665
    111          1           0        3.338976    5.270419    3.698523
    112          8           0        2.578193    2.948952    3.258937
    113          7           0        6.350244    2.789976    3.332740
    114          1           0        5.964255    3.713101    3.504305
    115          6           0        6.742875    2.070371    4.541540
    116          1           0        6.800798    1.011627    4.270306
    117          6           0        5.615419    2.319773    5.561198
    118          6           0        8.122368    2.544527    5.078810
    119          1           0        8.007339    3.602334    5.356502
    120          8           0        5.068519    3.418670    5.627456
    121          6           0        8.538217    1.757367    6.331845
    122          1           0        8.661893    0.690634    6.100435
    123          1           0        9.502854    2.121140    6.701023
    124          1           0        7.817995    1.842684    7.151429
    125          6           0        9.199672    2.436579    3.991046
    126          1           0        9.331995    1.395951    3.670193
    127          1           0       10.161447    2.793959    4.375077
    128          1           0        8.946033    3.030473    3.108457
    129          7           0        5.251572    1.255043    6.328094
    130          1           0        5.839401    0.431611    6.340866
    131          6           0        4.180605    1.330258    7.303998
    132          1           0        3.834086    2.367458    7.298839
    133          6           0        4.728098    0.996101    8.686693
    134          6           0        2.994558    0.391455    6.951869
    135          1           0        2.169885    0.617216    7.637721
    136          1           0        3.287917   -0.650682    7.144471
    137          8           0        5.810274    0.497151    8.903098
    138          6           0        2.555356    0.535036    5.490261
    139          1           0        3.404633    0.266268    4.849601
    140          1           0        2.338684    1.585893    5.269814
    141          6           0        1.356337   -0.354744    5.118975
    142          1           0        1.447244   -1.327743    5.621658
    143          1           0        0.417098    0.087745    5.477803
    144          6           0        1.266355   -0.648445    3.620068
    145          1           0        2.194387   -1.115730    3.275193
    146          1           0        0.446623   -1.336796    3.396125
    147          7           0        1.044538    0.547217    2.758980
    148          1           0        1.125762    0.240377    1.681813
    149          1           0        1.665309    1.348656    2.970953
    150          1           0        0.060790    0.841652    2.776600
    151          8           0        3.834183    1.286258    9.655201
    152          1           0        4.240738    1.019936   10.502177
 ---------------------------------------------------------------------

 SCF Done:  E(RB3LYP) =  -3473.78960300     A.U. after    2 cycles

 Alpha  occ. eigenvalues --  -19.25646 -19.24462 -19.24462 -19.20798 -19.20034
 Alpha  occ. eigenvalues --  -19.19653 -19.18972 -19.18844 -19.17354 -19.17203
 Alpha  occ. eigenvalues --  -19.16378 -19.16331 -19.14053 -19.12634 -14.58373
 Alpha  occ. eigenvalues --  -14.48340 -14.48183 -14.44814 -14.43601 -14.43458
 Alpha  occ. eigenvalues --  -14.43220 -14.42560 -14.42116 -14.41402 -14.40251
 Alpha  occ. eigenvalues --  -14.39931 -10.42183 -10.41937 -10.39452 -10.38224
 Alpha  occ. eigenvalues --  -10.37969 -10.36500 -10.36228 -10.35706 -10.35237
 Alpha  occ. eigenvalues --  -10.34514 -10.34428 -10.33397 -10.33198 -10.32063
 Alpha  occ. eigenvalues --  -10.31604 -10.31237 -10.30928 -10.30036 -10.29644
 Alpha  occ. eigenvalues --  -10.29605 -10.28763 -10.28652 -10.28358 -10.27002
 Alpha  occ. eigenvalues --  -10.25589 -10.25262 -10.25138 -10.24827 -10.24757
 Alpha  occ. eigenvalues --  -10.24653 -10.24405 -10.23963 -10.23440 -10.23063
 Alpha  occ. eigenvalues --  -10.23061 -10.22667 -10.22378 -10.22125 -10.21955
 Alpha  occ. eigenvalues --  -10.21487 -10.21233 -10.20857 -10.20749 -10.20499
 Alpha  occ. eigenvalues --  -10.20249  -1.17443  -1.16555  -1.15588  -1.13047
 Alpha  occ. eigenvalues --   -1.12357  -1.11496  -1.10483  -1.10348  -1.09632
 Alpha  occ. eigenvalues --   -1.08941  -1.08299  -1.07683  -1.07580  -1.06588
 Alpha  occ. eigenvalues --   -1.04927  -1.03030  -1.01297  -0.99858  -0.99736
 Alpha  occ. eigenvalues --   -0.99339  -0.98663  -0.97989  -0.97483  -0.97289
 Alpha  occ. eigenvalues --   -0.97069  -0.96135  -0.91977  -0.89249  -0.87450
 Alpha  occ. eigenvalues --   -0.86701  -0.85495  -0.85405  -0.85157  -0.84419
 Alpha  occ. eigenvalues --   -0.83254  -0.82433  -0.81521  -0.81353  -0.79351
 Alpha  occ. eigenvalues --   -0.78876  -0.77393  -0.76965  -0.76555  -0.76161
 Alpha  occ. eigenvalues --   -0.75034  -0.73667  -0.73111  -0.72780  -0.72196
 Alpha  occ. eigenvalues --   -0.72179  -0.71531  -0.71458  -0.70858  -0.70112
 Alpha  occ. eigenvalues --   -0.69779  -0.69548  -0.69316  -0.67661  -0.67486
 Alpha  occ. eigenvalues --   -0.66466  -0.66162  -0.65654  -0.65539  -0.65110
 Alpha  occ. eigenvalues --   -0.64861  -0.64726  -0.64378  -0.63943  -0.63016
 Alpha  occ. eigenvalues --   -0.62820  -0.62505  -0.61979  -0.61817  -0.61390
 Alpha  occ. eigenvalues --   -0.61093  -0.60932  -0.60403  -0.59919  -0.59754
 Alpha  occ. eigenvalues --   -0.58763  -0.58493  -0.58030  -0.57881  -0.57579
 Alpha  occ. eigenvalues --   -0.56934  -0.55846  -0.55571  -0.55147  -0.54861
 Alpha  occ. eigenvalues --   -0.54751  -0.54595  -0.54153  -0.53779  -0.53637
 Alpha  occ. eigenvalues --   -0.53607  -0.53523  -0.53317  -0.53125  -0.52817
 Alpha  occ. eigenvalues --   -0.52755  -0.52356  -0.52319  -0.52195  -0.51790
 Alpha  occ. eigenvalues --   -0.51718  -0.51224  -0.51152  -0.50875  -0.50731
 Alpha  occ. eigenvalues --   -0.50648  -0.50450  -0.49949  -0.49468  -0.49396
 Alpha  occ. eigenvalues --   -0.49254  -0.49094  -0.48560  -0.48439  -0.48270
 Alpha  occ. eigenvalues --   -0.48063  -0.47842  -0.47671  -0.47572  -0.47444
 Alpha  occ. eigenvalues --   -0.47024  -0.46901  -0.46786  -0.46537  -0.46332
 Alpha  occ. eigenvalues --   -0.46275  -0.46080  -0.45826  -0.45736  -0.45423
 Alpha  occ. eigenvalues --   -0.45232  -0.45064  -0.44919  -0.44801  -0.44469
 Alpha  occ. eigenvalues --   -0.44159  -0.43767  -0.43665  -0.43599  -0.43450
 Alpha  occ. eigenvalues --   -0.43408  -0.43072  -0.42877  -0.42793  -0.42515
 Alpha  occ. eigenvalues --   -0.42338  -0.42292  -0.42055  -0.41809  -0.41720
 Alpha  occ. eigenvalues --   -0.41623  -0.41178  -0.40749  -0.40177  -0.39989
 Alpha  occ. eigenvalues --   -0.39881  -0.39656  -0.39610  -0.39563  -0.39250
 Alpha  occ. eigenvalues --   -0.39048  -0.38936  -0.38845  -0.38755  -0.38662
 Alpha  occ. eigenvalues --   -0.38568  -0.38294  -0.38227  -0.38074  -0.37687
 Alpha  occ. eigenvalues --   -0.37596  -0.37347  -0.36807  -0.36592  -0.36332
 Alpha  occ. eigenvalues --   -0.36152  -0.35859  -0.35704  -0.34944  -0.34405
 Alpha  occ. eigenvalues --   -0.34088  -0.34065  -0.33620  -0.33356  -0.33104
 Alpha  occ. eigenvalues --   -0.33079  -0.32298  -0.31923  -0.31629  -0.31343
 Alpha  occ. eigenvalues --   -0.31077  -0.30012  -0.29671  -0.29250  -0.28828
 Alpha  occ. eigenvalues --   -0.28505  -0.28117  -0.27001
 Alpha virt. eigenvalues --   -0.11680  -0.10925  -0.08348  -0.06760  -0.05930
 Alpha virt. eigenvalues --   -0.05317  -0.04922  -0.04471  -0.03995  -0.03778
 Alpha virt. eigenvalues --   -0.03768  -0.03244  -0.02777  -0.01716  -0.01133

 Mulliken charges:
               1
     1  N   -0.748135
     2  H    0.449433
     3  H    0.403334
     4  H    0.412024
     5  C   -0.109515
     6  H    0.208824
     7  C    0.652041
     8  C   -0.465544
     9  H    0.214372
    10  H    0.198668
    11  H    0.180251
    12  O   -0.537033
    13  N   -0.582067
    14  H    0.364513
    15  C   -0.072884
    16  H    0.198661
    17  C    0.642089
    18  C   -0.360416
    19  H    0.174835
    20  H    0.211430
    21  O   -0.538786
    22  C    0.639925
    23  N   -0.720603
    24  H    0.360816
    25  H    0.366975
    26  O   -0.580979
    27  N   -0.614017
    28  H    0.358258
    29  C   -0.063007
    30  H    0.183142
    31  C    0.619519
    32  C   -0.281926
    33  H    0.156765
    34  H    0.193188
    35  O   -0.543143
    36  C   -0.332301
    37  H    0.148256
    38  H    0.139167
    39  C    0.582508
    40  O   -0.625828
    41  O   -0.587029
    42  N   -0.596610
    43  H    0.353606
    44  C   -0.080991
    45  H    0.178496
    46  C    0.651369
    47  C   -0.256407
    48  H    0.153183
    49  H    0.148631
    50  O   -0.566804
    51  C   -0.091603
    52  H    0.141337
    53  C   -0.448032
    54  H    0.149273
    55  H    0.126419
    56  H    0.158364
    57  C   -0.446380
    58  H    0.144524
    59  H    0.151713
    60  H    0.152178
    61  N   -0.612051
    62  H    0.344738
    63  C   -0.079111
    64  H    0.227321
    65  C    0.621436
    66  C   -0.293871
    67  H    0.136884
    68  H    0.140775
    69  O   -0.527668
    70  C   -0.074225
    71  H    0.177758
    72  C   -0.472390
    73  H    0.158781
    74  H    0.149770
    75  H    0.133141
    76  C   -0.448178
    77  H    0.131787
    78  H    0.140203
    79  H    0.145500
    80  N   -0.641628
    81  H    0.393120
    82  C   -0.076483
    83  H    0.191660
    84  C    0.628585
    85  C   -0.064880
    86  H    0.125345
    87  O   -0.543934
    88  C   -0.265012
    89  H    0.132793
    90  H    0.162142
    91  C   -0.485541
    92  H    0.182888
    93  H    0.138687
    94  H    0.139307
    95  C   -0.456615
    96  H    0.150256
    97  H    0.144071
    98  H    0.146884
    99  N   -0.624666
   100  H    0.378175
   101  C   -0.033992
   102  H    0.164959
   103  C    0.608851
   104  C   -0.384394
   105  H    0.188213
   106  H    0.208799
   107  O   -0.523467
   108  C    0.594377
   109  N   -0.733244
   110  H    0.361093
   111  H    0.364381
   112  O   -0.527968
   113  N   -0.605240
   114  H    0.352905
   115  C   -0.063796
   116  H    0.173761
   117  C    0.626789
   118  C   -0.076532
   119  H    0.140233
   120  O   -0.541417
   121  C   -0.474048
   122  H    0.142435
   123  H    0.160061
   124  H    0.167639
   125  C   -0.445111
   126  H    0.154186
   127  H    0.152098
   128  H    0.154397
   129  N   -0.591443
   130  H    0.345469
   131  C   -0.058441
   132  H    0.213205
   133  C    0.587329
   134  C   -0.280564
   135  H    0.168213
   136  H    0.141787
   137  O   -0.461188
   138  C   -0.282927
   139  H    0.145822
   140  H    0.185297
   141  C   -0.269805
   142  H    0.150348
   143  H    0.149206
   144  C   -0.172949
   145  H    0.185906
   146  H    0.182288
   147  N   -0.818494
   148  H    0.440844
   149  H    0.425780
   150  H    0.375179
   151  O   -0.561415
   152  H    0.420782
 Sum of Mulliken charges =   1.00000

 Dipole moment (field-independent basis, Debye):
    X=            -27.3018    Y=            -10.9792    Z=             -3.8381  Tot=             29.6759
 Quadrupole moment (field-independent basis, Debye-Ang):
   XX=           -113.6350   YY=           -356.5538   ZZ=           -293.5842
   XY=            139.9441   XZ=             73.3671   YZ=             42.7456

 Normal termination of Gaussian 16 at Mon Jul 11 13:23:02 2022.
