 Gaussian 16, Revision C.01,
 Gaussian 16:  ES64L-G16RevC.01  3-Jul-2019

 -------------------------------------------------------------------
 # B3LYP/6-31G* guess=read geom=check nosymm integral(ultrafinegrid)
 -------------------------------------------------------------------

 ------------------------------------------------------
 Candidate Structure: Conf:234 Charge calc in gas phase
 ------------------------------------------------------
 Structure from the checkpoint file:  "conf-234.chk"
 Charge =  1 Multiplicity = 1

                          Input orientation:
 ---------------------------------------------------------------------
 Center     Atomic      Atomic             Coordinates (Angstroms)
 Number     Number       Type             X           Y           Z
 ---------------------------------------------------------------------
      1          7           0       -4.125390   -2.589070    2.016499
      2          1           0       -3.395003   -3.227702    1.691334
      3          1           0       -4.275111   -2.775840    3.008128
      4          1           0       -3.384887   -1.080119    1.968782
      5          6           0       -5.354006   -2.932567    1.258216
      6          1           0       -5.743334   -3.906641    1.594721
      7          6           0       -4.895059   -3.153540   -0.196795
      8          6           0       -6.435660   -1.873209    1.471430
      9          1           0       -7.378955   -2.155807    0.994240
     10          1           0       -6.127141   -0.898603    1.079150
     11          1           0       -6.639714   -1.757937    2.541383
     12          8           0       -3.767595   -3.626789   -0.405894
     13          7           0       -5.757509   -2.827076   -1.173283
     14          1           0       -6.638132   -2.336762   -0.996553
     15          6           0       -5.436858   -2.955606   -2.599673
     16          1           0       -4.865894   -3.880950   -2.731053
     17          6           0       -4.565859   -1.755543   -3.049129
     18          6           0       -6.727947   -3.024329   -3.428074
     19          1           0       -7.260711   -3.947223   -3.169585
     20          1           0       -6.463633   -3.082515   -4.486909
     21          8           0       -5.021298   -0.845433   -3.735332
     22          6           0       -7.689338   -1.866596   -3.153462
     23          7           0       -8.265607   -1.293575   -4.236844
     24          1           0       -8.850743   -0.484697   -4.068966
     25          1           0       -7.827448   -1.362084   -5.143994
     26          8           0       -7.995405   -1.544692   -2.001000
     27          7           0       -3.292048   -1.797625   -2.575364
     28          1           0       -3.025344   -2.590595   -1.994980
     29          6           0       -2.386160   -0.667137   -2.657403
     30          1           0       -2.951480    0.149350   -3.116809
     31          6           0       -1.147730   -1.024476   -3.497730
     32          6           0       -1.872896   -0.263906   -1.255356
     33          1           0       -1.290991   -1.105476   -0.861156
     34          1           0       -1.184182    0.582512   -1.350633
     35          8           0       -0.526148   -2.066690   -3.291020
     36          6           0       -2.989504    0.106626   -0.263298
     37          1           0       -3.719050   -0.701000   -0.189665
     38          1           0       -3.517419    1.002505   -0.612490
     39          6           0       -2.407277    0.433064    1.101680
     40          8           0       -2.778842   -0.266468    2.155906
     41          8           0       -1.588602    1.346944    1.224340
     42          7           0       -0.757713   -0.090201   -4.403685
     43          1           0       -1.267836    0.781954   -4.464183
     44          6           0        0.547500   -0.150553   -5.080010
     45          1           0        0.717216   -1.200415   -5.330804
     46          6           0        1.589940    0.321253   -4.042827
     47          6           0        0.535402    0.719725   -6.338247
     48          1           0        0.390479    1.761958   -6.026993
     49          1           0       -0.334597    0.429384   -6.942554
     50          8           0        1.845441    1.520736   -3.889379
     51          6           0        1.810458    0.632510   -7.202348
     52          1           0        2.667736    0.885039   -6.562392
     53          6           0        2.036985   -0.771997   -7.783414
     54          1           0        1.188729   -1.080125   -8.408259
     55          1           0        2.174780   -1.533084   -7.006716
     56          1           0        2.933643   -0.788216   -8.412700
     57          6           0        1.744964    1.678577   -8.325355
     58          1           0        0.898350    1.483531   -8.996194
     59          1           0        1.628430    2.691340   -7.922780
     60          1           0        2.657787    1.660717   -8.930846
     61          7           0        2.114919   -0.661782   -3.269563
     62          1           0        1.686598   -1.576452   -3.378284
     63          6           0        2.714030   -0.402019   -1.947749
     64          1           0        2.152883    0.434074   -1.505090
     65          6           0        4.187239    0.077254   -2.005983
     66          6           0        2.580473   -1.659455   -1.072198
     67          1           0        1.605763   -2.121877   -1.280786
     68          1           0        3.354717   -2.370084   -1.379937
     69          8           0        5.060545   -0.461802   -1.318931
     70          6           0        2.693615   -1.413566    0.448304
     71          1           0        3.563147   -0.770218    0.625099
     72          6           0        1.441547   -0.726881    1.015495
     73          1           0        0.557958   -1.367719    0.891284
     74          1           0        1.224103    0.232139    0.529599
     75          1           0        1.557061   -0.536475    2.089116
     76          6           0        2.950113   -2.742588    1.173494
     77          1           0        2.134794   -3.456790    0.997180
     78          1           0        3.883261   -3.203555    0.832962
     79          1           0        3.029050   -2.589650    2.257166
     80          7           0        4.420598    1.172942   -2.764747
     81          1           0        3.617886    1.612705   -3.217443
     82          6           0        5.728755    1.836863   -2.769592
     83          1           0        6.450432    1.053403   -2.521006
     84          6           0        5.752196    2.857513   -1.604235
     85          6           0        6.076512    2.405018   -4.164472
     86          1           0        6.047423    1.525953   -4.825801
     87          8           0        5.819616    4.082372   -1.758938
     88          6           0        7.510540    2.976343   -4.226839
     89          1           0        7.671439    3.328780   -5.253957
     90          1           0        7.574106    3.862495   -3.585812
     91          6           0        5.057423    3.425437   -4.702304
     92          1           0        5.044050    4.329181   -4.088608
     93          1           0        4.039597    3.020468   -4.745282
     94          1           0        5.329724    3.710888   -5.724695
     95          6           0        8.626284    1.986490   -3.868512
     96          1           0        9.609185    2.432486   -4.055223
     97          1           0        8.559648    1.071073   -4.469753
     98          1           0        8.604432    1.692342   -2.812442
     99          7           0        5.642566    2.286476   -0.376556
    100          1           0        5.608381    1.268765   -0.298512
    101          6           0        5.545567    3.051778    0.853604
    102          1           0        6.088042    3.992905    0.719276
    103          6           0        6.137598    2.203219    1.988334
    104          6           0        4.087942    3.309678    1.325724
    105          1           0        4.125062    3.625766    2.374918
    106          1           0        3.562389    2.349104    1.319876
    107          8           0        5.880905    0.996471    2.048891
    108          6           0        3.144280    4.324768    0.672578
    109          7           0        3.624002    5.135273   -0.290579
    110          1           0        4.499409    4.944123   -0.783069
    111          1           0        2.962000    5.769684   -0.719191
    112          8           0        1.993900    4.397265    1.113477
    113          7           0        6.808651    2.863135    2.962296
    114          1           0        6.935984    3.864466    2.884089
    115          6           0        7.144375    2.229417    4.250537
    116          1           0        7.349721    1.178307    4.023566
    117          6           0        5.873719    2.319577    5.138049
    118          6           0        8.379642    2.870818    4.906640
    119          1           0        8.107356    3.897742    5.186783
    120          8           0        5.735797    3.128840    6.046302
    121          6           0        8.749971    2.115969    6.193730
    122          1           0        9.007042    1.071294    5.976050
    123          1           0        9.624737    2.579670    6.661200
    124          1           0        7.934124    2.133023    6.920358
    125          6           0        9.574782    2.907123    3.941543
    126          1           0        9.865598    1.894247    3.636605
    127          1           0       10.438278    3.366673    4.433498
    128          1           0        9.368375    3.480112    3.031628
    129          7           0        4.879456    1.455375    4.763637
    130          1           0        5.025339    0.902261    3.921571
    131          6           0        3.545645    1.574315    5.343798
    132          1           0        3.681522    1.677981    6.429043
    133          6           0        2.787123    0.270000    5.104168
    134          6           0        2.762860    2.789889    4.813878
    135          1           0        2.526965    2.608399    3.760681
    136          1           0        3.440737    3.647689    4.844729
    137          8           0        1.669576    0.181311    4.612957
    138          6           0        1.493227    3.122374    5.618436
    139          1           0        1.774569    3.650432    6.536872
    140          1           0        1.003061    2.198749    5.950605
    141          6           0        0.473504    3.989866    4.854874
    142          1           0       -0.389339    4.176341    5.508558
    143          1           0        0.905901    4.973081    4.633028
    144          6           0       -0.009051    3.422073    3.516038
    145          1           0       -0.871912    3.980472    3.144877
    146          1           0        0.758111    3.461853    2.737777
    147          7           0       -0.451419    1.980843    3.628270
    148          1           0       -0.876269    1.651048    2.713039
    149          1           0       -1.171029    1.868404    4.348302
    150          1           0        0.335633    1.359097    3.889691
    151          8           0        3.475580   -0.805476    5.493223
    152          1           0        2.928745   -1.593434    5.305940
 ---------------------------------------------------------------------

 SCF Done:  E(RB3LYP) =  -3473.82619397     A.U. after    2 cycles

 Alpha  occ. eigenvalues --  -19.30631 -19.26989 -19.26079 -19.23403 -19.21030
 Alpha  occ. eigenvalues --  -19.20968 -19.20159 -19.20132 -19.19773 -19.19750
 Alpha  occ. eigenvalues --  -19.19624 -19.19449 -19.18553 -19.18085 -14.52630
 Alpha  occ. eigenvalues --  -14.45682 -14.45075 -14.44707 -14.44201 -14.44171
 Alpha  occ. eigenvalues --  -14.43830 -14.43647 -14.43217 -14.43098 -14.42054
 Alpha  occ. eigenvalues --  -14.41565 -10.43684 -10.41668 -10.38049 -10.37994
 Alpha  occ. eigenvalues --  -10.37325 -10.37224 -10.36824 -10.36672 -10.36672
 Alpha  occ. eigenvalues --  -10.36257 -10.36184 -10.35480 -10.33560 -10.33005
 Alpha  occ. eigenvalues --  -10.32709 -10.32446 -10.32424 -10.32031 -10.31144
 Alpha  occ. eigenvalues --  -10.31130 -10.30815 -10.29400 -10.29183 -10.28974
 Alpha  occ. eigenvalues --  -10.28652 -10.28310 -10.28245 -10.27957 -10.27887
 Alpha  occ. eigenvalues --  -10.27286 -10.26361 -10.25482 -10.25395 -10.25252
 Alpha  occ. eigenvalues --  -10.25226 -10.24907 -10.24535 -10.23855 -10.23674
 Alpha  occ. eigenvalues --  -10.23280 -10.23208 -10.22863 -10.22815 -10.22273
 Alpha  occ. eigenvalues --  -10.22135  -1.22079  -1.18631  -1.13081  -1.12985
 Alpha  occ. eigenvalues --   -1.12873  -1.12375  -1.11638  -1.11556  -1.11379
 Alpha  occ. eigenvalues --   -1.11096  -1.11014  -1.10157  -1.10083  -1.09690
 Alpha  occ. eigenvalues --   -1.07572  -1.01736  -1.01536  -1.01122  -1.00820
 Alpha  occ. eigenvalues --   -1.00501  -1.00167  -1.00017  -0.99954  -0.98465
 Alpha  occ. eigenvalues --   -0.98132  -0.96660  -0.90306  -0.89275  -0.88270
 Alpha  occ. eigenvalues --   -0.88028  -0.87492  -0.87195  -0.86528  -0.85990
 Alpha  occ. eigenvalues --   -0.85576  -0.83715  -0.83526  -0.82027  -0.81260
 Alpha  occ. eigenvalues --   -0.80176  -0.78975  -0.78533  -0.77033  -0.76519
 Alpha  occ. eigenvalues --   -0.75744  -0.75084  -0.74866  -0.74166  -0.74052
 Alpha  occ. eigenvalues --   -0.73394  -0.72966  -0.72106  -0.70883  -0.70667
 Alpha  occ. eigenvalues --   -0.69446  -0.68685  -0.68589  -0.67799  -0.67535
 Alpha  occ. eigenvalues --   -0.67298  -0.67259  -0.66673  -0.66420  -0.66313
 Alpha  occ. eigenvalues --   -0.66043  -0.65842  -0.65806  -0.65686  -0.64992
 Alpha  occ. eigenvalues --   -0.64220  -0.63499  -0.63069  -0.62717  -0.62379
 Alpha  occ. eigenvalues --   -0.62100  -0.61653  -0.61292  -0.61123  -0.60377
 Alpha  occ. eigenvalues --   -0.60073  -0.59592  -0.59273  -0.58674  -0.58454
 Alpha  occ. eigenvalues --   -0.57893  -0.57626  -0.57509  -0.57159  -0.57090
 Alpha  occ. eigenvalues --   -0.56939  -0.56524  -0.56374  -0.55820  -0.55759
 Alpha  occ. eigenvalues --   -0.55294  -0.55245  -0.55133  -0.54881  -0.54545
 Alpha  occ. eigenvalues --   -0.54192  -0.53647  -0.53427  -0.53335  -0.53020
 Alpha  occ. eigenvalues --   -0.52761  -0.52367  -0.52112  -0.51451  -0.51294
 Alpha  occ. eigenvalues --   -0.51035  -0.50955  -0.50815  -0.50476  -0.50323
 Alpha  occ. eigenvalues --   -0.50125  -0.49975  -0.49894  -0.49836  -0.49569
 Alpha  occ. eigenvalues --   -0.49406  -0.48967  -0.48797  -0.48656  -0.48634
 Alpha  occ. eigenvalues --   -0.48325  -0.48217  -0.48205  -0.48137  -0.47806
 Alpha  occ. eigenvalues --   -0.47568  -0.47453  -0.47346  -0.47219  -0.47067
 Alpha  occ. eigenvalues --   -0.46825  -0.46573  -0.46337  -0.46211  -0.46073
 Alpha  occ. eigenvalues --   -0.46035  -0.45830  -0.45732  -0.45606  -0.45499
 Alpha  occ. eigenvalues --   -0.45374  -0.45242  -0.44944  -0.44748  -0.44577
 Alpha  occ. eigenvalues --   -0.44343  -0.44184  -0.44099  -0.44061  -0.44005
 Alpha  occ. eigenvalues --   -0.43873  -0.43677  -0.43524  -0.43262  -0.43201
 Alpha  occ. eigenvalues --   -0.42961  -0.42708  -0.42449  -0.42323  -0.42202
 Alpha  occ. eigenvalues --   -0.41587  -0.41045  -0.40414  -0.40338  -0.40124
 Alpha  occ. eigenvalues --   -0.39803  -0.39680  -0.39396  -0.39248  -0.39137
 Alpha  occ. eigenvalues --   -0.38882  -0.38687  -0.38552  -0.38377  -0.38165
 Alpha  occ. eigenvalues --   -0.37798  -0.37448  -0.37096  -0.36686  -0.36302
 Alpha  occ. eigenvalues --   -0.36103  -0.35346  -0.35263  -0.34881  -0.34700
 Alpha  occ. eigenvalues --   -0.34548  -0.34127  -0.33972  -0.33758  -0.33431
 Alpha  occ. eigenvalues --   -0.33075  -0.32697  -0.32538  -0.32331  -0.32279
 Alpha  occ. eigenvalues --   -0.31387  -0.31181  -0.30762
 Alpha virt. eigenvalues --   -0.11017  -0.09038  -0.08041  -0.08005  -0.07134
 Alpha virt. eigenvalues --   -0.06854  -0.05952  -0.05505  -0.05342  -0.05004
 Alpha virt. eigenvalues --   -0.04885  -0.04223  -0.03723  -0.03209  -0.01635

 Mulliken charges:
               1
     1  N   -0.785999
     2  H    0.356396
     3  H    0.334609
     4  H    0.472992
     5  C   -0.060631
     6  H    0.180708
     7  C    0.635260
     8  C   -0.472366
     9  H    0.189438
    10  H    0.167134
    11  H    0.164780
    12  O   -0.564443
    13  N   -0.636287
    14  H    0.405438
    15  C   -0.077997
    16  H    0.192938
    17  C    0.623813
    18  C   -0.376304
    19  H    0.195412
    20  H    0.171343
    21  O   -0.524664
    22  C    0.633411
    23  N   -0.727206
    24  H    0.353477
    25  H    0.354324
    26  O   -0.539603
    27  N   -0.605449
    28  H    0.380544
    29  C   -0.077362
    30  H    0.177470
    31  C    0.645167
    32  C   -0.294689
    33  H    0.177891
    34  H    0.180417
    35  O   -0.542781
    36  C   -0.368872
    37  H    0.168422
    38  H    0.193041
    39  C    0.618006
    40  O   -0.612064
    41  O   -0.520108
    42  N   -0.603587
    43  H    0.344257
    44  C   -0.054111
    45  H    0.182188
    46  C    0.625326
    47  C   -0.280450
    48  H    0.155682
    49  H    0.146877
    50  O   -0.554179
    51  C   -0.085062
    52  H    0.142497
    53  C   -0.451915
    54  H    0.147515
    55  H    0.141606
    56  H    0.156966
    57  C   -0.446448
    58  H    0.145225
    59  H    0.149288
    60  H    0.152654
    61  N   -0.604949
    62  H    0.370173
    63  C   -0.059412
    64  H    0.171667
    65  C    0.622914
    66  C   -0.299062
    67  H    0.148199
    68  H    0.170542
    69  O   -0.536657
    70  C   -0.082450
    71  H    0.161188
    72  C   -0.477997
    73  H    0.136179
    74  H    0.148249
    75  H    0.138198
    76  C   -0.443094
    77  H    0.140334
    78  H    0.166465
    79  H    0.118584
    80  N   -0.637130
    81  H    0.398065
    82  C   -0.073954
    83  H    0.194637
    84  C    0.632855
    85  C   -0.073961
    86  H    0.133334
    87  O   -0.552423
    88  C   -0.266728
    89  H    0.139051
    90  H    0.163364
    91  C   -0.489727
    92  H    0.174487
    93  H    0.152844
    94  H    0.148735
    95  C   -0.457319
    96  H    0.155095
    97  H    0.147589
    98  H    0.141689
    99  N   -0.620283
   100  H    0.393690
   101  C   -0.049275
   102  H    0.176527
   103  C    0.616318
   104  C   -0.375965
   105  H    0.176697
   106  H    0.183889
   107  O   -0.544382
   108  C    0.587485
   109  N   -0.773656
   110  H    0.403800
   111  H    0.343704
   112  O   -0.531569
   113  N   -0.602670
   114  H    0.345336
   115  C   -0.052619
   116  H    0.188384
   117  C    0.626622
   118  C   -0.099447
   119  H    0.149770
   120  O   -0.519244
   121  C   -0.463424
   122  H    0.145055
   123  H    0.160213
   124  H    0.175501
   125  C   -0.448040
   126  H    0.153801
   127  H    0.163137
   128  H    0.139403
   129  N   -0.637477
   130  H    0.373607
   131  C   -0.013024
   132  H    0.210307
   133  C    0.584059
   134  C   -0.282269
   135  H    0.148793
   136  H    0.184708
   137  O   -0.497783
   138  C   -0.299632
   139  H    0.177041
   140  H    0.133316
   141  C   -0.284022
   142  H    0.153565
   143  H    0.186835
   144  C   -0.217869
   145  H    0.196564
   146  H    0.255123
   147  N   -0.810565
   148  H    0.445330
   149  H    0.380342
   150  H    0.441261
   151  O   -0.526311
   152  H    0.429830
 Sum of Mulliken charges =   1.00000

 Dipole moment (field-independent basis, Debye):
    X=             -4.5475    Y=              1.5453    Z=              5.0924  Tot=              7.0001
 Quadrupole moment (field-independent basis, Debye-Ang):
   XX=           -303.2974   YY=           -390.1814   ZZ=           -311.4031
   XY=             46.4101   XZ=             27.3848   YZ=             11.6125

 Normal termination of Gaussian 16 at Mon Jul 11 13:23:46 2022.
