 Gaussian 16, Revision C.01,
 Gaussian 16:  ES64L-G16RevC.01  3-Jul-2019

 -------------------------------------------------------------------
 # B3LYP/6-31G* guess=read geom=check nosymm integral(ultrafinegrid)
 -------------------------------------------------------------------

 ------------------------------------------------------
 Candidate Structure: Conf:217 Charge calc in gas phase
 ------------------------------------------------------
 Structure from the checkpoint file:  "conf-217.chk"
 Charge =  1 Multiplicity = 1

                          Input orientation:
 ---------------------------------------------------------------------
 Center     Atomic      Atomic             Coordinates (Angstroms)
 Number     Number       Type             X           Y           Z
 ---------------------------------------------------------------------
      1          7           0       -6.821437    0.142674  -10.239642
      2          1           0       -6.035773   -0.422799   -9.784095
      3          1           0       -6.474640    0.635437  -11.069214
      4          1           0       -7.544231   -0.528947  -10.530228
      5          6           0       -7.437590    1.078565   -9.201606
      6          1           0       -6.677595    1.823932   -8.954449
      7          6           0       -7.683228    0.083606   -8.049614
      8          6           0       -8.706018    1.729201   -9.734942
      9          1           0       -9.101939    2.413114   -8.978761
     10          1           0       -9.469275    0.970489   -9.936564
     11          1           0       -8.513473    2.308526  -10.645387
     12          8           0       -8.511892   -0.805186   -8.230406
     13          7           0       -6.841926    0.184526   -7.010080
     14          1           0       -6.120133    0.904620   -6.953603
     15          6           0       -6.573850   -0.933987   -6.121912
     16          1           0       -7.508269   -1.287932   -5.675742
     17          6           0       -5.590496   -0.400659   -5.058671
     18          6           0       -5.941119   -2.116703   -6.930207
     19          1           0       -6.705806   -2.497243   -7.612129
     20          1           0       -5.668745   -2.925495   -6.244499
     21          8           0       -4.946242    0.628349   -5.311005
     22          6           0       -4.731533   -1.684788   -7.755756
     23          7           0       -3.523754   -1.913181   -7.219925
     24          1           0       -2.699389   -1.561082   -7.695648
     25          1           0       -3.403177   -2.246810   -6.271159
     26          8           0       -4.841065   -1.146372   -8.880379
     27          7           0       -5.459281   -1.137961   -3.950133
     28          1           0       -5.955917   -2.020162   -3.868958
     29          6           0       -4.460936   -0.861639   -2.899356
     30          1           0       -4.380243    0.227292   -2.823111
     31          6           0       -3.075584   -1.417632   -3.320606
     32          6           0       -4.915544   -1.449493   -1.563045
     33          1           0       -5.100222   -2.526575   -1.685249
     34          1           0       -4.073283   -1.364922   -0.873707
     35          8           0       -2.670357   -2.518666   -2.954675
     36          6           0       -6.117729   -0.770245   -0.899120
     37          1           0       -7.043970   -0.938340   -1.465432
     38          1           0       -5.929690    0.309951   -0.822020
     39          6           0       -6.244065   -1.388005    0.543455
     40          8           0       -5.457569   -0.905320    1.407119
     41          8           0       -7.049622   -2.341617    0.650794
     42          7           0       -2.328159   -0.586918   -4.123527
     43          1           0       -2.710824    0.335513   -4.307118
     44          6           0       -0.860807   -0.736390   -4.233272
     45          1           0       -0.679552   -1.814217   -4.245442
     46          6           0       -0.188430   -0.124857   -2.971773
     47          6           0       -0.360563   -0.075058   -5.525125
     48          1           0       -0.643575    0.986321   -5.502391
     49          1           0       -0.905555   -0.536079   -6.366006
     50          8           0        0.415802    0.946445   -3.021620
     51          6           0        1.157702   -0.165995   -5.797152
     52          1           0        1.658892    0.335330   -4.962943
     53          6           0        1.665967   -1.615672   -5.877318
     54          1           0        1.229578   -2.145705   -6.737024
     55          1           0        1.437879   -2.185808   -4.969760
     56          1           0        2.754706   -1.636855   -5.998281
     57          6           0        1.502080    0.614828   -7.076502
     58          1           0        0.974402    0.204902   -7.950412
     59          1           0        1.230918    1.673424   -6.982454
     60          1           0        2.577103    0.565244   -7.291886
     61          7           0       -0.398320   -0.805161   -1.814030
     62          1           0       -0.787978   -1.741211   -1.859848
     63          6           0        0.298246   -0.397747   -0.598979
     64          1           0        0.196560    0.687397   -0.514264
     65          6           0        1.784766   -0.780595   -0.733197
     66          6           0       -0.299395   -1.078433    0.654625
     67          1           0       -0.043814   -2.148292    0.616875
     68          1           0        0.217246   -0.663107    1.532767
     69          8           0        2.123389   -1.843465   -1.242482
     70          6           0       -1.824852   -0.908995    0.841845
     71          1           0       -2.317039   -1.423016    0.004907
     72          6           0       -2.295508   -1.601382    2.131062
     73          1           0       -1.839192   -1.134577    3.016271
     74          1           0       -2.032735   -2.668294    2.140202
     75          1           0       -3.382868   -1.505994    2.219229
     76          6           0       -2.285387    0.559029    0.843790
     77          1           0       -1.813290    1.110295    1.671483
     78          1           0       -2.023900    1.076447   -0.089816
     79          1           0       -3.376985    0.600764    0.971906
     80          7           0        2.673398    0.120985   -0.224016
     81          1           0        2.336719    0.945235    0.262748
     82          6           0        4.077144   -0.204090   -0.008283
     83          1           0        4.166583   -1.292263   -0.091739
     84          6           0        4.396232    0.248136    1.422985
     85          6           0        5.026421    0.461294   -1.054817
     86          1           0        4.850501    1.545178   -0.988612
     87          8           0        3.914372    1.301401    1.875622
     88          6           0        4.668716    0.038837   -2.502269
     89          1           0        3.623035    0.308550   -2.693985
     90          1           0        5.273911    0.667358   -3.172369
     91          6           0        6.509051    0.195321   -0.729767
     92          1           0        6.713641   -0.869723   -0.564331
     93          1           0        6.840216    0.737707    0.162348
     94          1           0        7.141751    0.519200   -1.564402
     95          6           0        4.894310   -1.441490   -2.854205
     96          1           0        4.596301   -1.628539   -3.894257
     97          1           0        4.284365   -2.098733   -2.229262
     98          1           0        5.948227   -1.732725   -2.761546
     99          7           0        5.200638   -0.553540    2.159320
    100          1           0        5.741134   -1.312262    1.742458
    101          6           0        5.587658   -0.202427    3.526743
    102          1           0        4.710206    0.269896    3.982639
    103          6           0        6.736594    0.832573    3.568317
    104          6           0        5.944026   -1.478605    4.302444
    105          1           0        5.073208   -2.145603    4.257316
    106          1           0        6.117393   -1.234089    5.355447
    107          8           0        7.891454    0.505820    3.875476
    108          6           0        7.113806   -2.255262    3.689263
    109          7           0        8.026069   -2.763511    4.561251
    110          1           0        8.066095   -2.458011    5.521791
    111          1           0        8.829699   -3.240932    4.172830
    112          8           0        7.177380   -2.482745    2.480868
    113          7           0        6.356383    2.091802    3.255823
    114          1           0        5.399374    2.206893    2.916904
    115          6           0        7.325248    3.187144    3.085095
    116          1           0        8.209932    2.759661    2.594796
    117          6           0        7.736658    3.700145    4.486394
    118          6           0        6.773180    4.339594    2.218588
    119          1           0        5.943277    4.795615    2.775512
    120          8           0        7.205711    4.653843    5.044686
    121          6           0        7.863914    5.407535    2.020302
    122          1           0        8.718894    4.997671    1.464334
    123          1           0        7.465078    6.246689    1.439929
    124          1           0        8.228128    5.802321    2.972975
    125          6           0        6.256737    3.849494    0.853390
    126          1           0        7.043382    3.321863    0.297318
    127          1           0        5.944367    4.708511    0.248141
    128          1           0        5.394701    3.180801    0.936229
    129          7           0        8.771430    3.012131    5.058529
    130          1           0        8.965524    2.086310    4.677139
    131          6           0        9.151185    3.326734    6.420734
    132          1           0        8.298288    3.229150    7.105187
    133          6           0        9.602646    4.783636    6.585847
    134          6           0       10.289578    2.386394    6.874893
    135          1           0       11.171837    2.566025    6.245390
    136          1           0        9.972749    1.349267    6.696555
    137          8           0        9.427066    5.422226    7.601100
    138          6           0       10.638909    2.576787    8.360912
    139          1           0        9.743786    2.391573    8.970514
    140          1           0       10.920842    3.620695    8.543906
    141          6           0       11.779396    1.652026    8.827625
    142          1           0       11.512594    0.599225    8.651552
    143          1           0       12.686709    1.855831    8.239507
    144          6           0       12.062296    1.878974   10.311767
    145          1           0       12.363280    2.908602   10.521355
    146          1           0       11.202869    1.634362   10.941126
    147          7           0       13.211130    0.996932   10.806275
    148          1           0       13.412097    1.150161   11.811426
    149          1           0       14.082381    1.190232   10.279536
    150          1           0       12.992450   -0.008211   10.680088
    151          8           0       10.314126    5.238445    5.532775
    152          1           0       10.554853    6.162498    5.747394
 ---------------------------------------------------------------------

 SCF Done:  E(RB3LYP) =  -3473.63513211     A.U. after    3 cycles

 Alpha  occ. eigenvalues --  -19.26500 -19.22860 -19.22368 -19.20677 -19.19957
 Alpha  occ. eigenvalues --  -19.18795 -19.17761 -19.17718 -19.17597 -19.16422
 Alpha  occ. eigenvalues --  -19.14605 -19.13935 -19.02036 -19.02011 -14.63744
 Alpha  occ. eigenvalues --  -14.56225 -14.46196 -14.45763 -14.43886 -14.42232
 Alpha  occ. eigenvalues --  -14.42081 -14.41874 -14.41744 -14.40740 -14.38860
 Alpha  occ. eigenvalues --  -14.38314 -10.41281 -10.40063 -10.39722 -10.38965
 Alpha  occ. eigenvalues --  -10.37404 -10.37018 -10.35742 -10.35309 -10.34431
 Alpha  occ. eigenvalues --  -10.34380 -10.34310 -10.33571 -10.33319 -10.31642
 Alpha  occ. eigenvalues --  -10.31553 -10.31009 -10.30867 -10.30254 -10.29764
 Alpha  occ. eigenvalues --  -10.29725 -10.29708 -10.28895 -10.27446 -10.27301
 Alpha  occ. eigenvalues --  -10.27080 -10.26778 -10.25286 -10.24412 -10.23115
 Alpha  occ. eigenvalues --  -10.22975 -10.22174 -10.21853 -10.21838 -10.21478
 Alpha  occ. eigenvalues --  -10.20968 -10.20750 -10.20673 -10.20558 -10.20259
 Alpha  occ. eigenvalues --  -10.19108 -10.19105 -10.18741 -10.16420 -10.15162
 Alpha  occ. eigenvalues --  -10.15118  -1.17373  -1.17333  -1.15087  -1.13531
 Alpha  occ. eigenvalues --   -1.11655  -1.10445  -1.10229  -1.09533  -1.09227
 Alpha  occ. eigenvalues --   -1.09047  -1.08278  -1.08114  -1.06516  -1.05579
 Alpha  occ. eigenvalues --   -1.03023  -1.00609  -0.99897  -0.99067  -0.98773
 Alpha  occ. eigenvalues --   -0.97915  -0.96778  -0.96614  -0.95333  -0.94994
 Alpha  occ. eigenvalues --   -0.94750  -0.94632  -0.89873  -0.88611  -0.87232
 Alpha  occ. eigenvalues --   -0.86237  -0.85927  -0.84791  -0.84671  -0.83577
 Alpha  occ. eigenvalues --   -0.82722  -0.82014  -0.81295  -0.79439  -0.78316
 Alpha  occ. eigenvalues --   -0.78242  -0.77333  -0.76495  -0.76010  -0.75836
 Alpha  occ. eigenvalues --   -0.75337  -0.74527  -0.73850  -0.72975  -0.72014
 Alpha  occ. eigenvalues --   -0.71815  -0.71667  -0.71427  -0.71085  -0.70456
 Alpha  occ. eigenvalues --   -0.69025  -0.68492  -0.68134  -0.67478  -0.67167
 Alpha  occ. eigenvalues --   -0.66923  -0.66219  -0.66148  -0.65751  -0.65417
 Alpha  occ. eigenvalues --   -0.64965  -0.64154  -0.64025  -0.63065  -0.63030
 Alpha  occ. eigenvalues --   -0.62972  -0.62435  -0.62355  -0.61727  -0.60935
 Alpha  occ. eigenvalues --   -0.60917  -0.60222  -0.59907  -0.59501  -0.59179
 Alpha  occ. eigenvalues --   -0.58946  -0.58902  -0.58612  -0.57779  -0.57542
 Alpha  occ. eigenvalues --   -0.56791  -0.56285  -0.56118  -0.55835  -0.55676
 Alpha  occ. eigenvalues --   -0.55283  -0.55107  -0.55028  -0.54701  -0.53961
 Alpha  occ. eigenvalues --   -0.53447  -0.53161  -0.52785  -0.52592  -0.52530
 Alpha  occ. eigenvalues --   -0.52161  -0.51995  -0.51790  -0.51227  -0.50993
 Alpha  occ. eigenvalues --   -0.50805  -0.50337  -0.49934  -0.49874  -0.49655
 Alpha  occ. eigenvalues --   -0.49460  -0.49263  -0.49198  -0.48781  -0.48701
 Alpha  occ. eigenvalues --   -0.48481  -0.48144  -0.47957  -0.47815  -0.47502
 Alpha  occ. eigenvalues --   -0.47315  -0.46883  -0.46736  -0.46532  -0.46488
 Alpha  occ. eigenvalues --   -0.46318  -0.46307  -0.46140  -0.46103  -0.45536
 Alpha  occ. eigenvalues --   -0.45205  -0.45158  -0.44733  -0.44571  -0.44438
 Alpha  occ. eigenvalues --   -0.44380  -0.44269  -0.43907  -0.43814  -0.43642
 Alpha  occ. eigenvalues --   -0.43577  -0.43258  -0.42872  -0.42682  -0.42398
 Alpha  occ. eigenvalues --   -0.42289  -0.42034  -0.41907  -0.41840  -0.41561
 Alpha  occ. eigenvalues --   -0.41301  -0.41088  -0.40963  -0.40498  -0.40097
 Alpha  occ. eigenvalues --   -0.39710  -0.39669  -0.38859  -0.38713  -0.38461
 Alpha  occ. eigenvalues --   -0.38355  -0.38167  -0.37891  -0.37619  -0.36885
 Alpha  occ. eigenvalues --   -0.36804  -0.36657  -0.36529  -0.36161  -0.36005
 Alpha  occ. eigenvalues --   -0.35789  -0.35612  -0.35583  -0.35465  -0.35179
 Alpha  occ. eigenvalues --   -0.35079  -0.34910  -0.34795  -0.34633  -0.34420
 Alpha  occ. eigenvalues --   -0.34188  -0.33745  -0.33591  -0.33115  -0.32519
 Alpha  occ. eigenvalues --   -0.32046  -0.31974  -0.31927  -0.31801  -0.31641
 Alpha  occ. eigenvalues --   -0.31420  -0.30752  -0.30346  -0.29793  -0.29629
 Alpha  occ. eigenvalues --   -0.29073  -0.28890  -0.28070  -0.27336  -0.26730
 Alpha  occ. eigenvalues --   -0.17460  -0.16393  -0.15526
 Alpha virt. eigenvalues --   -0.15054  -0.10109  -0.08772  -0.08182  -0.08139
 Alpha virt. eigenvalues --   -0.06717  -0.06346  -0.05827  -0.05674  -0.05426
 Alpha virt. eigenvalues --   -0.04174  -0.03983  -0.03487  -0.03314  -0.02368

 Mulliken charges:
               1
     1  N   -0.767530
     2  H    0.457621
     3  H    0.402969
     4  H    0.409055
     5  C   -0.102110
     6  H    0.202952
     7  C    0.624914
     8  C   -0.463241
     9  H    0.211028
    10  H    0.202146
    11  H    0.172379
    12  O   -0.516571
    13  N   -0.595950
    14  H    0.369308
    15  C   -0.059231
    16  H    0.216158
    17  C    0.640201
    18  C   -0.386270
    19  H    0.213118
    20  H    0.184740
    21  O   -0.556346
    22  C    0.627191
    23  N   -0.714035
    24  H    0.371406
    25  H    0.382496
    26  O   -0.581361
    27  N   -0.596499
    28  H    0.351565
    29  C   -0.060162
    30  H    0.180786
    31  C    0.598880
    32  C   -0.316095
    33  H    0.152203
    34  H    0.204558
    35  O   -0.525787
    36  C   -0.315160
    37  H    0.100126
    38  H    0.113199
    39  C    0.545467
    40  O   -0.579615
    41  O   -0.569029
    42  N   -0.620949
    43  H    0.350096
    44  C   -0.076398
    45  H    0.178075
    46  C    0.640346
    47  C   -0.251476
    48  H    0.148510
    49  H    0.091498
    50  O   -0.537570
    51  C   -0.085234
    52  H    0.178679
    53  C   -0.457022
    54  H    0.123146
    55  H    0.162219
    56  H    0.152697
    57  C   -0.444999
    58  H    0.121146
    59  H    0.146189
    60  H    0.146731
    61  N   -0.602714
    62  H    0.364677
    63  C   -0.052233
    64  H    0.167075
    65  C    0.632757
    66  C   -0.289911
    67  H    0.148291
    68  H    0.131411
    69  O   -0.536690
    70  C   -0.069286
    71  H    0.133179
    72  C   -0.471970
    73  H    0.111772
    74  H    0.119499
    75  H    0.236591
    76  C   -0.475605
    77  H    0.121780
    78  H    0.117280
    79  H    0.205377
    80  N   -0.609068
    81  H    0.348579
    82  C   -0.047551
    83  H    0.180536
    84  C    0.625977
    85  C   -0.069526
    86  H    0.137837
    87  O   -0.570788
    88  C   -0.267631
    89  H    0.168456
    90  H    0.125742
    91  C   -0.482735
    92  H    0.158072
    93  H    0.145041
    94  H    0.152636
    95  C   -0.471153
    96  H    0.140338
    97  H    0.190624
    98  H    0.131574
    99  N   -0.612798
   100  H    0.388066
   101  C   -0.073823
   102  H    0.192248
   103  C    0.639241
   104  C   -0.377330
   105  H    0.200999
   106  H    0.147752
   107  O   -0.563508
   108  C    0.643345
   109  N   -0.740781
   110  H    0.333610
   111  H    0.347898
   112  O   -0.524828
   113  N   -0.632700
   114  H    0.389890
   115  C   -0.035547
   116  H    0.161891
   117  C    0.630309
   118  C   -0.104212
   119  H    0.164164
   120  O   -0.518287
   121  C   -0.462375
   122  H    0.137922
   123  H    0.154983
   124  H    0.168383
   125  C   -0.479204
   126  H    0.144727
   127  H    0.156128
   128  H    0.171511
   129  N   -0.638190
   130  H    0.365698
   131  C    0.017459
   132  H    0.181200
   133  C    0.602437
   134  C   -0.319124
   135  H    0.171106
   136  H    0.158881
   137  O   -0.472811
   138  C   -0.280628
   139  H    0.164820
   140  H    0.184868
   141  C   -0.287360
   142  H    0.163168
   143  H    0.168275
   144  C   -0.204104
   145  H    0.228800
   146  H    0.225749
   147  N   -0.694763
   148  H    0.397844
   149  H    0.393035
   150  H    0.391145
   151  O   -0.556682
   152  H    0.418109
 Sum of Mulliken charges =   1.00000

 Dipole moment (field-independent basis, Debye):
    X=             49.9335    Y=              7.2784    Z=              7.3287  Tot=             50.9906
 Quadrupole moment (field-independent basis, Debye-Ang):
   XX=            333.5446   YY=           -434.6586   ZZ=            353.3296
   XY=              2.4979   XZ=            823.7161   YZ=              9.5740

 Normal termination of Gaussian 16 at Mon Jul 11 13:23:49 2022.
