 Gaussian 16, Revision C.01,
 Gaussian 16:  ES64L-G16RevC.01  3-Jul-2019

 -------------------------------------------------------------------
 # B3LYP/6-31G* guess=read geom=check nosymm integral(ultrafinegrid)
 -------------------------------------------------------------------

 ------------------------------------------------------
 Candidate Structure: Conf:367 Charge calc in gas phase
 ------------------------------------------------------
 Structure from the checkpoint file:  "conf-367.chk"
 Charge =  1 Multiplicity = 1

                          Input orientation:
 ---------------------------------------------------------------------
 Center     Atomic      Atomic             Coordinates (Angstroms)
 Number     Number       Type             X           Y           Z
 ---------------------------------------------------------------------
      1          7           0       -7.549056   -5.592071   -0.428242
      2          1           0       -6.865256   -6.241195   -0.819679
      3          1           0       -8.266529   -6.151471    0.032078
      4          1           0       -6.508164   -4.976136    1.038414
      5          6           0       -8.157209   -4.848698   -1.552540
      6          1           0       -8.746589   -5.522245   -2.199059
      7          6           0       -6.990647   -4.366128   -2.432224
      8          6           0       -9.084696   -3.750970   -1.027064
      9          1           0       -9.631794   -3.259593   -1.838349
     10          1           0       -8.526246   -2.997932   -0.462509
     11          1           0       -9.832541   -4.188867   -0.357385
     12          8           0       -5.968760   -5.063969   -2.524246
     13          7           0       -7.122147   -3.179778   -3.063982
     14          1           0       -8.041136   -2.743383   -3.137787
     15          6           0       -6.140372   -2.706816   -4.049387
     16          1           0       -5.757615   -3.584016   -4.586138
     17          6           0       -4.947940   -2.025195   -3.316646
     18          6           0       -6.773045   -1.698810   -5.030304
     19          1           0       -6.091524   -1.573255   -5.876606
     20          1           0       -6.827716   -0.725671   -4.531431
     21          8           0       -4.708322   -0.818930   -3.429160
     22          6           0       -8.186742   -2.052901   -5.478698
     23          7           0       -8.390710   -2.155824   -6.814807
     24          1           0       -9.334110   -2.311648   -7.145059
     25          1           0       -7.672129   -1.954260   -7.493233
     26          8           0       -9.098683   -2.213394   -4.664749
     27          7           0       -4.233860   -2.851083   -2.519976
     28          1           0       -4.530708   -3.828253   -2.479526
     29          6           0       -3.376756   -2.329774   -1.450274
     30          1           0       -3.785137   -1.348410   -1.176154
     31          6           0       -1.940894   -2.088881   -1.955046
     32          6           0       -3.410481   -3.253669   -0.230932
     33          1           0       -3.030470   -4.243318   -0.509048
     34          1           0       -2.726056   -2.871948    0.530388
     35          8           0       -0.994565   -2.822493   -1.644004
     36          6           0       -4.815809   -3.361151    0.369232
     37          1           0       -5.513853   -3.783493   -0.353440
     38          1           0       -5.189978   -2.359388    0.626741
     39          6           0       -4.835131   -4.185307    1.655646
     40          8           0       -3.948899   -4.122827    2.480740
     41          8           0       -5.915588   -4.958246    1.839145
     42          7           0       -1.800774   -0.983448   -2.724426
     43          1           0       -2.653075   -0.493367   -2.994127
     44          6           0       -0.528052   -0.611189   -3.351616
     45          1           0       -0.025275   -1.543476   -3.634776
     46          6           0        0.381225    0.095502   -2.314399
     47          6           0       -0.753236    0.273778   -4.581642
     48          1           0        0.233776    0.551298   -4.972146
     49          1           0       -1.214389    1.213600   -4.254033
     50          8           0        0.657822    1.298581   -2.379028
     51          6           0       -1.590338   -0.354725   -5.714670
     52          1           0       -2.587632   -0.593021   -5.318201
     53          6           0       -1.775832    0.673678   -6.841212
     54          1           0       -0.811237    0.948293   -7.287007
     55          1           0       -2.246717    1.592203   -6.472223
     56          1           0       -2.406890    0.270511   -7.641467
     57          6           0       -0.970560   -1.651237   -6.257899
     58          1           0        0.048065   -1.475578   -6.628144
     59          1           0       -0.921657   -2.440563   -5.499162
     60          1           0       -1.560563   -2.041477   -7.095051
     61          7           0        0.855900   -0.713293   -1.331594
     62          1           0        0.506938   -1.674707   -1.319048
     63          6           0        1.534258   -0.176575   -0.149044
     64          1           0        1.102775    0.814037    0.039763
     65          6           0        3.037276    0.049664   -0.451647
     66          6           0        1.336849   -1.077086    1.077434
     67          1           0        1.840994   -2.034399    0.892069
     68          1           0        1.865172   -0.601003    1.916349
     69          8           0        3.946214   -0.617464    0.079931
     70          6           0       -0.121861   -1.341814    1.503415
     71          1           0       -0.624916   -1.850763    0.673141
     72          6           0       -0.151396   -2.301009    2.703909
     73          1           0        0.282438   -1.832046    3.597843
     74          1           0        0.410365   -3.219485    2.493985
     75          1           0       -1.178483   -2.595952    2.945000
     76          6           0       -0.889532   -0.049317    1.817880
     77          1           0       -0.393296    0.521139    2.614897
     78          1           0       -0.984638    0.604592    0.943102
     79          1           0       -1.902335   -0.279070    2.166377
     80          7           0        3.285525    1.030187   -1.337055
     81          1           0        2.471289    1.476343   -1.766554
     82          6           0        4.632056    1.323493   -1.838689
     83          1           0        5.157910    0.365030   -1.876940
     84          6           0        5.375987    2.216521   -0.815724
     85          6           0        4.588349    1.902745   -3.275488
     86          1           0        4.161916    1.092953   -3.886987
     87          8           0        5.311733    3.446395   -0.793128
     88          6           0        6.007316    2.188252   -3.815204
     89          1           0        5.891904    2.552762   -4.843418
     90          1           0        6.446500    3.019431   -3.249166
     91          6           0        3.687715    3.140455   -3.440036
     92          1           0        4.028445    3.963674   -2.808532
     93          1           0        2.637133    2.931239   -3.209972
     94          1           0        3.717683    3.471389   -4.484086
     95          6           0        6.967319    0.991606   -3.822056
     96          1           0        7.898527    1.250535   -4.337132
     97          1           0        6.531170    0.130550   -4.343699
     98          1           0        7.240169    0.667299   -2.810737
     99          7           0        6.114672    1.516868    0.088071
    100          1           0        6.002118    0.510105    0.147704
    101          6           0        6.920928    2.162303    1.107984
    102          1           0        7.614398    2.848629    0.608067
    103          6           0        7.734039    1.076108    1.821979
    104          6           0        6.123130    3.028023    2.147428
    105          1           0        6.058603    4.044027    1.754715
    106          1           0        6.670096    3.046231    3.095511
    107          8           0        7.316362   -0.082891    1.948820
    108          6           0        4.723819    2.502037    2.447576
    109          7           0        3.724332    3.130329    1.792420
    110          1           0        3.922956    3.739637    1.007073
    111          1           0        2.773177    2.820247    1.940416
    112          8           0        4.517972    1.588578    3.256511
    113          7           0        8.935998    1.474004    2.293489
    114          1           0        9.131238    2.466866    2.269936
    115          6           0        9.644627    0.705164    3.311923
    116          1           0        9.665787   -0.334079    2.968785
    117          6           0        8.824480    0.778529    4.621830
    118          6           0       11.104085    1.199234    3.496768
    119          1           0       11.508494    0.597918    4.322560
    120          8           0        8.046406    1.704565    4.833747
    121          6           0       11.948301    0.915006    2.245683
    122          1           0       11.579089    1.474051    1.378414
    123          1           0       12.989231    1.210298    2.413446
    124          1           0       11.938384   -0.149842    1.986587
    125          6           0       11.192265    2.676237    3.917507
    126          1           0       10.918548    3.354261    3.097750
    127          1           0       12.222935    2.923559    4.190368
    128          1           0       10.549956    2.903250    4.773863
    129          7           0        9.014814   -0.249853    5.491861
    130          1           0        9.668359   -0.987694    5.265676
    131          6           0        8.182748   -0.400970    6.678110
    132          1           0        7.743515    0.583488    6.858359
    133          6           0        8.973019   -0.778526    7.924151
    134          6           0        7.026811   -1.423323    6.480431
    135          1           0        6.317171   -1.272272    7.301147
    136          1           0        7.410133   -2.447737    6.583759
    137          8           0        8.496227   -0.791021    9.033278
    138          6           0        6.345372   -1.269641    5.114064
    139          1           0        7.041699   -1.614831    4.338951
    140          1           0        6.165392   -0.207390    4.910886
    141          6           0        5.020962   -2.040767    4.993645
    142          1           0        5.096907   -3.023399    5.476215
    143          1           0        4.226203   -1.499281    5.522150
    144          6           0        4.600193   -2.294697    3.541923
    145          1           0        5.228940   -3.059437    3.076823
    146          1           0        3.560943   -2.627634    3.481070
    147          7           0        4.728998   -1.069743    2.685463
    148          1           0        4.275767   -1.158374    1.751119
    149          1           0        5.717153   -0.818942    2.490358
    150          1           0        4.344115   -0.206103    3.112010
    151          8           0       10.245515   -1.155149    7.650944
    152          1           0       10.648912   -1.406344    8.504458
 ---------------------------------------------------------------------

 SCF Done:  E(RB3LYP) =  -3473.82818477     A.U. after    3 cycles

 Alpha  occ. eigenvalues --  -19.27838 -19.23528 -19.22288 -19.21579 -19.21379
 Alpha  occ. eigenvalues --  -19.21220 -19.20596 -19.20564 -19.20371 -19.20122
 Alpha  occ. eigenvalues --  -19.19953 -19.19744 -19.19383 -19.16334 -14.50845
 Alpha  occ. eigenvalues --  -14.46690 -14.45288 -14.45124 -14.44926 -14.44784
 Alpha  occ. eigenvalues --  -14.43786 -14.43773 -14.43755 -14.43518 -14.43069
 Alpha  occ. eigenvalues --  -14.40526 -10.40137 -10.39978 -10.38961 -10.38401
 Alpha  occ. eigenvalues --  -10.37749 -10.37650 -10.37264 -10.36881 -10.36735
 Alpha  occ. eigenvalues --  -10.36691 -10.36325 -10.35136 -10.34233 -10.33894
 Alpha  occ. eigenvalues --  -10.32782 -10.32271 -10.32250 -10.32147 -10.31514
 Alpha  occ. eigenvalues --  -10.30850 -10.30618 -10.30454 -10.28965 -10.28789
 Alpha  occ. eigenvalues --  -10.28776 -10.27819 -10.27793 -10.27410 -10.27126
 Alpha  occ. eigenvalues --  -10.26867 -10.26002 -10.25922 -10.25685 -10.25290
 Alpha  occ. eigenvalues --  -10.25259 -10.25160 -10.25075 -10.25067 -10.24800
 Alpha  occ. eigenvalues --  -10.24239 -10.24152 -10.23571 -10.23430 -10.23330
 Alpha  occ. eigenvalues --  -10.23122  -1.18484  -1.15092  -1.13468  -1.12798
 Alpha  occ. eigenvalues --   -1.12501  -1.12252  -1.12206  -1.12161  -1.11921
 Alpha  occ. eigenvalues --   -1.11340  -1.11094  -1.10854  -1.09466  -1.06676
 Alpha  occ. eigenvalues --   -1.04176  -1.03258  -1.01817  -1.01699  -1.01422
 Alpha  occ. eigenvalues --   -1.00642  -1.00500  -1.00036  -0.99780  -0.99295
 Alpha  occ. eigenvalues --   -0.98382  -0.96827  -0.90451  -0.89481  -0.89001
 Alpha  occ. eigenvalues --   -0.88317  -0.87669  -0.86961  -0.86878  -0.85914
 Alpha  occ. eigenvalues --   -0.85598  -0.83832  -0.81756  -0.81578  -0.81487
 Alpha  occ. eigenvalues --   -0.80492  -0.79917  -0.78871  -0.78629  -0.76841
 Alpha  occ. eigenvalues --   -0.76421  -0.75468  -0.74965  -0.74239  -0.73952
 Alpha  occ. eigenvalues --   -0.73370  -0.71826  -0.71555  -0.70470  -0.69854
 Alpha  occ. eigenvalues --   -0.69502  -0.69224  -0.68802  -0.68125  -0.67929
 Alpha  occ. eigenvalues --   -0.67868  -0.67405  -0.66806  -0.66647  -0.66213
 Alpha  occ. eigenvalues --   -0.65725  -0.65461  -0.65149  -0.65009  -0.64862
 Alpha  occ. eigenvalues --   -0.64185  -0.63705  -0.63441  -0.63004  -0.62571
 Alpha  occ. eigenvalues --   -0.62231  -0.61836  -0.61418  -0.60027  -0.59750
 Alpha  occ. eigenvalues --   -0.59639  -0.59233  -0.59027  -0.58889  -0.58515
 Alpha  occ. eigenvalues --   -0.57878  -0.57743  -0.57371  -0.57090  -0.56433
 Alpha  occ. eigenvalues --   -0.56390  -0.56284  -0.55940  -0.55789  -0.55662
 Alpha  occ. eigenvalues --   -0.55459  -0.55353  -0.54629  -0.54366  -0.54149
 Alpha  occ. eigenvalues --   -0.53802  -0.53582  -0.53237  -0.53038  -0.52755
 Alpha  occ. eigenvalues --   -0.52632  -0.52280  -0.52027  -0.51742  -0.51585
 Alpha  occ. eigenvalues --   -0.51559  -0.51285  -0.50471  -0.50295  -0.50236
 Alpha  occ. eigenvalues --   -0.50047  -0.49904  -0.49814  -0.49605  -0.49391
 Alpha  occ. eigenvalues --   -0.49213  -0.49092  -0.49073  -0.48842  -0.48641
 Alpha  occ. eigenvalues --   -0.48476  -0.48281  -0.48206  -0.47993  -0.47728
 Alpha  occ. eigenvalues --   -0.47506  -0.47362  -0.47347  -0.47299  -0.47180
 Alpha  occ. eigenvalues --   -0.47032  -0.46868  -0.46726  -0.46457  -0.46369
 Alpha  occ. eigenvalues --   -0.46211  -0.46024  -0.45952  -0.45711  -0.45565
 Alpha  occ. eigenvalues --   -0.45229  -0.45156  -0.45090  -0.44792  -0.44738
 Alpha  occ. eigenvalues --   -0.44653  -0.44480  -0.44093  -0.43870  -0.43453
 Alpha  occ. eigenvalues --   -0.43423  -0.43267  -0.43153  -0.43043  -0.42857
 Alpha  occ. eigenvalues --   -0.42790  -0.42371  -0.42254  -0.42083  -0.42004
 Alpha  occ. eigenvalues --   -0.41920  -0.41879  -0.40816  -0.40169  -0.39985
 Alpha  occ. eigenvalues --   -0.39723  -0.39561  -0.39549  -0.39417  -0.39276
 Alpha  occ. eigenvalues --   -0.39202  -0.38863  -0.38728  -0.38462  -0.37765
 Alpha  occ. eigenvalues --   -0.37436  -0.36861  -0.36635  -0.36446  -0.36193
 Alpha  occ. eigenvalues --   -0.36088  -0.35713  -0.35299  -0.35287  -0.34912
 Alpha  occ. eigenvalues --   -0.34627  -0.34528  -0.34332  -0.34024  -0.33455
 Alpha  occ. eigenvalues --   -0.33220  -0.33180  -0.32793  -0.32721  -0.32266
 Alpha  occ. eigenvalues --   -0.31876  -0.31639  -0.30169
 Alpha virt. eigenvalues --   -0.09970  -0.08436  -0.07515  -0.07212  -0.07070
 Alpha virt. eigenvalues --   -0.06866  -0.06669  -0.06502  -0.05711  -0.05208
 Alpha virt. eigenvalues --   -0.05091  -0.03340  -0.02348  -0.01894  -0.01768

 Mulliken charges:
               1
     1  N   -0.760577
     2  H    0.345706
     3  H    0.329234
     4  H    0.453065
     5  C   -0.056950
     6  H    0.170189
     7  C    0.633727
     8  C   -0.469646
     9  H    0.179880
    10  H    0.168167
    11  H    0.166426
    12  O   -0.565355
    13  N   -0.626174
    14  H    0.392072
    15  C   -0.058461
    16  H    0.191613
    17  C    0.634226
    18  C   -0.395567
    19  H    0.162674
    20  H    0.219733
    21  O   -0.543383
    22  C    0.618245
    23  N   -0.740399
    24  H    0.359052
    25  H    0.350981
    26  O   -0.527067
    27  N   -0.618772
    28  H    0.391372
    29  C   -0.068138
    30  H    0.174174
    31  C    0.645432
    32  C   -0.296146
    33  H    0.174319
    34  H    0.189959
    35  O   -0.554799
    36  C   -0.405698
    37  H    0.161425
    38  H    0.170120
    39  C    0.604915
    40  O   -0.470119
    41  O   -0.609641
    42  N   -0.618196
    43  H    0.380376
    44  C   -0.062777
    45  H    0.182219
    46  C    0.630464
    47  C   -0.281962
    48  H    0.150498
    49  H    0.161549
    50  O   -0.549381
    51  C   -0.086403
    52  H    0.135338
    53  C   -0.442741
    54  H    0.145737
    55  H    0.149207
    56  H    0.142943
    57  C   -0.453532
    58  H    0.143991
    59  H    0.149731
    60  H    0.147656
    61  N   -0.623885
    62  H    0.390991
    63  C   -0.061010
    64  H    0.175485
    65  C    0.642698
    66  C   -0.293751
    67  H    0.152477
    68  H    0.120294
    69  O   -0.591318
    70  C   -0.094585
    71  H    0.157668
    72  C   -0.459392
    73  H    0.129073
    74  H    0.141486
    75  H    0.191916
    76  C   -0.461296
    77  H    0.136758
    78  H    0.147745
    79  H    0.165215
    80  N   -0.633985
    81  H    0.403505
    82  C   -0.050061
    83  H    0.171833
    84  C    0.634524
    85  C   -0.095727
    86  H    0.136334
    87  O   -0.548251
    88  C   -0.268531
    89  H    0.149040
    90  H    0.157049
    91  C   -0.492834
    92  H    0.185043
    93  H    0.164918
    94  H    0.153681
    95  C   -0.458404
    96  H    0.159821
    97  H    0.149785
    98  H    0.135390
    99  N   -0.628644
   100  H    0.363441
   101  C   -0.022982
   102  H    0.186322
   103  C    0.641103
   104  C   -0.389447
   105  H    0.189541
   106  H    0.224062
   107  O   -0.569926
   108  C    0.603490
   109  N   -0.725468
   110  H    0.381197
   111  H    0.346406
   112  O   -0.559360
   113  N   -0.584403
   114  H    0.353023
   115  C   -0.065642
   116  H    0.173396
   117  C    0.646880
   118  C   -0.106597
   119  H    0.151659
   120  O   -0.534380
   121  C   -0.444261
   122  H    0.153128
   123  H    0.167872
   124  H    0.152219
   125  C   -0.475009
   126  H    0.140084
   127  H    0.173816
   128  H    0.179844
   129  N   -0.604671
   130  H    0.343701
   131  C   -0.065942
   132  H    0.225330
   133  C    0.592502
   134  C   -0.278575
   135  H    0.184333
   136  H    0.149710
   137  O   -0.442977
   138  C   -0.304714
   139  H    0.143571
   140  H    0.187712
   141  C   -0.282456
   142  H    0.171730
   143  H    0.171122
   144  C   -0.182418
   145  H    0.192028
   146  H    0.196532
   147  N   -0.837275
   148  H    0.436683
   149  H    0.441189
   150  H    0.428384
   151  O   -0.576693
   152  H    0.425594
 Sum of Mulliken charges =   1.00000

 Dipole moment (field-independent basis, Debye):
    X=             13.9477    Y=             -3.8490    Z=             -3.5504  Tot=             14.8983
 Quadrupole moment (field-independent basis, Debye-Ang):
   XX=            -92.3865   YY=           -401.7645   ZZ=           -330.3727
   XY=             38.2834   XZ=            150.8751   YZ=             16.2308

 Normal termination of Gaussian 16 at Mon Jul 11 13:23:48 2022.
