 Gaussian 16, Revision C.01,
 Gaussian 16:  ES64L-G16RevC.01  3-Jul-2019

 -------------------------------------------------------------------
 # B3LYP/6-31G* guess=read geom=check nosymm integral(ultrafinegrid)
 -------------------------------------------------------------------

 ------------------------------------------------------
 Candidate Structure: Conf:883 Charge calc in gas phase
 ------------------------------------------------------
 Structure from the checkpoint file:  "conf-883.chk"
 Charge =  1 Multiplicity = 1

                          Input orientation:
 ---------------------------------------------------------------------
 Center     Atomic      Atomic             Coordinates (Angstroms)
 Number     Number       Type             X           Y           Z
 ---------------------------------------------------------------------
      1          7           0       -5.811594    0.670174  -10.940431
      2          1           0       -4.820343    0.716730  -11.187003
      3          1           0       -6.328113    1.347511  -11.502204
      4          1           0       -6.134188   -0.290238  -11.145964
      5          6           0       -6.031262    0.857440   -9.476680
      6          1           0       -5.350735    1.624164   -9.099977
      7          6           0       -5.697673   -0.504963   -8.848983
      8          6           0       -7.478226    1.241306   -9.186727
      9          1           0       -7.623231    1.386174   -8.114148
     10          1           0       -8.152924    0.445858   -9.517417
     11          1           0       -7.751312    2.169637   -9.698175
     12          8           0       -5.849588   -1.525011   -9.535535
     13          7           0       -5.287226   -0.496674   -7.576855
     14          1           0       -5.282508    0.336868   -6.995304
     15          6           0       -5.099803   -1.730925   -6.833477
     16          1           0       -6.032863   -2.304979   -6.878244
     17          6           0       -4.868725   -1.312542   -5.377305
     18          6           0       -3.948881   -2.594300   -7.407038
     19          1           0       -3.036315   -2.466431   -6.818223
     20          1           0       -3.729979   -2.282467   -8.428621
     21          8           0       -4.857850   -0.111773   -5.077851
     22          6           0       -4.368969   -4.051576   -7.354214
     23          7           0       -4.783856   -4.581406   -8.532427
     24          1           0       -5.174660   -5.511171   -8.511086
     25          1           0       -5.011093   -3.971713   -9.304718
     26          8           0       -4.362743   -4.668597   -6.297375
     27          7           0       -4.693082   -2.311352   -4.504766
     28          1           0       -4.573096   -3.259061   -4.864850
     29          6           0       -4.406930   -2.045757   -3.090556
     30          1           0       -4.954673   -1.133029   -2.842737
     31          6           0       -2.900822   -1.781217   -2.938528
     32          6           0       -4.877006   -3.184960   -2.195336
     33          1           0       -5.889890   -3.475652   -2.483330
     34          1           0       -4.228712   -4.052379   -2.344482
     35          8           0       -2.099790   -2.652563   -2.595621
     36          6           0       -4.876917   -2.755836   -0.731571
     37          1           0       -5.582091   -1.926736   -0.588157
     38          1           0       -3.894682   -2.399647   -0.423987
     39          6           0       -5.345282   -3.882884    0.240538
     40          8           0       -4.944108   -3.758656    1.421260
     41          8           0       -6.106880   -4.742526   -0.236441
     42          7           0       -2.505562   -0.520989   -3.238100
     43          1           0       -3.189957    0.128408   -3.604519
     44          6           0       -1.092855   -0.171722   -3.301458
     45          1           0       -0.563761   -1.077868   -3.612624
     46          6           0       -0.587752    0.184470   -1.892959
     47          6           0       -0.831591    0.957941   -4.291384
     48          1           0        0.247437    1.153290   -4.299779
     49          1           0       -1.304753    1.870797   -3.921223
     50          8           0       -0.483764    1.354333   -1.506664
     51          6           0       -1.295512    0.682951   -5.730655
     52          1           0       -2.388048    0.600164   -5.723550
     53          6           0       -0.918333    1.867528   -6.623793
     54          1           0        0.168337    1.996190   -6.653926
     55          1           0       -1.358250    2.799140   -6.255095
     56          1           0       -1.264851    1.713472   -7.651157
     57          6           0       -0.726230   -0.618802   -6.297555
     58          1           0        0.366536   -0.569500   -6.358642
     59          1           0       -0.991757   -1.489965   -5.688925
     60          1           0       -1.105934   -0.793749   -7.311345
     61          7           0       -0.282773   -0.876364   -1.117275
     62          1           0       -0.529084   -1.797013   -1.464032
     63          6           0        0.181301   -0.748862    0.262706
     64          1           0       -0.346087    0.107726    0.698342
     65          6           0        1.691959   -0.422415    0.297009
     66          6           0       -0.094004   -2.018811    1.067324
     67          1           0        0.530129   -2.822864    0.663568
     68          1           0        0.268773   -1.842739    2.084748
     69          8           0        2.511299   -1.123298    0.879700
     70          6           0       -1.552682   -2.481970    1.137937
     71          1           0       -1.872470   -2.780235    0.130636
     72          6           0       -1.648945   -3.711483    2.046158
     73          1           0       -1.349508   -3.447648    3.066512
     74          1           0       -0.985917   -4.511641    1.698531
     75          1           0       -2.669559   -4.094037    2.075646
     76          6           0       -2.492092   -1.383612    1.639807
     77          1           0       -2.190910   -1.055181    2.641743
     78          1           0       -2.492451   -0.507115    0.980235
     79          1           0       -3.513390   -1.767862    1.701638
     80          7           0        2.041545    0.702274   -0.390947
     81          1           0        1.300307    1.316563   -0.717921
     82          6           0        3.411867    1.175547   -0.398669
     83          1           0        4.002898    0.348331   -0.001959
     84          6           0        3.537085    2.371915    0.553147
     85          6           0        3.880840    1.499545   -1.840454
     86          1           0        3.680303    0.581735   -2.409756
     87          8           0        2.718501    3.277162    0.586155
     88          6           0        5.387358    1.786101   -1.937912
     89          1           0        5.589627    2.098550   -2.970348
     90          1           0        5.648807    2.634418   -1.301072
     91          6           0        3.075155    2.640065   -2.476207
     92          1           0        3.304496    3.594338   -1.996622
     93          1           0        1.998122    2.475914   -2.380835
     94          1           0        3.315920    2.720624   -3.540104
     95          6           0        6.287512    0.596915   -1.610712
     96          1           0        7.338423    0.850352   -1.776170
     97          1           0        6.047426   -0.265580   -2.241642
     98          1           0        6.188890    0.276228   -0.566702
     99          7           0        4.624314    2.327131    1.391809
    100          1           0        5.389961    1.722882    1.132231
    101          6           0        4.969747    3.468327    2.215996
    102          1           0        4.072238    4.083677    2.280887
    103          6           0        6.106848    4.263248    1.550746
    104          6           0        5.346822    3.007634    3.634267
    105          1           0        6.288059    2.446650    3.631896
    106          1           0        4.566599    2.313633    3.962599
    107          8           0        6.833483    3.749327    0.691927
    108          6           0        5.408503    4.135718    4.657017
    109          7           0        6.028643    3.840445    5.824663
    110          1           0        6.408284    2.927952    6.014762
    111          1           0        6.055377    4.549779    6.539970
    112          8           0        4.909880    5.239800    4.452409
    113          7           0        6.256635    5.530660    1.986321
    114          1           0        5.716944    5.794305    2.808561
    115          6           0        7.336611    6.396372    1.514118
    116          1           0        7.414489    6.209458    0.437842
    117          6           0        8.671661    5.974336    2.155844
    118          6           0        6.965258    7.878892    1.707502
    119          1           0        6.018586    7.977970    1.161733
    120          8           0        9.184005    6.522199    3.124256
    121          6           0        6.720333    8.298246    3.162164
    122          1           0        7.663185    8.387926    3.702598
    123          1           0        6.220944    9.271514    3.178761
    124          1           0        6.088003    7.589435    3.704367
    125          6           0        8.001605    8.791035    1.041658
    126          1           0        8.970695    8.690899    1.536205
    127          1           0        7.691384    9.837098    1.114464
    128          1           0        8.128159    8.547699   -0.017718
    129          7           0        9.265474    4.910775    1.543302
    130          1           0        8.693050    4.349402    0.918184
    131          6           0       10.460892    4.331586    2.120533
    132          1           0       10.300602    4.123091    3.185237
    133          6           0       11.643951    5.290772    2.072515
    134          6           0       10.804659    3.028625    1.384320
    135          1           0       11.003762    3.260339    0.333373
    136          1           0        9.916032    2.387903    1.413431
    137          8           0       12.465931    5.395426    2.954306
    138          6           0       11.989862    2.288453    2.000805
    139          1           0       11.772109    2.084010    3.056700
    140          1           0       12.868422    2.942047    1.990148
    141          6           0       12.285920    0.972949    1.282933
    142          1           0       11.379116    0.358585    1.258059
    143          1           0       12.557047    1.171691    0.238917
    144          6           0       13.380241    0.145114    1.941084
    145          1           0       13.150465   -0.006156    2.999394
    146          1           0       13.458667   -0.840729    1.478033
    147          7           0       14.724158    0.810271    1.856659
    148          1           0       15.457208    0.259270    2.320538
    149          1           0       14.704691    1.734345    2.303806
    150          1           0       15.008345    0.951314    0.879636
    151          8           0       11.727442    5.963218    0.906497
    152          1           0       12.515642    6.525619    0.975415
 ---------------------------------------------------------------------

 SCF Done:  E(RB3LYP) =  -3473.60182063     A.U. after    3 cycles

 Alpha  occ. eigenvalues --  -19.26991 -19.26800 -19.21264 -19.19825 -19.19014
 Alpha  occ. eigenvalues --  -19.18271 -19.18255 -19.17547 -19.14926 -19.14773
 Alpha  occ. eigenvalues --  -19.14051 -19.12553 -19.00906 -19.00745 -14.63022
 Alpha  occ. eigenvalues --  -14.62922 -14.49119 -14.43229 -14.42556 -14.41840
 Alpha  occ. eigenvalues --  -14.41648 -14.41386 -14.39996 -14.39402 -14.37675
 Alpha  occ. eigenvalues --  -14.36314 -10.43646 -10.41913 -10.40475 -10.39359
 Alpha  occ. eigenvalues --  -10.36692 -10.36377 -10.36059 -10.34651 -10.34247
 Alpha  occ. eigenvalues --  -10.34161 -10.33772 -10.33637 -10.31864 -10.31728
 Alpha  occ. eigenvalues --  -10.31570 -10.31348 -10.30869 -10.29737 -10.29451
 Alpha  occ. eigenvalues --  -10.28606 -10.28450 -10.28380 -10.26582 -10.26419
 Alpha  occ. eigenvalues --  -10.25459 -10.25173 -10.24130 -10.23991 -10.23703
 Alpha  occ. eigenvalues --  -10.23064 -10.22925 -10.22600 -10.22460 -10.21982
 Alpha  occ. eigenvalues --  -10.21610 -10.21582 -10.20625 -10.19908 -10.19095
 Alpha  occ. eigenvalues --  -10.17374 -10.16852 -10.16357 -10.14045 -10.13419
 Alpha  occ. eigenvalues --  -10.13291  -1.19993  -1.18141  -1.17546  -1.16458
 Alpha  occ. eigenvalues --   -1.11849  -1.10992  -1.10483  -1.10041  -1.09309
 Alpha  occ. eigenvalues --   -1.08946  -1.07120  -1.06875  -1.05727  -1.05565
 Alpha  occ. eigenvalues --   -1.04356  -0.99242  -0.98645  -0.98316  -0.98229
 Alpha  occ. eigenvalues --   -0.97362  -0.96747  -0.96000  -0.95002  -0.94643
 Alpha  occ. eigenvalues --   -0.94328  -0.94210  -0.93343  -0.89112  -0.88081
 Alpha  occ. eigenvalues --   -0.86213  -0.85770  -0.85509  -0.84435  -0.83422
 Alpha  occ. eigenvalues --   -0.83071  -0.82570  -0.81303  -0.79980  -0.78463
 Alpha  occ. eigenvalues --   -0.77986  -0.77793  -0.77440  -0.76517  -0.76395
 Alpha  occ. eigenvalues --   -0.75884  -0.75595  -0.75052  -0.74603  -0.74005
 Alpha  occ. eigenvalues --   -0.73882  -0.72499  -0.72268  -0.71658  -0.71170
 Alpha  occ. eigenvalues --   -0.70513  -0.69214  -0.68330  -0.67734  -0.66710
 Alpha  occ. eigenvalues --   -0.66683  -0.66343  -0.65974  -0.65359  -0.65081
 Alpha  occ. eigenvalues --   -0.64968  -0.64362  -0.64233  -0.63235  -0.62790
 Alpha  occ. eigenvalues --   -0.62542  -0.62246  -0.61942  -0.61519  -0.60964
 Alpha  occ. eigenvalues --   -0.60846  -0.60645  -0.60595  -0.60249  -0.59233
 Alpha  occ. eigenvalues --   -0.59180  -0.58737  -0.58564  -0.58370  -0.57506
 Alpha  occ. eigenvalues --   -0.57103  -0.56743  -0.56331  -0.55702  -0.55439
 Alpha  occ. eigenvalues --   -0.55091  -0.55027  -0.54774  -0.54294  -0.53947
 Alpha  occ. eigenvalues --   -0.53741  -0.53528  -0.53453  -0.53442  -0.53140
 Alpha  occ. eigenvalues --   -0.52769  -0.52576  -0.52038  -0.51498  -0.51441
 Alpha  occ. eigenvalues --   -0.51372  -0.51041  -0.50905  -0.50281  -0.49907
 Alpha  occ. eigenvalues --   -0.49771  -0.49469  -0.49380  -0.49345  -0.49122
 Alpha  occ. eigenvalues --   -0.48402  -0.48065  -0.47962  -0.47791  -0.47752
 Alpha  occ. eigenvalues --   -0.47512  -0.47398  -0.46406  -0.46307  -0.46245
 Alpha  occ. eigenvalues --   -0.46114  -0.45923  -0.45670  -0.45543  -0.45455
 Alpha  occ. eigenvalues --   -0.45069  -0.45008  -0.44898  -0.44726  -0.44590
 Alpha  occ. eigenvalues --   -0.44098  -0.43891  -0.43611  -0.43529  -0.43455
 Alpha  occ. eigenvalues --   -0.43077  -0.42564  -0.42475  -0.42256  -0.41927
 Alpha  occ. eigenvalues --   -0.41851  -0.41610  -0.41511  -0.41177  -0.41152
 Alpha  occ. eigenvalues --   -0.40965  -0.40497  -0.40281  -0.39955  -0.39716
 Alpha  occ. eigenvalues --   -0.39288  -0.39118  -0.38979  -0.38912  -0.38592
 Alpha  occ. eigenvalues --   -0.38440  -0.37887  -0.37757  -0.37671  -0.37478
 Alpha  occ. eigenvalues --   -0.37336  -0.37104  -0.36655  -0.36460  -0.35785
 Alpha  occ. eigenvalues --   -0.35581  -0.35445  -0.35357  -0.35101  -0.34699
 Alpha  occ. eigenvalues --   -0.34217  -0.34027  -0.33781  -0.33203  -0.33158
 Alpha  occ. eigenvalues --   -0.33097  -0.32710  -0.32520  -0.32413  -0.32267
 Alpha  occ. eigenvalues --   -0.31498  -0.30789  -0.30610  -0.30199  -0.30069
 Alpha  occ. eigenvalues --   -0.29843  -0.29426  -0.29383  -0.29014  -0.28578
 Alpha  occ. eigenvalues --   -0.28041  -0.27868  -0.26803  -0.26308  -0.24939
 Alpha  occ. eigenvalues --   -0.16438  -0.15193  -0.14489
 Alpha virt. eigenvalues --   -0.13983  -0.13460  -0.12203  -0.07628  -0.07433
 Alpha virt. eigenvalues --   -0.07239  -0.06793  -0.05804  -0.05424  -0.04651
 Alpha virt. eigenvalues --   -0.04631  -0.04396  -0.04286  -0.03561  -0.03452

 Mulliken charges:
               1
     1  N   -0.718617
     2  H    0.428209
     3  H    0.421940
     4  H    0.425426
     5  C   -0.140976
     6  H    0.225749
     7  C    0.652913
     8  C   -0.473770
     9  H    0.231493
    10  H    0.203675
    11  H    0.190847
    12  O   -0.549164
    13  N   -0.615590
    14  H    0.372211
    15  C   -0.038854
    16  H    0.214384
    17  C    0.615729
    18  C   -0.387903
    19  H    0.218850
    20  H    0.159771
    21  O   -0.571701
    22  C    0.587598
    23  N   -0.732600
    24  H    0.359575
    25  H    0.352477
    26  O   -0.481853
    27  N   -0.619416
    28  H    0.394317
    29  C   -0.067657
    30  H    0.172760
    31  C    0.635278
    32  C   -0.261180
    33  H    0.151029
    34  H    0.164960
    35  O   -0.534612
    36  C   -0.392014
    37  H    0.118576
    38  H    0.152406
    39  C    0.575323
    40  O   -0.571023
    41  O   -0.575487
    42  N   -0.606589
    43  H    0.359024
    44  C   -0.063998
    45  H    0.168441
    46  C    0.645304
    47  C   -0.286154
    48  H    0.149391
    49  H    0.165175
    50  O   -0.563635
    51  C   -0.085787
    52  H    0.119796
    53  C   -0.437258
    54  H    0.151046
    55  H    0.147709
    56  H    0.106245
    57  C   -0.458737
    58  H    0.149562
    59  H    0.170215
    60  H    0.115452
    61  N   -0.611712
    62  H    0.376988
    63  C   -0.071843
    64  H    0.187176
    65  C    0.620126
    66  C   -0.271916
    67  H    0.138918
    68  H    0.144459
    69  O   -0.532779
    70  C   -0.088137
    71  H    0.142666
    72  C   -0.462205
    73  H    0.113434
    74  H    0.113165
    75  H    0.221003
    76  C   -0.473377
    77  H    0.115235
    78  H    0.115213
    79  H    0.210677
    80  N   -0.638923
    81  H    0.392422
    82  C   -0.073746
    83  H    0.169055
    84  C    0.628819
    85  C   -0.070269
    86  H    0.129649
    87  O   -0.514513
    88  C   -0.278312
    89  H    0.128422
    90  H    0.163986
    91  C   -0.473579
    92  H    0.161989
    93  H    0.168854
    94  H    0.126627
    95  C   -0.447242
    96  H    0.128539
    97  H    0.150241
    98  H    0.132059
    99  N   -0.600550
   100  H    0.333736
   101  C   -0.076348
   102  H    0.226943
   103  C    0.614439
   104  C   -0.379968
   105  H    0.145485
   106  H    0.217867
   107  O   -0.567280
   108  C    0.618215
   109  N   -0.739118
   110  H    0.345337
   111  H    0.359869
   112  O   -0.519817
   113  N   -0.628320
   114  H    0.404180
   115  C   -0.054531
   116  H    0.169711
   117  C    0.620713
   118  C   -0.088123
   119  H    0.144174
   120  O   -0.520982
   121  C   -0.475604
   122  H    0.181224
   123  H    0.146755
   124  H    0.157720
   125  C   -0.461324
   126  H    0.164860
   127  H    0.154795
   128  H    0.138196
   129  N   -0.639147
   130  H    0.376097
   131  C    0.016421
   132  H    0.177257
   133  C    0.597823
   134  C   -0.320396
   135  H    0.173641
   136  H    0.172776
   137  O   -0.476769
   138  C   -0.288644
   139  H    0.165140
   140  H    0.139414
   141  C   -0.288431
   142  H    0.201855
   143  H    0.166667
   144  C   -0.216043
   145  H    0.223074
   146  H    0.224028
   147  N   -0.677799
   148  H    0.388773
   149  H    0.398374
   150  H    0.383254
   151  O   -0.555193
   152  H    0.416125
 Sum of Mulliken charges =   1.00000

 Dipole moment (field-independent basis, Debye):
    X=             46.6455    Y=             17.2606    Z=            -41.9422  Tot=             65.0605
 Quadrupole moment (field-independent basis, Debye-Ang):
   XX=            452.2257   YY=           -497.1797   ZZ=            110.6458
   XY=            -66.0031   XZ=            394.0776   YZ=            -17.7351

 Normal termination of Gaussian 16 at Mon Jul 11 13:23:25 2022.
