 Gaussian 16, Revision C.01,
 Gaussian 16:  ES64L-G16RevC.01  3-Jul-2019

 -------------------------------------------------------------------
 # B3LYP/6-31G* guess=read geom=check nosymm integral(ultrafinegrid)
 -------------------------------------------------------------------

 ------------------------------------------------------
 Candidate Structure: Conf:102 Charge calc in gas phase
 ------------------------------------------------------
 Structure from the checkpoint file:  "conf-102.chk"
 Charge =  1 Multiplicity = 1

                          Input orientation:
 ---------------------------------------------------------------------
 Center     Atomic      Atomic             Coordinates (Angstroms)
 Number     Number       Type             X           Y           Z
 ---------------------------------------------------------------------
      1          7           0      -10.008945   -6.643156   -3.067403
      2          1           0       -9.908436   -7.614622   -3.399396
      3          1           0      -10.925220   -6.544322   -2.594080
      4          1           0       -9.219476   -6.468236   -2.378725
      5          6           0       -9.804444   -5.619587   -4.177065
      6          1           0      -10.226165   -5.994580   -5.113227
      7          6           0       -8.272949   -5.514341   -4.279363
      8          6           0      -10.460860   -4.270210   -3.817062
      9          1           0      -10.276469   -3.547705   -4.614359
     10          1           0      -10.044153   -3.860375   -2.886188
     11          1           0      -11.548131   -4.377086   -3.690514
     12          8           0       -7.658719   -5.841032   -3.235030
     13          7           0       -7.787481   -5.035042   -5.417402
     14          1           0       -8.424830   -5.054137   -6.231656
     15          6           0       -6.343035   -5.060308   -5.803741
     16          1           0       -5.878887   -5.933042   -5.329402
     17          6           0       -5.617599   -3.772347   -5.285056
     18          6           0       -6.264728   -5.153478   -7.339098
     19          1           0       -5.220691   -5.276634   -7.643490
     20          1           0       -6.619235   -4.205451   -7.761651
     21          8           0       -5.139168   -2.976295   -6.103483
     22          6           0       -7.168585   -6.270760   -7.867701
     23          7           0       -6.561004   -7.363920   -8.408205
     24          1           0       -7.146036   -8.141437   -8.711961
     25          1           0       -5.553366   -7.493197   -8.380874
     26          8           0       -8.428277   -6.161196   -7.810962
     27          7           0       -5.634904   -3.678372   -3.934688
     28          1           0       -6.028686   -4.463912   -3.426448
     29          6           0       -5.117043   -2.562898   -3.090751
     30          1           0       -5.247172   -1.641158   -3.664878
     31          6           0       -3.587603   -2.721748   -2.806362
     32          6           0       -5.979617   -2.505312   -1.815612
     33          1           0       -7.037145   -2.506664   -2.116464
     34          1           0       -5.778254   -3.419453   -1.230043
     35          8           0       -3.150429   -3.083963   -1.704881
     36          6           0       -5.784206   -1.277003   -0.937702
     37          1           0       -5.992434   -0.372361   -1.537962
     38          1           0       -4.766073   -1.206025   -0.555086
     39          6           0       -6.822977   -1.297500    0.249481
     40          8           0       -6.348301   -1.093603    1.438732
     41          8           0       -8.059401   -1.505335   -0.097294
     42          7           0       -2.741754   -2.470892   -3.891273
     43          1           0       -3.191130   -2.051162   -4.703887
     44          6           0       -1.301674   -2.167234   -3.703457
     45          1           0       -0.826056   -3.074994   -3.311440
     46          6           0       -1.101325   -0.997006   -2.670232
     47          6           0       -0.717093   -1.768738   -5.079866
     48          1           0       -1.293513   -0.898284   -5.435165
     49          1           0       -0.913737   -2.599452   -5.781871
     50          8           0       -1.813394   -0.008309   -2.723413
     51          6           0        0.793705   -1.427405   -5.148763
     52          1           0        0.992972   -0.596879   -4.458025
     53          6           0        1.697775   -2.617846   -4.754836
     54          1           0        1.527812   -3.473142   -5.429359
     55          1           0        1.529255   -2.961197   -3.729384
     56          1           0        2.757898   -2.343273   -4.828443
     57          6           0        1.143684   -0.951637   -6.577352
     58          1           0        0.955465   -1.748671   -7.315281
     59          1           0        0.546721   -0.075475   -6.868286
     60          1           0        2.205618   -0.674615   -6.654832
     61          7           0       -0.106279   -1.150411   -1.734274
     62          1           0        0.484096   -1.978176   -1.776140
     63          6           0        0.383459   -0.075681   -0.859187
     64          1           0       -0.105727    0.844790   -1.194965
     65          6           0        1.904582    0.045874   -1.039629
     66          6           0        0.076046   -0.323400    0.657484
     67          1           0        0.580601   -1.268306    0.935877
     68          1           0        0.548872    0.485989    1.248012
     69          8           0        2.630854   -0.916146   -1.355588
     70          6           0       -1.419780   -0.398802    1.064404
     71          1           0       -1.900209   -1.152608    0.422176
     72          6           0       -1.559472   -0.859812    2.527236
     73          1           0       -1.065659   -0.151267    3.217516
     74          1           0       -1.103497   -1.853285    2.685922
     75          1           0       -2.629192   -0.914336    2.783212
     76          6           0       -2.155287    0.946546    0.873967
     77          1           0       -1.701400    1.730997    1.508488
     78          1           0       -2.137652    1.289474   -0.168105
     79          1           0       -3.205563    0.826479    1.173610
     80          7           0        2.413439    1.302669   -0.789954
     81          1           0        1.815762    2.014452   -0.364815
     82          6           0        3.841269    1.571991   -0.735825
     83          1           0        4.356233    0.600540   -0.760707
     84          6           0        4.095110    2.286664    0.608099
     85          6           0        4.332066    2.445356   -1.945187
     86          1           0        3.765707    3.387555   -1.885507
     87          8           0        3.327441    3.150449    1.024666
     88          6           0        3.986145    1.798602   -3.316940
     89          1           0        2.904531    1.625162   -3.357167
     90          1           0        4.203525    2.555279   -4.087636
     91          6           0        5.832810    2.780082   -1.854944
     92          1           0        6.444166    1.862970   -1.803926
     93          1           0        6.084627    3.397197   -0.990013
     94          1           0        6.150002    3.328382   -2.751282
     95          6           0        4.721971    0.492353   -3.681464
     96          1           0        4.308668    0.064832   -4.602656
     97          1           0        4.613413   -0.266992   -2.897747
     98          1           0        5.798006    0.661443   -3.852099
     99          7           0        5.230901    1.895948    1.322668
    100          1           0        5.913397    1.351129    0.804210
    101          6           0        5.734187    2.683759    2.436277
    102          1           0        4.887699    3.247792    2.839212
    103          6           0        6.812092    3.697712    1.968990
    104          6           0        6.294394    1.761476    3.551716
    105          1           0        7.299210    1.411005    3.277826
    106          1           0        5.648818    0.873611    3.651085
    107          8           0        7.675395    3.371264    1.150839
    108          6           0        6.377438    2.502248    4.904315
    109          7           0        7.156592    1.908636    5.859684
    110          1           0        7.436320    0.932490    5.775996
    111          1           0        7.109466    2.306131    6.800577
    112          8           0        5.790793    3.567429    5.098986
    113          7           0        6.718428    4.883783    2.555101
    114          1           0        6.180899    4.807698    3.432337
    115          6           0        7.734229    5.983062    2.560193
    116          1           0        8.186947    6.009389    1.560429
    117          6           0        8.827741    5.613115    3.600234
    118          6           0        7.035686    7.327427    2.862374
    119          1           0        6.647118    7.263982    3.891167
    120          8           0        8.719418    5.794618    4.801190
    121          6           0        8.062789    8.478434    2.804787
    122          1           0        8.472979    8.584462    1.787685
    123          1           0        7.583596    9.426309    3.072276
    124          1           0        8.901515    8.319177    3.492849
    125          6           0        5.862754    7.588006    1.892005
    126          1           0        6.216410    7.642612    0.850615
    127          1           0        5.384605    8.545731    2.129497
    128          1           0        5.093355    6.806886    1.945316
    129          7           0        9.924855    4.995846    2.999884
    130          1           0        9.775065    4.753387    2.022416
    131          6           0       10.845341    4.108089    3.723447
    132          1           0       10.262318    3.436700    4.370224
    133          6           0       11.813498    4.879478    4.638337
    134          6           0       11.621137    3.300136    2.653743
    135          1           0       12.454506    2.756919    3.121208
    136          1           0       12.073940    4.006349    1.932331
    137          8           0       12.152574    6.035598    4.493799
    138          6           0       10.659491    2.346073    1.923135
    139          1           0        9.873645    2.954319    1.461676
    140          1           0       10.163713    1.707821    2.672581
    141          6           0       11.282963    1.431148    0.843935
    142          1           0       11.822602    2.028031    0.086847
    143          1           0       12.029999    0.762324    1.289707
    144          6           0       10.200828    0.591325    0.143250
    145          1           0       10.618742   -0.039818   -0.646343
    146          1           0        9.698098   -0.070693    0.854145
    147          7           0        9.136937    1.512767   -0.491869
    148          1           0        8.629125    1.045779   -1.273302
    149          1           0        9.570067    2.382087   -0.871905
    150          1           0        8.404244    1.853252    0.204699
    151          8           0       12.282430    4.056695    5.614737
    152          1           0       12.918570    4.592776    6.155709
 ---------------------------------------------------------------------

 SCF Done:  E(RB3LYP) =  -3473.59526902     A.U. after    1 cycles

 Alpha  occ. eigenvalues --  -19.27617 -19.24931 -19.23897 -19.21686 -19.21632
 Alpha  occ. eigenvalues --  -19.20971 -19.20742 -19.20728 -19.17849 -19.17387
 Alpha  occ. eigenvalues --  -19.14071 -19.13916 -18.99929 -18.99879 -14.60795
 Alpha  occ. eigenvalues --  -14.58713 -14.47042 -14.46836 -14.46119 -14.45615
 Alpha  occ. eigenvalues --  -14.45477 -14.45098 -14.42565 -14.40907 -14.39245
 Alpha  occ. eigenvalues --  -14.38188 -10.40812 -10.40346 -10.40309 -10.40024
 Alpha  occ. eigenvalues --  -10.39481 -10.38737 -10.38400 -10.38074 -10.37666
 Alpha  occ. eigenvalues --  -10.34913 -10.34804 -10.33952 -10.33810 -10.33783
 Alpha  occ. eigenvalues --  -10.33032 -10.32696 -10.31788 -10.31569 -10.31310
 Alpha  occ. eigenvalues --  -10.31122 -10.31060 -10.30906 -10.30026 -10.28551
 Alpha  occ. eigenvalues --  -10.27801 -10.27704 -10.27417 -10.27018 -10.27009
 Alpha  occ. eigenvalues --  -10.25615 -10.25137 -10.24180 -10.24052 -10.23985
 Alpha  occ. eigenvalues --  -10.23676 -10.23064 -10.22206 -10.21908 -10.21883
 Alpha  occ. eigenvalues --  -10.20052 -10.19120 -10.18254 -10.17496 -10.17486
 Alpha  occ. eigenvalues --  -10.13292  -1.17649  -1.16308  -1.15907  -1.13911
 Alpha  occ. eigenvalues --   -1.13016  -1.12482  -1.12168  -1.11373  -1.10842
 Alpha  occ. eigenvalues --   -1.08904  -1.08656  -1.08299  -1.06175  -1.04310
 Alpha  occ. eigenvalues --   -1.03632  -1.03484  -1.01956  -1.01519  -0.99867
 Alpha  occ. eigenvalues --   -0.99291  -0.98677  -0.96813  -0.95005  -0.94176
 Alpha  occ. eigenvalues --   -0.93548  -0.90414  -0.90331  -0.89799  -0.88912
 Alpha  occ. eigenvalues --   -0.88238  -0.87156  -0.86609  -0.84810  -0.83612
 Alpha  occ. eigenvalues --   -0.82837  -0.82312  -0.80983  -0.80193  -0.80127
 Alpha  occ. eigenvalues --   -0.79366  -0.78395  -0.77795  -0.77372  -0.76637
 Alpha  occ. eigenvalues --   -0.75415  -0.75257  -0.74722  -0.73250  -0.72487
 Alpha  occ. eigenvalues --   -0.72408  -0.71667  -0.71179  -0.71071  -0.70708
 Alpha  occ. eigenvalues --   -0.70472  -0.70401  -0.69287  -0.68665  -0.68437
 Alpha  occ. eigenvalues --   -0.68196  -0.67981  -0.67831  -0.67225  -0.66772
 Alpha  occ. eigenvalues --   -0.66209  -0.65639  -0.64991  -0.64609  -0.64010
 Alpha  occ. eigenvalues --   -0.63478  -0.63250  -0.62991  -0.62764  -0.62155
 Alpha  occ. eigenvalues --   -0.61700  -0.60809  -0.60670  -0.60116  -0.60086
 Alpha  occ. eigenvalues --   -0.59653  -0.59635  -0.59216  -0.59118  -0.58368
 Alpha  occ. eigenvalues --   -0.58087  -0.57923  -0.57155  -0.56871  -0.56407
 Alpha  occ. eigenvalues --   -0.56263  -0.55982  -0.55859  -0.55385  -0.55268
 Alpha  occ. eigenvalues --   -0.54817  -0.54602  -0.54217  -0.54093  -0.53365
 Alpha  occ. eigenvalues --   -0.53193  -0.52788  -0.52421  -0.52217  -0.51845
 Alpha  occ. eigenvalues --   -0.51715  -0.51556  -0.51368  -0.51106  -0.50946
 Alpha  occ. eigenvalues --   -0.50724  -0.50600  -0.50416  -0.49949  -0.49799
 Alpha  occ. eigenvalues --   -0.49722  -0.49603  -0.49335  -0.49143  -0.48830
 Alpha  occ. eigenvalues --   -0.48675  -0.48450  -0.48314  -0.48083  -0.47932
 Alpha  occ. eigenvalues --   -0.47887  -0.47578  -0.47446  -0.47262  -0.47041
 Alpha  occ. eigenvalues --   -0.46771  -0.46602  -0.46400  -0.46312  -0.46174
 Alpha  occ. eigenvalues --   -0.45728  -0.45529  -0.45506  -0.45460  -0.45346
 Alpha  occ. eigenvalues --   -0.44906  -0.44815  -0.44660  -0.44481  -0.44352
 Alpha  occ. eigenvalues --   -0.43875  -0.43495  -0.43134  -0.43010  -0.42746
 Alpha  occ. eigenvalues --   -0.42488  -0.42222  -0.41423  -0.41365  -0.40724
 Alpha  occ. eigenvalues --   -0.40678  -0.40350  -0.40246  -0.40179  -0.39848
 Alpha  occ. eigenvalues --   -0.39730  -0.39629  -0.39516  -0.39323  -0.39121
 Alpha  occ. eigenvalues --   -0.38771  -0.38460  -0.38374  -0.38059  -0.37888
 Alpha  occ. eigenvalues --   -0.37666  -0.37208  -0.36985  -0.36774  -0.36753
 Alpha  occ. eigenvalues --   -0.36388  -0.35839  -0.35652  -0.35572  -0.35432
 Alpha  occ. eigenvalues --   -0.34566  -0.34463  -0.34366  -0.34340  -0.33998
 Alpha  occ. eigenvalues --   -0.33397  -0.33334  -0.33149  -0.32782  -0.31698
 Alpha  occ. eigenvalues --   -0.31520  -0.31418  -0.31228  -0.30583  -0.29043
 Alpha  occ. eigenvalues --   -0.28486  -0.28139  -0.27046  -0.26321  -0.26090
 Alpha  occ. eigenvalues --   -0.14907  -0.14326  -0.13268
 Alpha virt. eigenvalues --   -0.12599  -0.10469  -0.10260  -0.08761  -0.08228
 Alpha virt. eigenvalues --   -0.07625  -0.07403  -0.07294  -0.07118  -0.06643
 Alpha virt. eigenvalues --   -0.06323  -0.05116  -0.04526  -0.03835  -0.03834

 Mulliken charges:
               1
     1  N   -0.738045
     2  H    0.416452
     3  H    0.417608
     4  H    0.442066
     5  C   -0.130196
     6  H    0.220479
     7  C    0.667789
     8  C   -0.477151
     9  H    0.220062
    10  H    0.240890
    11  H    0.182565
    12  O   -0.558467
    13  N   -0.604821
    14  H    0.381841
    15  C   -0.082852
    16  H    0.188328
    17  C    0.650221
    18  C   -0.386296
    19  H    0.183279
    20  H    0.223689
    21  O   -0.534216
    22  C    0.603780
    23  N   -0.732636
    24  H    0.359691
    25  H    0.357992
    26  O   -0.550055
    27  N   -0.629240
    28  H    0.370588
    29  C   -0.065804
    30  H    0.173380
    31  C    0.635342
    32  C   -0.265868
    33  H    0.135182
    34  H    0.139836
    35  O   -0.512299
    36  C   -0.337455
    37  H    0.111558
    38  H    0.144602
    39  C    0.551998
    40  O   -0.614488
    41  O   -0.645437
    42  N   -0.625893
    43  H    0.343711
    44  C   -0.018266
    45  H    0.149722
    46  C    0.628142
    47  C   -0.289913
    48  H    0.157466
    49  H    0.141486
    50  O   -0.519353
    51  C   -0.084286
    52  H    0.138165
    53  C   -0.442794
    54  H    0.137045
    55  H    0.144574
    56  H    0.140926
    57  C   -0.444338
    58  H    0.141140
    59  H    0.150015
    60  H    0.135361
    61  N   -0.602008
    62  H    0.340555
    63  C   -0.070622
    64  H    0.185834
    65  C    0.616229
    66  C   -0.254304
    67  H    0.133045
    68  H    0.119972
    69  O   -0.547394
    70  C   -0.078052
    71  H    0.178297
    72  C   -0.448602
    73  H    0.120799
    74  H    0.127472
    75  H    0.190301
    76  C   -0.471199
    77  H    0.113996
    78  H    0.159144
    79  H    0.196431
    80  N   -0.609697
    81  H    0.359387
    82  C   -0.051362
    83  H    0.162144
    84  C    0.612729
    85  C   -0.067067
    86  H    0.157117
    87  O   -0.500467
    88  C   -0.262593
    89  H    0.168490
    90  H    0.140452
    91  C   -0.488289
    92  H    0.077920
    93  H    0.167609
    94  H    0.166620
    95  C   -0.468901
    96  H    0.166470
    97  H    0.177789
    98  H    0.110416
    99  N   -0.608115
   100  H    0.304150
   101  C   -0.068640
   102  H    0.231817
   103  C    0.625044
   104  C   -0.392758
   105  H    0.141596
   106  H    0.212113
   107  O   -0.598143
   108  C    0.612811
   109  N   -0.740822
   110  H    0.344971
   111  H    0.369163
   112  O   -0.493420
   113  N   -0.579524
   114  H    0.394556
   115  C   -0.066246
   116  H    0.154477
   117  C    0.622427
   118  C   -0.097394
   119  H    0.169216
   120  O   -0.486810
   121  C   -0.464892
   122  H    0.139359
   123  H    0.168539
   124  H    0.179302
   125  C   -0.452186
   126  H    0.138707
   127  H    0.167904
   128  H    0.162775
   129  N   -0.606797
   130  H    0.334697
   131  C   -0.006803
   132  H    0.176614
   133  C    0.596679
   134  C   -0.314389
   135  H    0.182621
   136  H    0.171587
   137  O   -0.435849
   138  C   -0.302142
   139  H    0.153052
   140  H    0.152278
   141  C   -0.296026
   142  H    0.167844
   143  H    0.198978
   144  C   -0.184612
   145  H    0.218519
   146  H    0.212353
   147  N   -0.754654
   148  H    0.397902
   149  H    0.400361
   150  H    0.431019
   151  O   -0.575205
   152  H    0.426530
 Sum of Mulliken charges =   1.00000

 Dipole moment (field-independent basis, Debye):
    X=             30.1279    Y=            -18.7240    Z=            -17.5461  Tot=             39.5745
 Quadrupole moment (field-independent basis, Debye-Ang):
   XX=            171.9448   YY=           -220.2240   ZZ=           -301.8554
   XY=            274.6078   XZ=            196.9368   YZ=            123.5281

 Normal termination of Gaussian 16 at Mon Jul 11 13:22:32 2022.
