 Gaussian 16, Revision C.01,
 Gaussian 16:  ES64L-G16RevC.01  3-Jul-2019

 ----------------------------------------------------------------------
 # B3LYP/6-31G* empiricaldispersion=gd3 guess=read geom=check nosymm in
 tegral(ultrafinegrid)
 ----------------------------------------------------------------------

 ------------------------------------------------------
 Candidate Structure: Conf:608 Charge calc in gas phase
 ------------------------------------------------------
 Structure from the checkpoint file:  "conf-608.chk"
 Charge =  1 Multiplicity = 1

                          Input orientation:
 ---------------------------------------------------------------------
 Center     Atomic      Atomic             Coordinates (Angstroms)
 Number     Number       Type             X           Y           Z
 ---------------------------------------------------------------------
      1          7           0       -3.016019    1.741553   -4.724619
      2          1           0       -2.176543    2.061730   -3.999675
      3          1           0       -2.623755    1.460909   -5.632863
      4          1           0       -3.666387    2.524265   -4.842540
      5          6           0       -3.762232    0.581897   -4.169204
      6          1           0       -3.701772    0.668737   -3.080024
      7          6           0       -3.091600   -0.690211   -4.706175
      8          6           0       -5.220460    0.626087   -4.642298
      9          1           0       -5.791328   -0.141724   -4.101701
     10          1           0       -5.265968    0.399945   -5.719193
     11          8           0       -2.521929   -0.670325   -5.798483
     12          8           0       -5.689055    1.939782   -4.364586
     13          1           0       -6.578832    2.042171   -4.734479
     14          7           0       -3.239128   -1.775014   -3.924507
     15          1           0       -3.821343   -1.717953   -3.092344
     16          6           0       -2.932087   -3.143285   -4.348370
     17          1           0       -3.493812   -3.357406   -5.269554
     18          6           0       -3.530037   -4.021706   -3.231159
     19          6           0       -1.440289   -3.358790   -4.627847
     20          1           0       -1.265892   -4.354646   -5.050352
     21          1           0       -0.843522   -3.246642   -3.717926
     22          1           0       -1.105937   -2.623087   -5.361019
     23          8           0       -4.504736   -3.607245   -2.590899
     24          7           0       -2.943972   -5.202213   -2.960339
     25          1           0       -2.075288   -5.485340   -3.398295
     26          6           0       -3.353215   -6.026289   -1.820359
     27          1           0       -4.437448   -5.928670   -1.707827
     28          6           0       -2.650417   -5.503772   -0.536815
     29          6           0       -2.948213   -7.486428   -2.092483
     30          1           0       -3.176243   -8.061874   -1.185701
     31          8           0       -1.877419   -6.213931    0.111707
     32          6           0       -3.676449   -8.090702   -3.283891
     33          1           0       -4.759017   -8.093229   -3.117692
     34          1           0       -3.467625   -7.525944   -4.198130
     35          1           0       -3.339567   -9.119926   -3.433592
     36          8           0       -1.546018   -7.528486   -2.364877
     37          1           0       -1.121878   -7.338261   -1.507317
     38          7           0       -2.907896   -4.209688   -0.247273
     39          1           0       -3.626339   -3.709629   -0.770551
     40          6           0       -2.233765   -3.452349    0.787562
     41          1           0       -2.091621   -4.090376    1.667660
     42          6           0       -3.113683   -2.234843    1.101263
     43          6           0       -0.835578   -2.889284    0.344402
     44          1           0       -0.467944   -2.302879    1.198267
     45          8           0       -3.907770   -1.801110    0.274533
     46          6           0        0.183932   -4.002202    0.066075
     47          1           0       -0.076872   -4.565099   -0.834687
     48          1           0        0.243181   -4.721069    0.888113
     49          1           0        1.176617   -3.562975   -0.101229
     50          6           0       -0.949273   -1.946419   -0.863692
     51          1           0       -1.389760   -2.472779   -1.715860
     52          1           0       -1.571165   -1.067474   -0.674038
     53          1           0        0.045642   -1.600437   -1.167749
     54          7           0       -2.846622   -1.603517    2.290594
     55          1           0       -2.068900   -1.977340    2.822149
     56          6           0       -2.927170   -0.138781    2.336209
     57          1           0       -3.686924    0.141390    1.605830
     58          6           0       -1.556438    0.372353    1.881449
     59          6           0       -3.332325    0.418212    3.722157
     60          1           0       -4.357270    0.056783    3.886302
     61          8           0       -0.525371   -0.075505    2.428899
     62          6           0       -3.357108    1.962257    3.710804
     63          1           0       -2.344938    2.345805    3.520570
     64          1           0       -3.623711    2.292946    4.722686
     65          6           0       -2.454981   -0.103069    4.870121
     66          1           0       -1.415667    0.217954    4.754338
     67          1           0       -2.472864   -1.197148    4.932777
     68          1           0       -2.829137    0.280778    5.825253
     69          6           0       -4.339359    2.585298    2.710975
     70          1           0       -4.400520    3.668766    2.857453
     71          1           0       -4.037719    2.421170    1.670768
     72          1           0       -5.348219    2.173095    2.835733
     73          7           0       -1.536200    1.258072    0.886118
     74          1           0       -2.352089    1.394399    0.275202
     75          6           0       -0.295133    1.722969    0.289808
     76          1           0        0.222692    0.866031   -0.166984
     77          6           0        0.604358    2.341606    1.371606
     78          6           0       -0.598011    2.772091   -0.797322
     79          1           0       -1.068170    3.637917   -0.315003
     80          1           0        0.336592    3.101593   -1.256288
     81          8           0        0.175771    3.047782    2.275056
     82          6           0       -1.548601    2.246017   -1.887107
     83          8           0       -2.600191    1.661584   -1.522372
     84          8           0       -1.192442    2.464883   -3.088306
     85          7           0        1.928992    2.064490    1.213966
     86          1           0        2.257243    1.417409    0.506041
     87          6           0        2.922563    2.471433    2.183233
     88          1           0        2.824124    3.545183    2.378695
     89          6           0        4.290070    2.123941    1.569610
     90          6           0        2.722788    1.712631    3.541872
     91          1           0        1.702715    1.920145    3.875753
     92          1           0        3.414159    2.111080    4.291343
     93          8           0        4.386684    1.230715    0.729382
     94          6           0        2.979669    0.256286    3.355856
     95          6           0        4.150345   -0.436631    3.479032
     96          1           0        5.103423   -0.130033    3.873769
     97          7           0        2.106924   -0.595119    2.696407
     98          1           0        1.116731   -0.369425    2.477709
     99          6           0        2.737242   -1.744414    2.418710
    100          1           0        2.305099   -2.586244    1.899855
    101          7           0        3.980539   -1.668711    2.893259
    102          7           0        5.370021    2.796690    2.047264
    103          1           0        5.234432    3.572177    2.683273
    104          6           0        6.703087    2.614850    1.457152
    105          1           0        6.530731    2.068981    0.525723
    106          6           0        7.575973    1.725456    2.368848
    107          6           0        7.370975    3.964430    1.174597
    108          1           0        6.631749    4.618696    0.695158
    109          1           0        7.644813    4.421817    2.133053
    110          8           0        8.555344    2.214232    2.981233
    111          6           0        8.618778    3.869764    0.270225
    112          1           0        9.250688    3.054184    0.648795
    113          6           0        8.247881    3.552003   -1.185960
    114          1           0        7.628903    4.352019   -1.611034
    115          1           0        9.146769    3.462084   -1.805590
    116          1           0        7.691219    2.612826   -1.280636
    117          6           0        9.427922    5.171671    0.354074
    118          1           0        8.828093    6.027062    0.019240
    119          1           0       10.318766    5.124848   -0.282487
    120          1           0        9.751735    5.377321    1.382396
    121          7           0        7.220722    0.447538    2.478642
    122          1           0        6.488597    0.032658    1.893882
    123          6           0        7.966854   -0.557490    3.240154
    124          1           0        9.004953   -0.553306    2.886036
    125          6           0        7.362839   -1.977558    2.945745
    126          6           0        7.936132   -0.317581    4.777045
    127          1           0        7.059792   -0.827302    5.188746
    128          1           0        7.805081    0.750172    4.996546
    129          8           0        7.875226   -2.912486    3.560923
    130          6           0        9.201534   -0.870836    5.471508
    131          1           0        8.945442   -1.271929    6.457644
    132          1           0        9.568237   -1.717089    4.885504
    133          6           0       10.308198    0.173212    5.699400
    134          1           0       10.057264    0.817337    6.553077
    135          1           0       11.244631   -0.344149    5.935064
    136          7           0       10.490623    1.027634    4.517022
    137          1           0        9.639162    1.282806    3.991281
    138          7           0       12.740545    1.614266    4.787064
    139          1           0       13.454025    2.323295    4.708966
    140          1           0       12.894583    0.877110    5.457301
    141          7           0       11.371784    2.783374    3.318106
    142          1           0       12.166274    3.126427    2.797761
    143          1           0       10.447027    2.905216    2.907662
    144          6           0       11.530863    1.791854    4.220853
    145          8           0        6.372675   -1.972413    2.134762
    146          1           0        4.857823   -2.207452    2.618147
 ---------------------------------------------------------------------

 SCF Done:  E(RB3LYP) =  -3503.64545199     A.U. after    2 cycles

 Alpha  occ. eigenvalues --  -19.23297 -19.22809 -19.22045 -19.20655 -19.19542
 Alpha  occ. eigenvalues --  -19.19398 -19.19271 -19.19184 -19.18943 -19.18145
 Alpha  occ. eigenvalues --  -19.17180 -19.16397 -19.15262 -19.13684 -14.49917
 Alpha  occ. eigenvalues --  -14.49184 -14.48467 -14.48410 -14.47833 -14.46871
 Alpha  occ. eigenvalues --  -14.46608 -14.44724 -14.44171 -14.43738 -14.43461
 Alpha  occ. eigenvalues --  -14.43131 -14.42599 -14.41523 -10.45366 -10.39147
 Alpha  occ. eigenvalues --  -10.38821 -10.37035 -10.36606 -10.36574 -10.36520
 Alpha  occ. eigenvalues --  -10.36478 -10.35691 -10.35066 -10.34660 -10.33541
 Alpha  occ. eigenvalues --  -10.33329 -10.32829 -10.32816 -10.32803 -10.32053
 Alpha  occ. eigenvalues --  -10.31610 -10.31244 -10.31173 -10.30818 -10.30004
 Alpha  occ. eigenvalues --  -10.29872 -10.29543 -10.29516 -10.29429 -10.29395
 Alpha  occ. eigenvalues --  -10.27419 -10.27374 -10.27086 -10.27021 -10.26735
 Alpha  occ. eigenvalues --  -10.25684 -10.25365 -10.25263 -10.24977 -10.24882
 Alpha  occ. eigenvalues --  -10.24003 -10.23907 -10.23204 -10.22903 -10.22655
 Alpha  occ. eigenvalues --  -10.22289  -1.14508  -1.14202  -1.13979  -1.13340
 Alpha  occ. eigenvalues --   -1.12294  -1.11983  -1.11345  -1.11084  -1.10673
 Alpha  occ. eigenvalues --   -1.10462  -1.10122  -1.09772  -1.07962  -1.06812
 Alpha  occ. eigenvalues --   -1.03194  -1.02918  -1.02479  -1.02055  -1.01447
 Alpha  occ. eigenvalues --   -1.01196  -1.01067  -1.00468  -1.00238  -0.99853
 Alpha  occ. eigenvalues --   -0.99774  -0.99380  -0.98972  -0.98336  -0.90490
 Alpha  occ. eigenvalues --   -0.89537  -0.88485  -0.87831  -0.86711  -0.85946
 Alpha  occ. eigenvalues --   -0.85798  -0.84753  -0.83365  -0.83318  -0.82029
 Alpha  occ. eigenvalues --   -0.81531  -0.80024  -0.78193  -0.77509  -0.77400
 Alpha  occ. eigenvalues --   -0.76979  -0.76023  -0.75566  -0.75494  -0.75097
 Alpha  occ. eigenvalues --   -0.74952  -0.74063  -0.73500  -0.72262  -0.70983
 Alpha  occ. eigenvalues --   -0.70960  -0.70770  -0.70044  -0.69553  -0.68359
 Alpha  occ. eigenvalues --   -0.68142  -0.67389  -0.67198  -0.66850  -0.66441
 Alpha  occ. eigenvalues --   -0.66080  -0.65115  -0.64934  -0.64854  -0.64670
 Alpha  occ. eigenvalues --   -0.64630  -0.64301  -0.63767  -0.63196  -0.62704
 Alpha  occ. eigenvalues --   -0.62524  -0.62169  -0.62027  -0.61568  -0.60979
 Alpha  occ. eigenvalues --   -0.60237  -0.59740  -0.58801  -0.58640  -0.58143
 Alpha  occ. eigenvalues --   -0.57844  -0.57798  -0.57602  -0.57195  -0.56961
 Alpha  occ. eigenvalues --   -0.56642  -0.56357  -0.56141  -0.55690  -0.55517
 Alpha  occ. eigenvalues --   -0.55330  -0.55059  -0.54785  -0.54340  -0.54184
 Alpha  occ. eigenvalues --   -0.54071  -0.53871  -0.53592  -0.53381  -0.53171
 Alpha  occ. eigenvalues --   -0.52838  -0.52781  -0.52268  -0.51788  -0.51650
 Alpha  occ. eigenvalues --   -0.51523  -0.51051  -0.50959  -0.50839  -0.50671
 Alpha  occ. eigenvalues --   -0.50660  -0.50571  -0.50323  -0.49919  -0.49402
 Alpha  occ. eigenvalues --   -0.49023  -0.48900  -0.48652  -0.48387  -0.48206
 Alpha  occ. eigenvalues --   -0.48165  -0.47928  -0.47570  -0.47502  -0.47327
 Alpha  occ. eigenvalues --   -0.47236  -0.47191  -0.47151  -0.46755  -0.46706
 Alpha  occ. eigenvalues --   -0.46443  -0.46235  -0.46102  -0.46008  -0.45781
 Alpha  occ. eigenvalues --   -0.45628  -0.45405  -0.45316  -0.45222  -0.44855
 Alpha  occ. eigenvalues --   -0.44628  -0.44360  -0.44336  -0.44298  -0.44140
 Alpha  occ. eigenvalues --   -0.43785  -0.43774  -0.43658  -0.43198  -0.42964
 Alpha  occ. eigenvalues --   -0.42827  -0.42504  -0.42138  -0.41970  -0.41782
 Alpha  occ. eigenvalues --   -0.41707  -0.41483  -0.41212  -0.41101  -0.40925
 Alpha  occ. eigenvalues --   -0.40870  -0.40819  -0.40617  -0.40556  -0.40235
 Alpha  occ. eigenvalues --   -0.39979  -0.38545  -0.38473  -0.38171  -0.38063
 Alpha  occ. eigenvalues --   -0.37727  -0.37608  -0.36182  -0.35837  -0.35491
 Alpha  occ. eigenvalues --   -0.35149  -0.35011  -0.35001  -0.34733  -0.34362
 Alpha  occ. eigenvalues --   -0.33918  -0.33739  -0.33288  -0.33157  -0.32736
 Alpha  occ. eigenvalues --   -0.32645  -0.32500  -0.32200  -0.31650  -0.31522
 Alpha  occ. eigenvalues --   -0.31207  -0.30588  -0.30418  -0.30335  -0.29976
 Alpha  occ. eigenvalues --   -0.27816
 Alpha virt. eigenvalues --   -0.09741  -0.09519  -0.09297  -0.07822  -0.06755
 Alpha virt. eigenvalues --   -0.06685  -0.06239  -0.05875  -0.05794  -0.05475
 Alpha virt. eigenvalues --   -0.05060  -0.03534  -0.02551  -0.01963  -0.01681

 Mulliken charges:
               1
     1  N   -0.794107
     2  H    0.459649
     3  H    0.381285
     4  H    0.388424
     5  C   -0.114665
     6  H    0.245502
     7  C    0.625975
     8  C   -0.045251
     9  H    0.168371
    10  H    0.152264
    11  O   -0.535904
    12  O   -0.622636
    13  H    0.417351
    14  N   -0.619308
    15  H    0.376467
    16  C   -0.014142
    17  H    0.194580
    18  C    0.602103
    19  C   -0.491138
    20  H    0.159270
    21  H    0.165594
    22  H    0.210166
    23  O   -0.544784
    24  N   -0.605015
    25  H    0.357774
    26  C   -0.083686
    27  H    0.194982
    28  C    0.629336
    29  C    0.111564
    30  H    0.153586
    31  O   -0.548545
    32  C   -0.447856
    33  H    0.151168
    34  H    0.149064
    35  H    0.173681
    36  O   -0.650758
    37  H    0.417162
    38  N   -0.642884
    39  H    0.402443
    40  C   -0.036065
    41  H    0.171092
    42  C    0.606784
    43  C   -0.099171
    44  H    0.123752
    45  O   -0.514224
    46  C   -0.446714
    47  H    0.157040
    48  H    0.166972
    49  H    0.129542
    50  C   -0.485553
    51  H    0.157029
    52  H    0.176566
    53  H    0.140193
    54  N   -0.594673
    55  H    0.338452
    56  C   -0.082130
    57  H    0.196637
    58  C    0.656960
    59  C   -0.081765
    60  H    0.147545
    61  O   -0.610439
    62  C   -0.279233
    63  H    0.167659
    64  H    0.142364
    65  C   -0.467581
    66  H    0.158706
    67  H    0.139497
    68  H    0.154937
    69  C   -0.458649
    70  H    0.155781
    71  H    0.146037
    72  H    0.149863
    73  N   -0.599340
    74  H    0.403652
    75  C   -0.049185
    76  H    0.152089
    77  C    0.636167
    78  C   -0.378923
    79  H    0.192465
    80  H    0.171344
    81  O   -0.525171
    82  C    0.617129
    83  O   -0.573594
    84  O   -0.607751
    85  N   -0.629124
    86  H    0.357846
    87  C   -0.032889
    88  H    0.182447
    89  C    0.636019
    90  C   -0.366285
    91  H    0.226017
    92  H    0.165487
    93  O   -0.533424
    94  C    0.291507
    95  C   -0.000686
    96  H    0.192203
    97  N   -0.620752
    98  H    0.436948
    99  C    0.283584
   100  H    0.229856
   101  N   -0.536584
   102  N   -0.622328
   103  H    0.341146
   104  C   -0.070047
   105  H    0.208073
   106  C    0.648389
   107  C   -0.269497
   108  H    0.148965
   109  H    0.146215
   110  O   -0.606984
   111  C   -0.081337
   112  H    0.121082
   113  C   -0.454328
   114  H    0.153327
   115  H    0.157267
   116  H    0.153854
   117  C   -0.452872
   118  H    0.158020
   119  H    0.151638
   120  H    0.133722
   121  N   -0.611931
   122  H    0.382339
   123  C   -0.070178
   124  H    0.164224
   125  C    0.586995
   126  C   -0.307391
   127  H    0.170321
   128  H    0.141628
   129  O   -0.525743
   130  C   -0.281250
   131  H    0.165111
   132  H    0.207518
   133  C   -0.163048
   134  H    0.178820
   135  H    0.159101
   136  N   -0.644222
   137  H    0.442445
   138  N   -0.761581
   139  H    0.375609
   140  H    0.381289
   141  N   -0.795125
   142  H    0.362511
   143  H    0.421440
   144  C    0.794543
   145  O   -0.640563
   146  H    0.427486
 Sum of Mulliken charges =   1.00000

 Dipole moment (field-independent basis, Debye):
    X=             26.1097    Y=             10.3186    Z=              8.6065  Tot=             29.3643
 Quadrupole moment (field-independent basis, Debye-Ang):
   XX=             10.8363   YY=           -397.1884   ZZ=           -309.3369
   XY=            119.6069   XZ=            183.6663   YZ=             32.3248

 Normal termination of Gaussian 16 at Sun Jun 12 09:17:21 2022.
