 Gaussian 16, Revision C.01,
 Gaussian 16:  ES64L-G16RevC.01  3-Jul-2019

 ----------------------------------------------------------------------
 # B3LYP/6-31G* empiricaldispersion=gd3 guess=read geom=check nosymm in
 tegral(ultrafinegrid)
 ----------------------------------------------------------------------

 ------------------------------------------------------
 Candidate Structure: Conf:496 Charge calc in gas phase
 ------------------------------------------------------
 Structure from the checkpoint file:  "conf-496.chk"
 Charge =  1 Multiplicity = 1

                          Input orientation:
 ---------------------------------------------------------------------
 Center     Atomic      Atomic             Coordinates (Angstroms)
 Number     Number       Type             X           Y           Z
 ---------------------------------------------------------------------
      1          7           0       -9.252107   -6.535192   -5.275865
      2          1           0       -9.011270   -6.177605   -6.200725
      3          1           0       -8.741422   -7.408664   -5.111318
      4          1           0      -10.249946   -6.745506   -5.249676
      5          6           0       -8.884682   -5.587541   -4.192438
      6          1           0       -9.559117   -4.725884   -4.228768
      7          6           0       -7.453280   -5.094550   -4.400422
      8          6           0       -9.006348   -6.290965   -2.852466
      9          1           0      -10.048401   -6.566417   -2.682974
     10          1           0       -8.688814   -5.617781   -2.046321
     11          8           0       -6.492081   -5.636222   -3.850150
     12          8           0       -8.266029   -7.497332   -2.826838
     13          1           0       -7.345383   -7.231060   -2.946681
     14          7           0       -7.294867   -4.085774   -5.279781
     15          1           0       -8.083226   -3.525762   -5.557781
     16          6           0       -5.972393   -3.566403   -5.609580
     17          1           0       -5.309532   -4.433104   -5.661454
     18          6           0       -5.497192   -2.647438   -4.483793
     19          6           0       -6.017786   -2.845840   -6.941242
     20          1           0       -5.034638   -2.438890   -7.190682
     21          1           0       -6.724673   -2.017340   -6.900104
     22          1           0       -6.319355   -3.541294   -7.726559
     23          8           0       -5.645755   -1.420353   -4.516174
     24          7           0       -4.922430   -3.261460   -3.433576
     25          1           0       -4.853209   -4.270236   -3.399786
     26          6           0       -4.438927   -2.507524   -2.295314
     27          1           0       -5.120456   -1.665322   -2.158441
     28          6           0       -3.040008   -1.972684   -2.610915
     29          6           0       -4.425171   -3.376593   -1.040983
     30          1           0       -3.957546   -2.792573   -0.241425
     31          8           0       -2.024588   -2.444153   -2.088008
     32          6           0       -5.814020   -3.805851   -0.620931
     33          1           0       -6.442440   -2.937554   -0.409028
     34          1           0       -6.284852   -4.392507   -1.413269
     35          1           0       -5.753353   -4.427606    0.272344
     36          8           0       -3.668110   -4.554563   -1.280335
     37          1           0       -2.761748   -4.253918   -1.412531
     38          7           0       -2.982789   -0.981225   -3.516332
     39          1           0       -3.841925   -0.679281   -3.959634
     40          6           0       -1.706230   -0.541058   -4.058473
     41          1           0       -1.042937   -1.412755   -4.039973
     42          6           0       -1.154912    0.533283   -3.116247
     43          6           0       -1.817128   -0.033965   -5.502890
     44          1           0       -2.385832    0.896577   -5.470948
     45          8           0       -1.229865    1.736940   -3.356066
     46          6           0       -0.421933    0.247546   -6.068494
     47          1           0        0.159917   -0.677309   -6.086944
     48          1           0        0.111606    0.982423   -5.465587
     49          1           0       -0.494819    0.626413   -7.090341
     50          6           0       -2.543864   -1.029469   -6.403742
     51          1           0       -2.029397   -1.994117   -6.392644
     52          1           0       -3.580341   -1.183647   -6.099351
     53          1           0       -2.556128   -0.658509   -7.429978
     54          7           0       -0.624711    0.055010   -1.965323
     55          1           0       -0.588887   -0.940144   -1.780785
     56          6           0       -0.009469    0.927530   -0.999569
     57          1           0        0.165360    1.880925   -1.502886
     58          6           0        1.335485    0.330764   -0.574884
     59          6           0       -0.917554    1.218602    0.220270
     60          1           0       -0.308598    1.825125    0.904006
     61          8           0        1.582675   -0.865068   -0.628288
     62          6           0       -1.337401   -0.059899    0.949460
     63          1           0       -0.459633   -0.700885    1.076295
     64          1           0       -2.031849   -0.607390    0.307973
     65          6           0       -2.128154    2.048813   -0.216387
     66          1           0       -2.810829    1.434926   -0.807736
     67          1           0       -1.819538    2.893955   -0.834363
     68          1           0       -2.676884    2.430255    0.644751
     69          6           0       -1.992767    0.188700    2.300848
     70          1           0       -2.285642   -0.752126    2.770991
     71          1           0       -1.310397    0.707347    2.981909
     72          1           0       -2.891952    0.799634    2.205411
     73          7           0        2.230520    1.230383   -0.094240
     74          1           0        1.966053    2.174419    0.138766
     75          6           0        3.483070    0.769296    0.467244
     76          1           0        3.301817   -0.199894    0.955075
     77          6           0        3.883523    1.770131    1.559647
     78          6           0        4.542897    0.567961   -0.608164
     79          1           0        4.157824   -0.160575   -1.323475
     80          1           0        4.743427    1.496499   -1.145867
     81          8           0        3.195880    2.746832    1.797377
     82          6           0        5.886273    0.015443   -0.087516
     83          8           0        6.879373    0.285215   -0.772199
     84          8           0        5.848588   -0.680476    0.960471
     85          7           0        4.997283    1.439749    2.256023
     86          1           0        5.388985    0.510607    2.059032
     87          6           0        5.128468    1.981728    3.596217
     88          1           0        4.401159    2.794012    3.637843
     89          6           0        6.523269    2.587911    3.760007
     90          6           0        4.801626    0.934101    4.684891
     91          1           0        4.536599    1.452878    5.606615
     92          1           0        5.681938    0.327515    4.893655
     93          8           0        7.320639    2.227800    4.615539
     94          6           0        3.708484    0.010096    4.229488
     95          6           0        3.806496   -1.300705    3.887918
     96          1           0        4.643063   -1.984866    3.997574
     97          7           0        2.443885    0.443891    3.885771
     98          1           0        2.079888    1.397239    3.953682
     99          6           0        1.832033   -0.578884    3.278128
    100          1           0        0.860625   -0.526133    2.809909
    101          7           0        2.614369   -1.673012    3.303411
    102          7           0        6.823808    3.552354    2.853729
    103          1           0        6.110887    3.861595    2.218322
    104          6           0        8.094732    4.255973    2.868372
    105          1           0        8.888002    3.519621    2.716702
    106          6           0        8.309565    4.926688    4.222704
    107          6           0        8.093748    5.300791    1.749600
    108          1           0        7.886447    4.780082    0.811014
    109          1           0        7.253324    5.971892    1.944774
    110          8           0        7.466022    5.647545    4.729091
    111          6           0        9.365404    6.136224    1.583316
    112          1           0        9.526752    6.692557    2.514183
    113          6           0       10.596082    5.274496    1.320654
    114          1           0       10.443290    4.646144    0.437812
    115          1           0       11.470649    5.903880    1.138752
    116          1           0       10.836491    4.625512    2.164495
    117          6           0        9.163315    7.146412    0.457280
    118          1           0        9.009950    6.627686   -0.491610
    119          1           0       10.034997    7.796014    0.353041
    120          1           0        8.293186    7.778232    0.646577
    121          7           0        9.510814    4.674307    4.804585
    122          1           0       10.324233    4.364160    4.287495
    123          6           0        9.931255    5.374395    5.981807
    124          1           0        9.404890    6.335142    6.053210
    125          6           0       11.463116    5.604012    5.799436
    126          6           0        9.721703    4.592138    7.279229
    127          1           0       10.072277    5.219182    8.100286
    128          1           0       10.340871    3.693736    7.275722
    129          8           0       11.944463    5.004989    4.808911
    130          6           0        8.267594    4.201150    7.481852
    131          1           0        7.653720    5.104632    7.464091
    132          1           0        7.936391    3.576013    6.658814
    133          6           0        8.035075    3.438994    8.784563
    134          1           0        6.964766    3.301167    8.940529
    135          1           0        8.473715    2.439856    8.727501
    136          7           0        8.546912    4.139206    9.979971
    137          1           0        8.060815    5.009378   10.147735
    138          7           0       10.685410    3.171133    9.953721
    139          1           0       11.681708    3.325291    9.973135
    140          1           0       10.367075    2.468062    9.308728
    141          7           0       10.366764    5.249212   10.959359
    142          1           0       11.212673    5.095756   11.492290
    143          1           0        9.709387    5.862785   11.423521
    144          6           0        9.852960    4.171773   10.299272
    145          8           0       12.039597    6.322616    6.614765
    146          1           0        2.388983   -2.582305    2.909699
 ---------------------------------------------------------------------

 SCF Done:  E(RB3LYP) =  -3503.39171531     A.U. after    3 cycles

 Alpha  occ. eigenvalues --  -19.29232 -19.28428 -19.22404 -19.21501 -19.20375
 Alpha  occ. eigenvalues --  -19.16530 -19.15816 -19.15604 -19.14185 -19.10098
 Alpha  occ. eigenvalues --  -19.05305 -19.04426 -19.04091 -19.03933 -14.65197
 Alpha  occ. eigenvalues --  -14.53838 -14.53517 -14.52524 -14.48843 -14.48538
 Alpha  occ. eigenvalues --  -14.48421 -14.46423 -14.43545 -14.39802 -14.39074
 Alpha  occ. eigenvalues --  -14.37720 -14.37495 -14.32447 -10.45442 -10.45090
 Alpha  occ. eigenvalues --  -10.43295 -10.40396 -10.39749 -10.39542 -10.36918
 Alpha  occ. eigenvalues --  -10.36146 -10.34496 -10.33916 -10.33085 -10.32382
 Alpha  occ. eigenvalues --  -10.32334 -10.32298 -10.31871 -10.31194 -10.30721
 Alpha  occ. eigenvalues --  -10.29494 -10.28731 -10.27924 -10.27600 -10.27112
 Alpha  occ. eigenvalues --  -10.26837 -10.26273 -10.25262 -10.25008 -10.24784
 Alpha  occ. eigenvalues --  -10.24722 -10.24603 -10.23694 -10.23133 -10.23053
 Alpha  occ. eigenvalues --  -10.22281 -10.22224 -10.22003 -10.21847 -10.20316
 Alpha  occ. eigenvalues --  -10.19428 -10.18809 -10.18424 -10.17106 -10.16988
 Alpha  occ. eigenvalues --  -10.15919  -1.22005  -1.19481  -1.17768  -1.16729
 Alpha  occ. eigenvalues --   -1.14619  -1.13202  -1.12466  -1.09607  -1.09274
 Alpha  occ. eigenvalues --   -1.08710  -1.08237  -1.07510  -1.06300  -1.05121
 Alpha  occ. eigenvalues --   -1.02933  -1.02646  -1.02508  -1.01706  -1.00291
 Alpha  occ. eigenvalues --   -0.98990  -0.98618  -0.96882  -0.96774  -0.95878
 Alpha  occ. eigenvalues --   -0.95620  -0.93922  -0.91051  -0.90404  -0.90355
 Alpha  occ. eigenvalues --   -0.89704  -0.88615  -0.87563  -0.86960  -0.86036
 Alpha  occ. eigenvalues --   -0.84839  -0.83457  -0.82771  -0.81584  -0.81514
 Alpha  occ. eigenvalues --   -0.80884  -0.79888  -0.78736  -0.78709  -0.78436
 Alpha  occ. eigenvalues --   -0.77962  -0.77745  -0.76603  -0.76307  -0.75337
 Alpha  occ. eigenvalues --   -0.74866  -0.74217  -0.73825  -0.73634  -0.72068
 Alpha  occ. eigenvalues --   -0.71931  -0.70663  -0.70122  -0.69635  -0.69561
 Alpha  occ. eigenvalues --   -0.68764  -0.67782  -0.67687  -0.67164  -0.66670
 Alpha  occ. eigenvalues --   -0.66390  -0.65938  -0.65301  -0.65163  -0.64810
 Alpha  occ. eigenvalues --   -0.64297  -0.63552  -0.63043  -0.62810  -0.62280
 Alpha  occ. eigenvalues --   -0.62117  -0.61633  -0.61347  -0.61068  -0.60892
 Alpha  occ. eigenvalues --   -0.60819  -0.60443  -0.59705  -0.59355  -0.59047
 Alpha  occ. eigenvalues --   -0.58828  -0.58380  -0.58276  -0.57082  -0.57044
 Alpha  occ. eigenvalues --   -0.56745  -0.56203  -0.56184  -0.55913  -0.55745
 Alpha  occ. eigenvalues --   -0.55261  -0.54634  -0.54506  -0.53529  -0.53378
 Alpha  occ. eigenvalues --   -0.53136  -0.52973  -0.52389  -0.52286  -0.52175
 Alpha  occ. eigenvalues --   -0.51415  -0.51157  -0.50883  -0.50805  -0.50721
 Alpha  occ. eigenvalues --   -0.50306  -0.50142  -0.49713  -0.49688  -0.49257
 Alpha  occ. eigenvalues --   -0.49028  -0.48965  -0.48609  -0.48363  -0.48019
 Alpha  occ. eigenvalues --   -0.47981  -0.47951  -0.47366  -0.47155  -0.47127
 Alpha  occ. eigenvalues --   -0.46816  -0.46453  -0.46166  -0.45771  -0.45521
 Alpha  occ. eigenvalues --   -0.45437  -0.45352  -0.45154  -0.44782  -0.44621
 Alpha  occ. eigenvalues --   -0.44286  -0.43965  -0.43587  -0.43528  -0.43257
 Alpha  occ. eigenvalues --   -0.43223  -0.42980  -0.42940  -0.42619  -0.42456
 Alpha  occ. eigenvalues --   -0.42321  -0.42163  -0.41936  -0.41812  -0.41753
 Alpha  occ. eigenvalues --   -0.41231  -0.41211  -0.41037  -0.40281  -0.40098
 Alpha  occ. eigenvalues --   -0.40065  -0.39751  -0.39551  -0.39262  -0.39145
 Alpha  occ. eigenvalues --   -0.39000  -0.38634  -0.38409  -0.37896  -0.37835
 Alpha  occ. eigenvalues --   -0.37505  -0.37428  -0.37199  -0.37155  -0.36326
 Alpha  occ. eigenvalues --   -0.36294  -0.36194  -0.35672  -0.35582  -0.35136
 Alpha  occ. eigenvalues --   -0.35081  -0.34724  -0.34378  -0.33903  -0.33006
 Alpha  occ. eigenvalues --   -0.32706  -0.32680  -0.32264  -0.32085  -0.31943
 Alpha  occ. eigenvalues --   -0.30977  -0.30581  -0.30073  -0.29357  -0.28945
 Alpha  occ. eigenvalues --   -0.28572  -0.27926  -0.27002  -0.24268  -0.23958
 Alpha  occ. eigenvalues --   -0.20916  -0.20154  -0.19994  -0.19107  -0.18182
 Alpha  occ. eigenvalues --   -0.17928
 Alpha virt. eigenvalues --   -0.17499  -0.13510  -0.12792  -0.10105  -0.10101
 Alpha virt. eigenvalues --   -0.08952  -0.08174  -0.06981  -0.06484  -0.06202
 Alpha virt. eigenvalues --   -0.05217  -0.05134  -0.03409  -0.02997  -0.02604

 Mulliken charges:
               1
     1  N   -0.691441
     2  H    0.415602
     3  H    0.426108
     4  H    0.412894
     5  C   -0.176728
     6  H    0.215758
     7  C    0.618153
     8  C   -0.046016
     9  H    0.181049
    10  H    0.206625
    11  O   -0.517751
    12  O   -0.615736
    13  H    0.439288
    14  N   -0.590990
    15  H    0.345356
    16  C   -0.070529
    17  H    0.195818
    18  C    0.635298
    19  C   -0.476097
    20  H    0.212810
    21  H    0.180723
    22  H    0.154341
    23  O   -0.545428
    24  N   -0.593455
    25  H    0.375167
    26  C   -0.070520
    27  H    0.183770
    28  C    0.643279
    29  C    0.109451
    30  H    0.149365
    31  O   -0.562497
    32  C   -0.461876
    33  H    0.147255
    34  H    0.133227
    35  H    0.176912
    36  O   -0.648243
    37  H    0.423322
    38  N   -0.619930
    39  H    0.380688
    40  C   -0.046208
    41  H    0.173492
    42  C    0.633502
    43  C   -0.101873
    44  H    0.160439
    45  O   -0.536643
    46  C   -0.459115
    47  H    0.143566
    48  H    0.185723
    49  H    0.152212
    50  C   -0.475800
    51  H    0.140008
    52  H    0.136037
    53  H    0.157790
    54  N   -0.610439
    55  H    0.372868
    56  C   -0.075545
    57  H    0.188422
    58  C    0.609556
    59  C   -0.071735
    60  H    0.113324
    61  O   -0.549783
    62  C   -0.285396
    63  H    0.135217
    64  H    0.146178
    65  C   -0.452578
    66  H    0.142912
    67  H    0.177176
    68  H    0.141185
    69  C   -0.452855
    70  H    0.142949
    71  H    0.120127
    72  H    0.164511
    73  N   -0.605953
    74  H    0.344997
    75  C   -0.052631
    76  H    0.151517
    77  C    0.567850
    78  C   -0.346746
    79  H    0.167657
    80  H    0.145678
    81  O   -0.571328
    82  C    0.568359
    83  O   -0.551615
    84  O   -0.648972
    85  N   -0.598542
    86  H    0.393621
    87  C   -0.102898
    88  H    0.181949
    89  C    0.671498
    90  C   -0.359969
    91  H    0.174410
    92  H    0.208818
    93  O   -0.545293
    94  C    0.298464
    95  C    0.040879
    96  H    0.240435
    97  N   -0.569472
    98  H    0.399570
    99  C    0.305948
   100  H    0.248890
   101  N   -0.534953
   102  N   -0.604098
   103  H    0.341322
   104  C   -0.007249
   105  H    0.170726
   106  C    0.622100
   107  C   -0.306211
   108  H    0.147220
   109  H    0.144331
   110  O   -0.573684
   111  C   -0.086313
   112  H    0.151347
   113  C   -0.452200
   114  H    0.135738
   115  H    0.150543
   116  H    0.169488
   117  C   -0.442333
   118  H    0.138824
   119  H    0.146353
   120  H    0.135059
   121  N   -0.606291
   122  H    0.371563
   123  C   -0.063405
   124  H    0.148955
   125  C    0.570256
   126  C   -0.275613
   127  H    0.138426
   128  H    0.110153
   129  O   -0.601663
   130  C   -0.280476
   131  H    0.159215
   132  H    0.220538
   133  C   -0.211063
   134  H    0.178730
   135  H    0.165832
   136  N   -0.548114
   137  H    0.358919
   138  N   -0.716922
   139  H    0.393225
   140  H    0.389290
   141  N   -0.711415
   142  H    0.374461
   143  H    0.371018
   144  C    0.742562
   145  O   -0.579134
   146  H    0.403571
 Sum of Mulliken charges =   1.00000

 Dipole moment (field-independent basis, Debye):
    X=            -50.2104    Y=            -28.8788    Z=              7.0418  Tot=             58.3494
 Quadrupole moment (field-independent basis, Debye-Ang):
   XX=           -205.8863   YY=           -320.6751   ZZ=             53.4836
   XY=            169.1639   XZ=            408.0949   YZ=            190.4947

 Normal termination of Gaussian 16 at Sun Jun 12 09:17:44 2022.
