 Gaussian 16, Revision C.01,
 Gaussian 16:  ES64L-G16RevC.01  3-Jul-2019

 ----------------------------------------------------------------------
 # B3LYP/6-31G* empiricaldispersion=gd3 guess=read geom=check nosymm in
 tegral(ultrafinegrid)
 ----------------------------------------------------------------------

 ------------------------------------------------------
 Candidate Structure: Conf:669 Charge calc in gas phase
 ------------------------------------------------------
 Structure from the checkpoint file:  "conf-669.chk"
 Charge =  1 Multiplicity = 1

                          Input orientation:
 ---------------------------------------------------------------------
 Center     Atomic      Atomic             Coordinates (Angstroms)
 Number     Number       Type             X           Y           Z
 ---------------------------------------------------------------------
      1          7           0       -2.207037    2.462777   -2.565665
      2          1           0       -2.809622    3.244615   -2.850510
      3          1           0       -2.800094    1.695377   -2.222466
      4          1           0       -1.479713    2.715030   -1.813699
      5          6           0       -1.439812    2.003691   -3.764900
      6          1           0       -0.609784    2.705292   -3.883419
      7          6           0       -2.414591    2.084504   -4.950876
      8          6           0       -0.859203    0.614525   -3.470396
      9          1           0       -1.635762   -0.140466   -3.581762
     10          1           0       -0.520686    0.576027   -2.431661
     11          8           0       -3.271350    2.958473   -4.964732
     12          8           0        0.180294    0.312711   -4.380965
     13          1           0        0.907923    0.921173   -4.148532
     14          7           0       -2.280538    1.115806   -5.914264
     15          1           0       -1.491291    0.487888   -5.784109
     16          6           0       -3.507160    0.489072   -6.405974
     17          1           0       -4.200931    1.299865   -6.652437
     18          6           0       -4.149137   -0.256633   -5.199402
     19          6           0       -3.231512   -0.357549   -7.646901
     20          1           0       -4.161229   -0.733918   -8.086648
     21          1           0       -2.585756   -1.212185   -7.414396
     22          1           0       -2.733719    0.256004   -8.402106
     23          8           0       -4.105887    0.267235   -4.076204
     24          7           0       -4.718261   -1.460780   -5.405760
     25          1           0       -4.903496   -1.752801   -6.358496
     26          6           0       -5.617784   -2.084168   -4.419253
     27          1           0       -6.224297   -1.283106   -3.975761
     28          6           0       -4.859211   -2.800377   -3.262808
     29          6           0       -6.533528   -3.088010   -5.147814
     30          1           0       -5.957879   -4.008077   -5.316955
     31          8           0       -5.022075   -3.995319   -3.022727
     32          6           0       -7.783969   -3.410075   -4.336344
     33          1           0       -7.511867   -3.857260   -3.377471
     34          1           0       -8.371790   -2.500956   -4.168771
     35          1           0       -8.410941   -4.128256   -4.877710
     36          8           0       -6.865373   -2.476395   -6.403996
     37          1           0       -7.400541   -3.108925   -6.907250
     38          7           0       -4.052825   -1.996830   -2.530680
     39          1           0       -3.978276   -1.011282   -2.787551
     40          6           0       -3.314097   -2.479696   -1.380737
     41          1           0       -4.000980   -3.045015   -0.735955
     42          6           0       -2.805340   -1.247854   -0.620860
     43          6           0       -2.161185   -3.459765   -1.788310
     44          1           0       -2.675833   -4.210953   -2.395887
     45          8           0       -2.680494   -0.139517   -1.149168
     46          6           0       -1.089753   -2.783117   -2.647707
     47          1           0       -0.549638   -2.009508   -2.088241
     48          1           0       -1.527261   -2.318254   -3.535409
     49          1           0       -0.354794   -3.520400   -2.988261
     50          6           0       -1.534983   -4.187588   -0.589257
     51          1           0       -0.885684   -3.528443   -0.001425
     52          1           0       -2.301585   -4.619369    0.068861
     53          1           0       -0.916757   -5.018773   -0.945421
     54          7           0       -2.476566   -1.454016    0.681780
     55          1           0       -2.472783   -2.403222    1.029131
     56          6           0       -1.737002   -0.460409    1.451435
     57          1           0       -2.135741    0.521481    1.181599
     58          6           0       -0.251930   -0.548568    1.070558
     59          6           0       -1.914739   -0.691416    2.971194
     60          1           0       -1.560637   -1.716769    3.177264
     61          8           0        0.349065   -1.638851    1.142551
     62          6           0       -3.402762   -0.608720    3.366125
     63          1           0       -3.993251   -1.224529    2.677905
     64          1           0       -3.744694    0.425295    3.219209
     65          6           0       -1.048603    0.293908    3.773139
     66          1           0       -1.388950    1.323418    3.607792
     67          1           0        0.009493    0.255548    3.495249
     68          1           0       -1.129721    0.092832    4.845681
     69          6           0       -3.692486   -1.052202    4.804210
     70          1           0       -4.769545   -1.042398    4.999325
     71          1           0       -3.333534   -2.073972    4.982834
     72          1           0       -3.221588   -0.395602    5.543083
     73          7           0        0.336552    0.591506    0.695482
     74          1           0       -0.221271    1.417781    0.442573
     75          6           0        1.727345    0.678054    0.287216
     76          1           0        1.921528   -0.073905   -0.490614
     77          6           0        2.674370    0.431716    1.471588
     78          6           0        2.013535    2.092980   -0.283324
     79          1           0        1.966991    2.819844    0.534675
     80          1           0        3.011774    2.107294   -0.727862
     81          8           0        2.345335    0.540473    2.645710
     82          6           0        0.964903    2.458049   -1.356804
     83          8           0       -0.189795    2.735632   -0.863042
     84          8           0        1.289719    2.389716   -2.552285
     85          7           0        3.968296    0.147067    1.099724
     86          1           0        4.176710   -0.013613    0.121949
     87          6           0        5.038942   -0.014861    2.067036
     88          1           0        4.737446    0.569354    2.945254
     89          6           0        6.366418    0.583089    1.562911
     90          6           0        5.241536   -1.497624    2.509534
     91          1           0        6.032067   -1.540347    3.263187
     92          1           0        5.586416   -2.089896    1.657178
     93          8           0        7.442094    0.100729    1.954589
     94          6           0        3.945429   -2.036986    3.005512
     95          6           0        2.889433   -2.529845    2.294514
     96          1           0        2.795932   -2.787796    1.253580
     97          7           0        3.443642   -1.784483    4.278428
     98          1           0        3.966302   -1.380042    5.045000
     99          6           0        2.135986   -2.067051    4.322386
    100          1           0        1.482838   -1.931653    5.169701
    101          7           0        1.793600   -2.542837    3.128527
    102          7           0        6.249321    1.611199    0.718567
    103          1           0        5.327972    2.021712    0.624528
    104          6           0        7.369660    2.438884    0.269605
    105          1           0        8.142041    1.765473   -0.111338
    106          6           0        7.935829    3.259028    1.459713
    107          6           0        6.840224    3.351118   -0.862315
    108          1           0        6.241364    2.718354   -1.535500
    109          1           0        6.149185    4.076841   -0.408036
    110          8           0        7.245929    3.443013    2.479159
    111          6           0        7.882706    4.102109   -1.714649
    112          1           0        8.501300    4.735210   -1.071124
    113          6           0        8.828682    3.146260   -2.453258
    114          1           0        8.270688    2.474911   -3.121039
    115          1           0        9.542954    3.717708   -3.052309
    116          1           0        9.427809    2.536695   -1.768435
    117          6           0        7.148735    5.013289   -2.709455
    118          1           0        6.529400    4.428698   -3.403356
    119          1           0        7.867815    5.586149   -3.303713
    120          1           0        6.495354    5.728052   -2.194642
    121          7           0        9.165059    3.719323    1.235794
    122          1           0        9.633961    3.602548    0.310281
    123          6           0        9.813721    4.904476    1.808592
    124          1           0        9.076842    5.711069    1.897234
    125          6           0       10.917609    5.313337    0.733502
    126          6           0       10.473686    4.673799    3.166457
    127          1           0        9.698333    4.411700    3.898181
    128          1           0       10.913075    5.627605    3.469640
    129          8           0       11.704394    6.191846    1.105457
    130          6           0       11.569816    3.594772    3.087284
    131          1           0       11.334808    2.900623    2.271423
    132          1           0       12.523037    4.060208    2.819602
    133          6           0       11.738238    2.796806    4.382695
    134          1           0       12.466126    1.983712    4.277676
    135          1           0       12.092288    3.426937    5.202494
    136          7           0       10.446206    2.234186    4.849365
    137          1           0        9.965452    2.758594    5.569094
    138          7           0       10.099150    0.621713    3.195451
    139          1           0        9.468214    0.315211    2.459347
    140          1           0       11.092584    0.503069    3.059833
    141          7           0        8.290968    1.570363    4.310082
    142          1           0        7.771751    0.932451    3.710863
    143          1           0        7.919017    2.517825    4.184326
    144          6           0        9.630283    1.489844    4.097827
    145          8           0       10.854676    4.647836   -0.344976
    146          1           0        0.848431   -2.584182    2.733042
 ---------------------------------------------------------------------

 SCF Done:  E(RB3LYP) =  -3503.58832864     A.U. after    2 cycles

 Alpha  occ. eigenvalues --  -19.24184 -19.24058 -19.23341 -19.22472 -19.22304
 Alpha  occ. eigenvalues --  -19.22260 -19.20739 -19.19587 -19.18727 -19.18704
 Alpha  occ. eigenvalues --  -19.17885 -19.17668 -19.09089 -19.07714 -14.56685
 Alpha  occ. eigenvalues --  -14.55480 -14.49432 -14.49028 -14.47999 -14.47814
 Alpha  occ. eigenvalues --  -14.47317 -14.46364 -14.46289 -14.45395 -14.44755
 Alpha  occ. eigenvalues --  -14.42648 -14.42276 -14.39379 -10.43573 -10.43521
 Alpha  occ. eigenvalues --  -10.41138 -10.41098 -10.39654 -10.39025 -10.38513
 Alpha  occ. eigenvalues --  -10.37423 -10.37231 -10.36898 -10.36722 -10.36320
 Alpha  occ. eigenvalues --  -10.35981 -10.34846 -10.34642 -10.33949 -10.33442
 Alpha  occ. eigenvalues --  -10.31697 -10.31634 -10.31540 -10.31528 -10.31402
 Alpha  occ. eigenvalues --  -10.31208 -10.31153 -10.30726 -10.29923 -10.28560
 Alpha  occ. eigenvalues --  -10.27246 -10.27149 -10.26888 -10.26721 -10.26388
 Alpha  occ. eigenvalues --  -10.25852 -10.25850 -10.25742 -10.24881 -10.24365
 Alpha  occ. eigenvalues --  -10.24338 -10.24016 -10.23344 -10.22740 -10.21509
 Alpha  occ. eigenvalues --  -10.21257  -1.20918  -1.16278  -1.15520  -1.14687
 Alpha  occ. eigenvalues --   -1.13780  -1.13001  -1.12332  -1.11592  -1.11249
 Alpha  occ. eigenvalues --   -1.10502  -1.09689  -1.09637  -1.08960  -1.07613
 Alpha  occ. eigenvalues --   -1.05872  -1.04817  -1.03622  -1.03175  -1.02911
 Alpha  occ. eigenvalues --   -1.02175  -1.02095  -1.01903  -1.00760  -1.00033
 Alpha  occ. eigenvalues --   -0.99876  -0.99451  -0.96557  -0.95130  -0.93224
 Alpha  occ. eigenvalues --   -0.91408  -0.90183  -0.88267  -0.87629  -0.87253
 Alpha  occ. eigenvalues --   -0.86389  -0.85654  -0.84382  -0.83444  -0.82825
 Alpha  occ. eigenvalues --   -0.82638  -0.81861  -0.80854  -0.80460  -0.79192
 Alpha  occ. eigenvalues --   -0.79012  -0.77057  -0.76613  -0.76378  -0.75967
 Alpha  occ. eigenvalues --   -0.74987  -0.73655  -0.73584  -0.72847  -0.72220
 Alpha  occ. eigenvalues --   -0.72138  -0.71686  -0.71433  -0.71038  -0.69895
 Alpha  occ. eigenvalues --   -0.69503  -0.69147  -0.68905  -0.68582  -0.67728
 Alpha  occ. eigenvalues --   -0.67160  -0.66780  -0.66699  -0.65973  -0.65774
 Alpha  occ. eigenvalues --   -0.65588  -0.65262  -0.63922  -0.63511  -0.63215
 Alpha  occ. eigenvalues --   -0.62764  -0.62440  -0.62412  -0.61764  -0.61611
 Alpha  occ. eigenvalues --   -0.61357  -0.61258  -0.60701  -0.60618  -0.59947
 Alpha  occ. eigenvalues --   -0.59534  -0.59453  -0.59245  -0.59023  -0.58694
 Alpha  occ. eigenvalues --   -0.58160  -0.57700  -0.57359  -0.57235  -0.56888
 Alpha  occ. eigenvalues --   -0.56520  -0.56368  -0.56042  -0.55680  -0.55381
 Alpha  occ. eigenvalues --   -0.55041  -0.54885  -0.54534  -0.54243  -0.53624
 Alpha  occ. eigenvalues --   -0.53586  -0.53255  -0.53085  -0.52815  -0.52646
 Alpha  occ. eigenvalues --   -0.52557  -0.52139  -0.52083  -0.51710  -0.51497
 Alpha  occ. eigenvalues --   -0.51220  -0.51125  -0.50791  -0.50567  -0.50323
 Alpha  occ. eigenvalues --   -0.50089  -0.50053  -0.49691  -0.49631  -0.49518
 Alpha  occ. eigenvalues --   -0.49373  -0.49161  -0.48659  -0.48429  -0.48367
 Alpha  occ. eigenvalues --   -0.48216  -0.48162  -0.47990  -0.47655  -0.47429
 Alpha  occ. eigenvalues --   -0.47283  -0.47270  -0.47146  -0.47032  -0.46955
 Alpha  occ. eigenvalues --   -0.46827  -0.46700  -0.46165  -0.45976  -0.45658
 Alpha  occ. eigenvalues --   -0.45595  -0.45428  -0.45140  -0.44881  -0.44564
 Alpha  occ. eigenvalues --   -0.43843  -0.43659  -0.43434  -0.43391  -0.42903
 Alpha  occ. eigenvalues --   -0.42653  -0.42613  -0.42537  -0.41913  -0.41898
 Alpha  occ. eigenvalues --   -0.41733  -0.41337  -0.41271  -0.41176  -0.41044
 Alpha  occ. eigenvalues --   -0.40700  -0.40411  -0.39958  -0.39767  -0.39691
 Alpha  occ. eigenvalues --   -0.39113  -0.38814  -0.38464  -0.38175  -0.38055
 Alpha  occ. eigenvalues --   -0.37967  -0.37400  -0.37348  -0.37058  -0.36893
 Alpha  occ. eigenvalues --   -0.36707  -0.36270  -0.36196  -0.36072  -0.35776
 Alpha  occ. eigenvalues --   -0.35758  -0.35489  -0.35014  -0.34703  -0.33782
 Alpha  occ. eigenvalues --   -0.33489  -0.33379  -0.32269  -0.32128  -0.31898
 Alpha  occ. eigenvalues --   -0.31588  -0.31406  -0.30540  -0.24123  -0.23902
 Alpha  occ. eigenvalues --   -0.21955
 Alpha virt. eigenvalues --   -0.15707  -0.11817  -0.10419  -0.10001  -0.09987
 Alpha virt. eigenvalues --   -0.09507  -0.08291  -0.08102  -0.07309  -0.05266
 Alpha virt. eigenvalues --   -0.05082  -0.04761  -0.04642  -0.04401  -0.03393

 Mulliken charges:
               1
     1  N   -0.789110
     2  H    0.395228
     3  H    0.425180
     4  H    0.435912
     5  C   -0.116623
     6  H    0.229089
     7  C    0.648441
     8  C   -0.075702
     9  H    0.169780
    10  H    0.154012
    11  O   -0.515735
    12  O   -0.641640
    13  H    0.428042
    14  N   -0.596108
    15  H    0.357270
    16  C   -0.069819
    17  H    0.218063
    18  C    0.631606
    19  C   -0.492781
    20  H    0.171429
    21  H    0.163873
    22  H    0.193373
    23  O   -0.561809
    24  N   -0.616848
    25  H    0.370091
    26  C   -0.063586
    27  H    0.186311
    28  C    0.629296
    29  C    0.122447
    30  H    0.156602
    31  O   -0.530426
    32  C   -0.476749
    33  H    0.185424
    34  H    0.159077
    35  H    0.150163
    36  O   -0.652380
    37  H    0.409240
    38  N   -0.666508
    39  H    0.414291
    40  C   -0.031621
    41  H    0.169386
    42  C    0.627002
    43  C   -0.080946
    44  H    0.187930
    45  O   -0.560785
    46  C   -0.459312
    47  H    0.145343
    48  H    0.161190
    49  H    0.153376
    50  C   -0.501140
    51  H    0.155674
    52  H    0.141991
    53  H    0.161920
    54  N   -0.601402
    55  H    0.343878
    56  C   -0.042648
    57  H    0.177852
    58  C    0.651944
    59  C   -0.104082
    60  H    0.101228
    61  O   -0.613704
    62  C   -0.254728
    63  H    0.148950
    64  H    0.148967
    65  C   -0.502054
    66  H    0.165774
    67  H    0.182637
    68  H    0.151372
    69  C   -0.453380
    70  H    0.168699
    71  H    0.137940
    72  H    0.155615
    73  N   -0.600158
    74  H    0.394109
    75  C   -0.061388
    76  H    0.172971
    77  C    0.649726
    78  C   -0.371433
    79  H    0.183592
    80  H    0.157046
    81  O   -0.527553
    82  C    0.619895
    83  O   -0.627574
    84  O   -0.561291
    85  N   -0.643598
    86  H    0.347202
    87  C   -0.063679
    88  H    0.211587
    89  C    0.651057
    90  C   -0.350121
    91  H    0.193151
    92  H    0.195985
    93  O   -0.584090
    94  C    0.320958
    95  C    0.018059
    96  H    0.221460
    97  N   -0.579594
    98  H    0.384611
    99  C    0.324843
   100  H    0.249848
   101  N   -0.518708
   102  N   -0.587442
   103  H    0.357335
   104  C   -0.054046
   105  H    0.175241
   106  C    0.607277
   107  C   -0.296854
   108  H    0.133497
   109  H    0.148537
   110  O   -0.602383
   111  C   -0.093927
   112  H    0.181069
   113  C   -0.440632
   114  H    0.118831
   115  H    0.180924
   116  H    0.142175
   117  C   -0.448614
   118  H    0.132148
   119  H    0.166998
   120  H    0.141478
   121  N   -0.619720
   122  H    0.383099
   123  C   -0.086341
   124  H    0.155524
   125  C    0.595928
   126  C   -0.253905
   127  H    0.088734
   128  H    0.185352
   129  O   -0.570012
   130  C   -0.285085
   131  H    0.147712
   132  H    0.202401
   133  C   -0.187198
   134  H    0.167768
   135  H    0.187438
   136  N   -0.557427
   137  H    0.364050
   138  N   -0.744852
   139  H    0.405892
   140  H    0.374200
   141  N   -0.773705
   142  H    0.363950
   143  H    0.394273
   144  C    0.724923
   145  O   -0.614137
   146  H    0.411335
 Sum of Mulliken charges =   1.00000

 Dipole moment (field-independent basis, Debye):
    X=              0.3975    Y=            -17.3502    Z=             12.9276  Tot=             21.6405
 Quadrupole moment (field-independent basis, Debye-Ang):
   XX=           -375.8467   YY=           -471.2792   ZZ=           -275.1767
   XY=           -100.5276   XZ=            143.6427   YZ=             10.6099

 Normal termination of Gaussian 16 at Sun Jun 12 09:17:22 2022.
