 Gaussian 16, Revision C.01,
 Gaussian 16:  ES64L-G16RevC.01  3-Jul-2019

 ----------------------------------------------------------------------
 # B3LYP/6-31G* empiricaldispersion=gd3 guess=read geom=check nosymm in
 tegral(ultrafinegrid)
 ----------------------------------------------------------------------

 ------------------------------------------------------
 Candidate Structure: Conf:981 Charge calc in gas phase
 ------------------------------------------------------
 Structure from the checkpoint file:  "conf-981.chk"
 Charge =  1 Multiplicity = 1

                          Input orientation:
 ---------------------------------------------------------------------
 Center     Atomic      Atomic             Coordinates (Angstroms)
 Number     Number       Type             X           Y           Z
 ---------------------------------------------------------------------
      1          7           0       -8.745196   -0.789175  -10.207691
      2          1           0       -8.063093   -0.222190  -10.719113
      3          1           0       -8.587534   -1.787204  -10.415095
      4          1           0       -9.686433   -0.548869  -10.535492
      5          6           0       -8.628817   -0.633130   -8.716820
      6          1           0       -8.984944    0.362361   -8.433366
      7          6           0       -7.158189   -0.782878   -8.305806
      8          6           0       -9.485612   -1.723515   -8.075669
      9          1           0      -10.536256   -1.560746   -8.332008
     10          1           0       -9.386483   -1.679060   -6.983941
     11          8           0       -6.698539   -1.890012   -8.007213
     12          8           0       -9.135378   -2.993514   -8.591554
     13          1           0       -8.208783   -3.135160   -8.327547
     14          7           0       -6.406587    0.333559   -8.355226
     15          1           0       -6.840877    1.240408   -8.450812
     16          6           0       -4.959640    0.318493   -8.099847
     17          1           0       -4.577570   -0.604824   -8.545310
     18          6           0       -4.706354    0.286380   -6.580890
     19          6           0       -4.316196    1.537479   -8.741168
     20          1           0       -3.245223    1.550408   -8.531611
     21          1           0       -4.747020    2.455254   -8.333670
     22          1           0       -4.464009    1.515021   -9.824347
     23          8           0       -4.409532    1.304178   -5.955571
     24          7           0       -4.851955   -0.918487   -5.992435
     25          1           0       -5.185887   -1.715857   -6.524544
     26          6           0       -4.721235   -1.081992   -4.552756
     27          1           0       -5.064967   -0.154936   -4.082256
     28          6           0       -3.240076   -1.305189   -4.202087
     29          6           0       -5.574017   -2.265612   -4.077304
     30          1           0       -5.344733   -2.426730   -3.016971
     31          8           0       -2.817117   -2.404779   -3.839601
     32          6           0       -7.062675   -2.026592   -4.252360
     33          1           0       -7.387200   -1.144631   -3.692514
     34          1           0       -7.302376   -1.879608   -5.310631
     35          1           0       -7.617664   -2.897226   -3.897882
     36          8           0       -5.238813   -3.426545   -4.828404
     37          1           0       -4.323772   -3.632851   -4.576881
     38          7           0       -2.448707   -0.227358   -4.381366
     39          1           0       -2.856160    0.662246   -4.656262
     40          6           0       -1.045457   -0.233325   -4.008585
     41          1           0       -0.859233   -1.150948   -3.443632
     42          6           0       -0.773412    0.992817   -3.138425
     43          6           0       -0.118424   -0.233199   -5.249772
     44          1           0       -0.435281    0.611269   -5.871960
     45          8           0       -1.215475    2.095351   -3.448123
     46          6           0        1.354031   -0.030804   -4.872492
     47          1           0        1.688913   -0.801926   -4.168265
     48          1           0        1.535225    0.946374   -4.415451
     49          1           0        1.979477   -0.100838   -5.767104
     50          6           0       -0.292020   -1.537303   -6.033477
     51          1           0        0.070024   -2.381815   -5.437192
     52          1           0       -1.338822   -1.728726   -6.283039
     53          1           0        0.284196   -1.504569   -6.962369
     54          7           0        0.016337    0.768449   -2.054259
     55          1           0        0.493101   -0.122981   -1.989200
     56          6           0        0.736206    1.851414   -1.399823
     57          1           0        0.514426    2.771102   -1.945370
     58          6           0        2.226080    1.506743   -1.510155
     59          6           0        0.300077    2.032044    0.075419
     60          1           0        0.489413    1.070780    0.570633
     61          8           0        2.604440    0.339574   -1.476337
     62          6           0       -1.213545    2.303661    0.185957
     63          1           0       -1.473621    2.270487    1.251158
     64          1           0       -1.762020    1.482091   -0.287094
     65          6           0        1.106529    3.119730    0.800945
     66          1           0        1.096325    4.062678    0.243873
     67          1           0        2.154417    2.848416    0.966106
     68          1           0        0.663617    3.318086    1.782347
     69          6           0       -1.683148    3.633637   -0.404017
     70          1           0       -2.765351    3.740455   -0.286413
     71          1           0       -1.211704    4.483910    0.098222
     72          1           0       -1.460015    3.697421   -1.472689
     73          7           0        3.069890    2.564959   -1.657901
     74          1           0        2.694770    3.472791   -1.415566
     75          6           0        4.507241    2.409846   -1.390828
     76          1           0        4.789751    1.407605   -1.705140
     77          6           0        4.764643    2.577452    0.110836
     78          6           0        5.311382    3.478408   -2.116510
     79          1           0        5.132740    3.443420   -3.192237
     80          1           0        5.036561    4.472290   -1.748274
     81          8           0        4.593334    3.679208    0.658755
     82          6           0        6.819156    3.275772   -1.821611
     83          8           0        7.574736    4.121996   -2.330267
     84          8           0        7.077276    2.272495   -1.109360
     85          7           0        5.070539    1.442568    0.818000
     86          1           0        5.348184    0.610166    0.322440
     87          6           0        5.422485    1.590885    2.213507
     88          1           0        4.990241    2.553131    2.505408
     89          6           0        6.947943    1.592332    2.374958
     90          6           0        4.828823    0.484812    3.104256
     91          1           0        5.334473   -0.460762    2.895125
     92          1           0        3.769125    0.371234    2.871023
     93          8           0        7.519082    0.538566    2.695818
     94          6           0        4.957134    0.859755    4.553659
     95          6           0        4.012973    1.149358    5.497085
     96          1           0        2.938368    1.050356    5.471268
     97          7           0        6.180167    1.161732    5.124548
     98          1           0        7.096712    1.082657    4.664378
     99          6           0        5.996967    1.684498    6.330544
    100          1           0        6.794236    2.115929    6.910417
    101          7           0        4.683292    1.641345    6.609330
    102          7           0        7.638715    2.723493    2.184774
    103          1           0        7.158310    3.585257    1.967243
    104          6           0        9.050917    2.699510    2.527448
    105          1           0        9.440631    1.735872    2.182080
    106          6           0        9.231845    2.663637    4.065288
    107          6           0        9.813856    3.854781    1.866387
    108          1           0        9.502746    4.781420    2.363834
    109          1           0       10.883121    3.728116    2.057758
    110          8           0        8.285135    2.619783    4.868115
    111          6           0        9.584243    4.006347    0.355875
    112          1           0        8.509164    4.129086    0.189434
    113          6           0       10.294104    5.262205   -0.152919
    114          1           0       11.373320    5.190781    0.023700
    115          1           0       10.121861    5.371335   -1.225342
    116          1           0        9.931114    6.165836    0.348698
    117          6           0       10.062215    2.783935   -0.431103
    118          1           0       11.161937    2.750957   -0.405206
    119          1           0        9.694515    2.850819   -1.453616
    120          1           0        9.692925    1.847787   -0.000160
    121          7           0       10.516443    2.613574    4.458419
    122          1           0       11.269845    2.995616    3.878204
    123          6           0       10.928313    2.727366    5.836938
    124          1           0       10.122268    3.152712    6.448407
    125          6           0       12.182524    3.674504    5.849123
    126          6           0       11.370602    1.389232    6.431332
    127          1           0       11.889914    1.615943    7.367259
    128          1           0       12.097482    0.926672    5.752818
    129          8           0       12.580339    4.017977    6.971091
    130          6           0       10.215039    0.421095    6.670459
    131          1           0        9.513714    0.857545    7.394883
    132          1           0        9.644924    0.280578    5.746702
    133          6           0       10.695278   -0.931327    7.175104
    134          1           0        9.866601   -1.647004    7.253661
    135          1           0       11.425708   -1.336718    6.469177
    136          7           0       11.355911   -0.757260    8.487413
    137          1           0       10.918298   -0.064829    9.082240
    138          7           0       12.280919   -2.897277    8.515329
    139          1           0       12.511357   -3.701355    9.081516
    140          1           0       11.792601   -3.109367    7.656983
    141          7           0       12.347718   -1.559826   10.431569
    142          1           0       13.098942   -2.147240   10.770461
    143          1           0       12.432729   -0.598310   10.740910
    144          6           0       11.978828   -1.741300    9.137647
    145          8           0       12.640023    3.932474    4.707933
    146          1           0        4.243805    1.978873    7.459345
 ---------------------------------------------------------------------

 SCF Done:  E(RB3LYP) =  -3503.40956080     A.U. after    3 cycles

 Alpha  occ. eigenvalues --  -19.28686 -19.27734 -19.20508 -19.19920 -19.17739
 Alpha  occ. eigenvalues --  -19.15651 -19.14751 -19.14614 -19.13985 -19.13324
 Alpha  occ. eigenvalues --  -19.04430 -19.03804 -19.03697 -19.03426 -14.64418
 Alpha  occ. eigenvalues --  -14.52227 -14.52107 -14.51889 -14.51627 -14.51413
 Alpha  occ. eigenvalues --  -14.49173 -14.44462 -14.41078 -14.39541 -14.38490
 Alpha  occ. eigenvalues --  -14.38250 -14.38223 -14.35173 -10.47957 -10.44944
 Alpha  occ. eigenvalues --  -10.42753 -10.39191 -10.37806 -10.37756 -10.35071
 Alpha  occ. eigenvalues --  -10.34652 -10.33690 -10.32998 -10.32870 -10.32579
 Alpha  occ. eigenvalues --  -10.31508 -10.31408 -10.30594 -10.30375 -10.30128
 Alpha  occ. eigenvalues --  -10.29935 -10.28447 -10.27355 -10.27270 -10.26449
 Alpha  occ. eigenvalues --  -10.26171 -10.26051 -10.24969 -10.24012 -10.23676
 Alpha  occ. eigenvalues --  -10.22915 -10.22903 -10.22568 -10.21848 -10.21557
 Alpha  occ. eigenvalues --  -10.21556 -10.21180 -10.20931 -10.20905 -10.20851
 Alpha  occ. eigenvalues --  -10.19765 -10.18041 -10.15845 -10.15513 -10.14270
 Alpha  occ. eigenvalues --  -10.13130  -1.20953  -1.18365  -1.16599  -1.15884
 Alpha  occ. eigenvalues --   -1.15537  -1.12684  -1.09927  -1.07862  -1.07684
 Alpha  occ. eigenvalues --   -1.07479  -1.07225  -1.06586  -1.05654  -1.05128
 Alpha  occ. eigenvalues --   -1.05070  -1.04674  -1.02192  -1.00857  -0.98210
 Alpha  occ. eigenvalues --   -0.97728  -0.97078  -0.96319  -0.95169  -0.94586
 Alpha  occ. eigenvalues --   -0.94551  -0.94499  -0.92604  -0.89167  -0.88995
 Alpha  occ. eigenvalues --   -0.88932  -0.88615  -0.88097  -0.85663  -0.84573
 Alpha  occ. eigenvalues --   -0.83970  -0.82370  -0.81785  -0.80629  -0.79540
 Alpha  occ. eigenvalues --   -0.79537  -0.78374  -0.77695  -0.77480  -0.77003
 Alpha  occ. eigenvalues --   -0.76863  -0.76476  -0.75725  -0.75058  -0.74994
 Alpha  occ. eigenvalues --   -0.74364  -0.73793  -0.72707  -0.72339  -0.72134
 Alpha  occ. eigenvalues --   -0.71487  -0.70664  -0.70623  -0.68901  -0.67818
 Alpha  occ. eigenvalues --   -0.67314  -0.66868  -0.65884  -0.65429  -0.65135
 Alpha  occ. eigenvalues --   -0.65002  -0.64754  -0.64621  -0.64269  -0.63833
 Alpha  occ. eigenvalues --   -0.63513  -0.63166  -0.62786  -0.62165  -0.61726
 Alpha  occ. eigenvalues --   -0.61646  -0.61384  -0.61163  -0.61063  -0.59987
 Alpha  occ. eigenvalues --   -0.59941  -0.59605  -0.58896  -0.58331  -0.58266
 Alpha  occ. eigenvalues --   -0.58124  -0.57961  -0.57681  -0.57251  -0.56589
 Alpha  occ. eigenvalues --   -0.56017  -0.55704  -0.55501  -0.55127  -0.54683
 Alpha  occ. eigenvalues --   -0.54098  -0.53784  -0.53670  -0.53421  -0.52636
 Alpha  occ. eigenvalues --   -0.52374  -0.52063  -0.51890  -0.51543  -0.50886
 Alpha  occ. eigenvalues --   -0.50424  -0.50346  -0.50157  -0.49787  -0.49623
 Alpha  occ. eigenvalues --   -0.49099  -0.48891  -0.48731  -0.48562  -0.48254
 Alpha  occ. eigenvalues --   -0.48085  -0.47820  -0.47663  -0.47179  -0.47043
 Alpha  occ. eigenvalues --   -0.46850  -0.46517  -0.46090  -0.45685  -0.45654
 Alpha  occ. eigenvalues --   -0.45511  -0.45155  -0.44971  -0.44530  -0.44178
 Alpha  occ. eigenvalues --   -0.43872  -0.43717  -0.43574  -0.43512  -0.43383
 Alpha  occ. eigenvalues --   -0.43240  -0.43004  -0.42716  -0.42572  -0.42490
 Alpha  occ. eigenvalues --   -0.42349  -0.42268  -0.41971  -0.41861  -0.41838
 Alpha  occ. eigenvalues --   -0.41517  -0.41421  -0.41312  -0.41108  -0.40900
 Alpha  occ. eigenvalues --   -0.40476  -0.40423  -0.40154  -0.39912  -0.39625
 Alpha  occ. eigenvalues --   -0.39402  -0.39217  -0.38580  -0.38366  -0.37941
 Alpha  occ. eigenvalues --   -0.37536  -0.37295  -0.37148  -0.36755  -0.36698
 Alpha  occ. eigenvalues --   -0.36347  -0.36111  -0.35907  -0.35503  -0.35472
 Alpha  occ. eigenvalues --   -0.35280  -0.34995  -0.34388  -0.34302  -0.34295
 Alpha  occ. eigenvalues --   -0.33873  -0.33273  -0.33240  -0.32421  -0.31482
 Alpha  occ. eigenvalues --   -0.31331  -0.30726  -0.30709  -0.30359  -0.30196
 Alpha  occ. eigenvalues --   -0.29629  -0.29535  -0.29397  -0.29045  -0.28966
 Alpha  occ. eigenvalues --   -0.27913  -0.27268  -0.27158  -0.26275  -0.26059
 Alpha  occ. eigenvalues --   -0.19854  -0.19492  -0.19382  -0.18262  -0.18129
 Alpha  occ. eigenvalues --   -0.17333
 Alpha virt. eigenvalues --   -0.16708  -0.13123  -0.12722  -0.10339  -0.08876
 Alpha virt. eigenvalues --   -0.07928  -0.07831  -0.06998  -0.05883  -0.05718
 Alpha virt. eigenvalues --   -0.03947  -0.03743  -0.03026  -0.02611  -0.02595

 Mulliken charges:
               1
     1  N   -0.704343
     2  H    0.417163
     3  H    0.427679
     4  H    0.418144
     5  C   -0.171267
     6  H    0.215969
     7  C    0.628986
     8  C   -0.046927
     9  H    0.181319
    10  H    0.211082
    11  O   -0.519237
    12  O   -0.617604
    13  H    0.443959
    14  N   -0.590113
    15  H    0.347794
    16  C   -0.074922
    17  H    0.195442
    18  C    0.629244
    19  C   -0.466710
    20  H    0.209008
    21  H    0.182719
    22  H    0.148372
    23  O   -0.521637
    24  N   -0.608110
    25  H    0.377613
    26  C   -0.074352
    27  H    0.180894
    28  C    0.635995
    29  C    0.112941
    30  H    0.154387
    31  O   -0.548617
    32  C   -0.460028
    33  H    0.148853
    34  H    0.121056
    35  H    0.175250
    36  O   -0.651452
    37  H    0.422089
    38  N   -0.618345
    39  H    0.378770
    40  C   -0.058070
    41  H    0.172967
    42  C    0.610080
    43  C   -0.068866
    44  H    0.133677
    45  O   -0.536998
    46  C   -0.469420
    47  H    0.157262
    48  H    0.170103
    49  H    0.154332
    50  C   -0.444598
    51  H    0.156245
    52  H    0.134905
    53  H    0.144672
    54  N   -0.593193
    55  H    0.347778
    56  C   -0.081001
    57  H    0.179579
    58  C    0.616960
    59  C   -0.060594
    60  H    0.122079
    61  O   -0.550553
    62  C   -0.252113
    63  H    0.122612
    64  H    0.138881
    65  C   -0.492822
    66  H    0.152272
    67  H    0.178112
    68  H    0.138192
    69  C   -0.469286
    70  H    0.136654
    71  H    0.141854
    72  H    0.183587
    73  N   -0.594886
    74  H    0.337150
    75  C   -0.034557
    76  H    0.175576
    77  C    0.664575
    78  C   -0.380377
    79  H    0.144158
    80  H    0.151919
    81  O   -0.579833
    82  C    0.629890
    83  O   -0.590606
    84  O   -0.631798
    85  N   -0.582039
    86  H    0.353053
    87  C   -0.057860
    88  H    0.183202
    89  C    0.646819
    90  C   -0.349350
    91  H    0.198403
    92  H    0.170958
    93  O   -0.588872
    94  C    0.314795
    95  C   -0.016049
    96  H    0.206548
    97  N   -0.560016
    98  H    0.432521
    99  C    0.313827
   100  H    0.250735
   101  N   -0.561987
   102  N   -0.561994
   103  H    0.357218
   104  C   -0.056382
   105  H    0.200153
   106  C    0.617069
   107  C   -0.306859
   108  H    0.133017
   109  H    0.165905
   110  O   -0.634857
   111  C   -0.063508
   112  H    0.156062
   113  C   -0.447474
   114  H    0.128055
   115  H    0.175067
   116  H    0.121329
   117  C   -0.437878
   118  H    0.099724
   119  H    0.194420
   120  H    0.130583
   121  N   -0.593686
   122  H    0.377843
   123  C   -0.070006
   124  H    0.127844
   125  C    0.576954
   126  C   -0.253151
   127  H    0.150079
   128  H    0.143735
   129  O   -0.602947
   130  C   -0.313845
   131  H    0.123575
   132  H    0.188662
   133  C   -0.176135
   134  H    0.167684
   135  H    0.194470
   136  N   -0.556437
   137  H    0.370722
   138  N   -0.728509
   139  H    0.381690
   140  H    0.392641
   141  N   -0.736072
   142  H    0.378883
   143  H    0.388452
   144  C    0.765979
   145  O   -0.602245
   146  H    0.381922
 Sum of Mulliken charges =   1.00000

 Dipole moment (field-independent basis, Debye):
    X=            -32.0402    Y=            -23.2616    Z=             -2.3883  Tot=             39.6659
 Quadrupole moment (field-independent basis, Debye-Ang):
   XX=           -100.0470   YY=           -488.1966   ZZ=            331.9461
   XY=           -292.9686   XZ=            670.6514   YZ=            -98.8727

 Normal termination of Gaussian 16 at Sun Jun 12 09:17:52 2022.
