 Gaussian 16, Revision C.01,
 Gaussian 16:  ES64L-G16RevC.01  3-Jul-2019

 ----------------------------------------------------------------------
 # B3LYP/6-31G* empiricaldispersion=gd3 guess=read geom=check nosymm in
 tegral(ultrafinegrid)
 ----------------------------------------------------------------------

 ------------------------------------------------------
 Candidate Structure: Conf:304 Charge calc in gas phase
 ------------------------------------------------------
 Structure from the checkpoint file:  "conf-304.chk"
 Charge =  1 Multiplicity = 1

                          Input orientation:
 ---------------------------------------------------------------------
 Center     Atomic      Atomic             Coordinates (Angstroms)
 Number     Number       Type             X           Y           Z
 ---------------------------------------------------------------------
      1          7           0       -8.991041   -2.187134   -9.237713
      2          1           0       -8.006476   -2.287226   -9.516721
      3          1           0       -9.522478   -3.047761   -9.479253
      4          1           0       -9.409728   -1.402170   -9.762440
      5          6           0       -9.152452   -2.041488   -7.718456
      6          1           0       -8.834878   -1.033286   -7.433263
      7          6           0       -8.260941   -3.110222   -7.052845
      8          6           0      -10.645723   -2.294048   -7.456369
      9          1           0      -11.250709   -1.513622   -7.932765
     10          1           0      -10.835210   -2.263939   -6.377207
     11          8           0       -8.755492   -4.165043   -6.648765
     12          8           0      -11.004999   -3.523309   -8.062320
     13          1           0      -10.532883   -4.215153   -7.548458
     14          7           0       -6.930590   -2.817855   -7.074907
     15          1           0       -6.668190   -1.831917   -7.059094
     16          6           0       -5.950623   -3.635464   -6.346510
     17          1           0       -6.389798   -4.624592   -6.193087
     18          6           0       -5.676810   -2.924561   -5.007626
     19          6           0       -4.636823   -3.742922   -7.135178
     20          1           0       -3.903478   -4.323685   -6.567734
     21          1           0       -4.208025   -2.750303   -7.306632
     22          1           0       -4.806565   -4.230587   -8.100653
     23          8           0       -5.708735   -1.693217   -4.963467
     24          7           0       -5.363764   -3.724021   -3.968792
     25          1           0       -5.139833   -4.702142   -4.138843
     26          6           0       -4.698459   -3.190985   -2.784337
     27          1           0       -5.273380   -2.333214   -2.422058
     28          6           0       -3.261274   -2.786415   -3.160912
     29          6           0       -4.634234   -4.323558   -1.725966
     30          1           0       -3.937269   -3.996789   -0.937120
     31          8           0       -2.503015   -3.640477   -3.642735
     32          6           0       -5.989465   -4.643141   -1.109737
     33          1           0       -6.378679   -3.780074   -0.558970
     34          1           0       -6.709696   -4.916984   -1.888304
     35          1           0       -5.888239   -5.486659   -0.420805
     36          8           0       -4.151192   -5.507528   -2.357638
     37          1           0       -3.273148   -5.282739   -2.729508
     38          7           0       -2.917624   -1.507107   -2.936324
     39          1           0       -3.585573   -0.850230   -2.547198
     40          6           0       -1.613233   -0.940654   -3.266768
     41          1           0       -0.907615   -1.773304   -3.353739
     42          6           0       -1.257599    0.002775   -2.109228
     43          6           0       -1.638172   -0.151280   -4.604060
     44          1           0       -2.316243    0.700770   -4.451616
     45          8           0       -2.088708    0.821680   -1.715222
     46          6           0       -0.235575    0.383939   -4.935250
     47          1           0        0.473691   -0.441528   -5.083733
     48          1           0        0.161546    1.029009   -4.145434
     49          1           0       -0.260474    0.967623   -5.861622
     50          6           0       -2.189248   -1.018567   -5.747056
     51          1           0       -1.640014   -1.964040   -5.828161
     52          1           0       -3.248546   -1.246975   -5.588110
     53          1           0       -2.094597   -0.485657   -6.701274
     54          7           0       -0.001955   -0.095724   -1.616917
     55          1           0        0.593106   -0.871672   -1.881792
     56          6           0        0.470207    0.730400   -0.504811
     57          1           0        0.068200    1.733436   -0.669348
     58          6           0        2.000715    0.739879   -0.593977
     59          6           0       -0.043543    0.218447    0.874460
     60          1           0       -1.125496    0.409528    0.853631
     61          8           0        2.619105   -0.336316   -0.503345
     62          6           0        0.556310    1.018762    2.049362
     63          1           0        1.652264    0.950931    2.039727
     64          1           0        0.224549    0.533994    2.978978
     65          6           0        0.152903   -1.298536    1.047616
     66          1           0        1.199082   -1.573694    0.866647
     67          1           0       -0.454450   -1.869593    0.336630
     68          1           0       -0.146166   -1.606674    2.057260
     69          6           0        0.155725    2.497634    2.084568
     70          1           0        0.455762    2.955010    3.031929
     71          1           0        0.652518    3.068729    1.296186
     72          1           0       -0.930738    2.614658    1.977514
     73          7           0        2.584682    1.935787   -0.806362
     74          1           0        2.007112    2.751921   -0.637007
     75          6           0        4.015259    2.127467   -0.551656
     76          1           0        4.524895    1.203438   -0.823226
     77          6           0        4.180583    2.353065    0.957413
     78          6           0        4.654359    3.256569   -1.367164
     79          1           0        4.490453    3.039961   -2.431134
     80          1           0        4.209064    4.231378   -1.137761
     81          8           0        3.292676    2.856766    1.654982
     82          6           0        6.207138    3.319254   -1.083627
     83          8           0        6.725909    4.440402   -1.161778
     84          8           0        6.732976    2.187214   -0.789511
     85          7           0        5.353368    1.882474    1.442626
     86          1           0        6.108088    1.770937    0.711757
     87          6           0        5.640406    1.943709    2.859033
     88          1           0        4.675140    2.133930    3.341331
     89          6           0        6.622749    3.088355    3.180677
     90          6           0        6.196582    0.586027    3.324022
     91          1           0        6.540534    0.668895    4.361201
     92          1           0        7.075230    0.323693    2.723839
     93          8           0        7.774324    2.844034    3.546259
     94          6           0        5.137261   -0.462967    3.191427
     95          6           0        4.258969   -0.762646    2.174414
     96          1           0        4.116458   -0.345110    1.191203
     97          7           0        4.804831   -1.339837    4.221090
     98          1           0        5.273001   -1.368310    5.116236
     99          6           0        3.775716   -2.125871    3.879292
    100          1           0        3.319793   -2.893745    4.484612
    101          7           0        3.443087   -1.778880    2.637633
    102          7           0        6.111069    4.308583    2.939131
    103          1           0        5.156589    4.359788    2.598488
    104          6           0        6.968858    5.481215    2.668710
    105          1           0        7.941059    5.078535    2.373416
    106          6           0        7.182658    6.329022    3.939979
    107          6           0        6.374401    6.276821    1.508092
    108          1           0        6.148509    5.557418    0.709919
    109          1           0        5.429922    6.731378    1.840054
    110          8           0        6.726289    7.461378    4.055693
    111          6           0        7.293153    7.374487    0.914639
    112          1           0        7.193138    8.268481    1.542625
    113          6           0        8.777535    6.967455    0.875935
    114          1           0        8.897847    6.006959    0.355473
    115          1           0        9.355915    7.719464    0.323541
    116          1           0        9.222657    6.890872    1.876042
    117          6           0        6.795959    7.692458   -0.506487
    118          1           0        6.911802    6.807838   -1.146199
    119          1           0        7.366750    8.520546   -0.947446
    120          1           0        5.733822    7.976545   -0.509068
    121          7           0        7.921768    5.703761    4.909843
    122          1           0        8.404331    4.868451    4.588624
    123          6           0        8.673257    6.527634    5.846802
    124          1           0        7.993685    7.231281    6.332649
    125          6           0        9.836035    7.352927    5.123567
    126          6           0        9.377129    5.641013    6.884328
    127          1           0       10.113543    5.019152    6.353376
    128          1           0        8.668415    4.957681    7.383132
    129          8           0       10.143277    8.417042    5.723289
    130          6           0       10.084596    6.532787    7.909757
    131          1           0       10.784396    7.180273    7.366083
    132          1           0        9.354313    7.199157    8.387056
    133          6           0       10.834028    5.757583    8.986512
    134          1           0       10.156820    5.139497    9.590281
    135          1           0       11.596459    5.106154    8.534708
    136          7           0       11.496050    6.744430    9.875413
    137          1           0       11.721419    7.618420    9.404606
    138          7           0       12.195776    5.207374   11.466407
    139          1           0       12.891258    4.950026   12.154517
    140          1           0       11.868073    4.448283   10.882577
    141          7           0       12.931780    7.411497   11.579243
    142          1           0       13.212889    7.253054   12.539241
    143          1           0       12.701059    8.378822   11.384831
    144          6           0       12.204761    6.453493   10.953949
    145          8           0       10.348250    6.774071    4.142894
    146          1           0        2.675030   -2.168638    2.105110
 ---------------------------------------------------------------------

 SCF Done:  E(RB3LYP) =  -3503.40476172     A.U. after    3 cycles

 Alpha  occ. eigenvalues --  -19.28384 -19.26346 -19.21642 -19.21468 -19.19598
 Alpha  occ. eigenvalues --  -19.17996 -19.17597 -19.14959 -19.13157 -19.08448
 Alpha  occ. eigenvalues --  -19.05660 -19.05391 -19.02981 -19.02709 -14.62232
 Alpha  occ. eigenvalues --  -14.53196 -14.53083 -14.50088 -14.49789 -14.49603
 Alpha  occ. eigenvalues --  -14.48984 -14.45353 -14.44134 -14.42864 -14.41034
 Alpha  occ. eigenvalues --  -14.37383 -14.36491 -14.31798 -10.45834 -10.43451
 Alpha  occ. eigenvalues --  -10.41242 -10.40051 -10.38522 -10.38360 -10.36741
 Alpha  occ. eigenvalues --  -10.35208 -10.34401 -10.34388 -10.34352 -10.32619
 Alpha  occ. eigenvalues --  -10.32065 -10.31521 -10.31194 -10.30824 -10.30038
 Alpha  occ. eigenvalues --  -10.29997 -10.29036 -10.28458 -10.27032 -10.26899
 Alpha  occ. eigenvalues --  -10.25814 -10.25130 -10.25061 -10.24933 -10.24746
 Alpha  occ. eigenvalues --  -10.24362 -10.24228 -10.23463 -10.23165 -10.23096
 Alpha  occ. eigenvalues --  -10.21825 -10.21203 -10.21015 -10.20510 -10.19809
 Alpha  occ. eigenvalues --  -10.18592 -10.18085 -10.14496 -10.14227 -10.12476
 Alpha  occ. eigenvalues --  -10.11647  -1.18999  -1.17427  -1.16272  -1.14615
 Alpha  occ. eigenvalues --   -1.14503  -1.13615  -1.11619  -1.10070  -1.08941
 Alpha  occ. eigenvalues --   -1.08806  -1.06560  -1.05655  -1.04589  -1.04270
 Alpha  occ. eigenvalues --   -1.03312  -1.02976  -1.01757  -1.00315  -0.99977
 Alpha  occ. eigenvalues --   -0.99007  -0.98664  -0.97174  -0.95854  -0.95547
 Alpha  occ. eigenvalues --   -0.92753  -0.92568  -0.90416  -0.89765  -0.88612
 Alpha  occ. eigenvalues --   -0.88416  -0.87425  -0.87355  -0.86230  -0.85061
 Alpha  occ. eigenvalues --   -0.84837  -0.82949  -0.80587  -0.80447  -0.79804
 Alpha  occ. eigenvalues --   -0.79444  -0.78387  -0.78046  -0.77508  -0.77210
 Alpha  occ. eigenvalues --   -0.75687  -0.75110  -0.75102  -0.75009  -0.74389
 Alpha  occ. eigenvalues --   -0.74121  -0.73931  -0.72323  -0.71864  -0.71719
 Alpha  occ. eigenvalues --   -0.70288  -0.69237  -0.68711  -0.68604  -0.67997
 Alpha  occ. eigenvalues --   -0.67364  -0.67154  -0.66549  -0.66272  -0.66009
 Alpha  occ. eigenvalues --   -0.65566  -0.64549  -0.63991  -0.63779  -0.63661
 Alpha  occ. eigenvalues --   -0.63154  -0.62857  -0.62714  -0.62173  -0.61817
 Alpha  occ. eigenvalues --   -0.61585  -0.61302  -0.60689  -0.60144  -0.59969
 Alpha  occ. eigenvalues --   -0.59275  -0.59023  -0.58799  -0.58423  -0.58064
 Alpha  occ. eigenvalues --   -0.58044  -0.57468  -0.57024  -0.56299  -0.56224
 Alpha  occ. eigenvalues --   -0.55743  -0.55187  -0.55087  -0.55012  -0.54520
 Alpha  occ. eigenvalues --   -0.54110  -0.53837  -0.53267  -0.52974  -0.52550
 Alpha  occ. eigenvalues --   -0.52442  -0.52358  -0.52044  -0.51928  -0.51355
 Alpha  occ. eigenvalues --   -0.51163  -0.50787  -0.50207  -0.50026  -0.49764
 Alpha  occ. eigenvalues --   -0.49551  -0.49026  -0.48842  -0.48672  -0.48305
 Alpha  occ. eigenvalues --   -0.47940  -0.47834  -0.47599  -0.47244  -0.46998
 Alpha  occ. eigenvalues --   -0.46885  -0.46801  -0.46291  -0.46217  -0.46004
 Alpha  occ. eigenvalues --   -0.45683  -0.45642  -0.45555  -0.45408  -0.45147
 Alpha  occ. eigenvalues --   -0.45072  -0.44902  -0.44436  -0.44186  -0.44038
 Alpha  occ. eigenvalues --   -0.43803  -0.43715  -0.43664  -0.43130  -0.42639
 Alpha  occ. eigenvalues --   -0.42104  -0.41917  -0.41732  -0.41484  -0.41400
 Alpha  occ. eigenvalues --   -0.40983  -0.40962  -0.40836  -0.40476  -0.40424
 Alpha  occ. eigenvalues --   -0.40092  -0.39737  -0.39420  -0.39324  -0.39297
 Alpha  occ. eigenvalues --   -0.38991  -0.38700  -0.38294  -0.38195  -0.38125
 Alpha  occ. eigenvalues --   -0.37839  -0.37730  -0.37685  -0.37378  -0.37090
 Alpha  occ. eigenvalues --   -0.36580  -0.36336  -0.35841  -0.35456  -0.35128
 Alpha  occ. eigenvalues --   -0.34920  -0.34876  -0.34810  -0.33844  -0.33597
 Alpha  occ. eigenvalues --   -0.33547  -0.32866  -0.32607  -0.32425  -0.32294
 Alpha  occ. eigenvalues --   -0.32157  -0.32036  -0.31580  -0.31281  -0.30466
 Alpha  occ. eigenvalues --   -0.30361  -0.29817  -0.28749  -0.28261  -0.27826
 Alpha  occ. eigenvalues --   -0.27377  -0.26706  -0.25676  -0.23678  -0.21450
 Alpha  occ. eigenvalues --   -0.21122  -0.20315  -0.19358  -0.18491  -0.16994
 Alpha  occ. eigenvalues --   -0.15895
 Alpha virt. eigenvalues --   -0.15463  -0.12205  -0.11231  -0.10403  -0.08071
 Alpha virt. eigenvalues --   -0.06867  -0.06637  -0.06229  -0.06065  -0.05212
 Alpha virt. eigenvalues --   -0.05029  -0.04129  -0.03806  -0.03171  -0.01755

 Mulliken charges:
               1
     1  N   -0.719881
     2  H    0.415747
     3  H    0.423558
     4  H    0.407857
     5  C   -0.159861
     6  H    0.219191
     7  C    0.609879
     8  C   -0.046912
     9  H    0.181229
    10  H    0.207723
    11  O   -0.499721
    12  O   -0.622374
    13  H    0.441935
    14  N   -0.591294
    15  H    0.349754
    16  C   -0.097400
    17  H    0.197971
    18  C    0.645279
    19  C   -0.459834
    20  H    0.195501
    21  H    0.178169
    22  H    0.164898
    23  O   -0.542841
    24  N   -0.580978
    25  H    0.354552
    26  C   -0.082804
    27  H    0.169121
    28  C    0.640418
    29  C    0.112788
    30  H    0.139656
    31  O   -0.569114
    32  C   -0.449428
    33  H    0.150815
    34  H    0.159269
    35  H    0.177399
    36  O   -0.641923
    37  H    0.419612
    38  N   -0.598413
    39  H    0.356836
    40  C   -0.047154
    41  H    0.167429
    42  C    0.622723
    43  C   -0.071799
    44  H    0.150431
    45  O   -0.545613
    46  C   -0.463319
    47  H    0.147231
    48  H    0.167981
    49  H    0.158305
    50  C   -0.478864
    51  H    0.159123
    52  H    0.158555
    53  H    0.142233
    54  N   -0.617361
    55  H    0.347818
    56  C   -0.027991
    57  H    0.176706
    58  C    0.608567
    59  C   -0.075454
    60  H    0.156499
    61  O   -0.578354
    62  C   -0.281271
    63  H    0.153899
    64  H    0.119196
    65  C   -0.488939
    66  H    0.151455
    67  H    0.146438
    68  H    0.135225
    69  C   -0.437902
    70  H    0.159721
    71  H    0.155803
    72  H    0.139337
    73  N   -0.571650
    74  H    0.348645
    75  C   -0.073528
    76  H    0.195154
    77  C    0.588383
    78  C   -0.375751
    79  H    0.152314
    80  H    0.146616
    81  O   -0.568299
    82  C    0.587675
    83  O   -0.526528
    84  O   -0.632121
    85  N   -0.617116
    86  H    0.404886
    87  C   -0.083545
    88  H    0.177233
    89  C    0.652007
    90  C   -0.355322
    91  H    0.170186
    92  H    0.225243
    93  O   -0.546859
    94  C    0.325941
    95  C    0.016948
    96  H    0.277082
    97  N   -0.601039
    98  H    0.381283
    99  C    0.300688
   100  H    0.239734
   101  N   -0.552765
   102  N   -0.605908
   103  H    0.347530
   104  C   -0.083251
   105  H    0.203305
   106  C    0.643461
   107  C   -0.310166
   108  H    0.173792
   109  H    0.121469
   110  O   -0.526705
   111  C   -0.054438
   112  H    0.143030
   113  C   -0.495582
   114  H    0.154197
   115  H    0.121876
   116  H    0.195145
   117  C   -0.466763
   118  H    0.193710
   119  H    0.116527
   120  H    0.106475
   121  N   -0.612785
   122  H    0.340536
   123  C   -0.013253
   124  H    0.145987
   125  C    0.571154
   126  C   -0.297555
   127  H    0.149712
   128  H    0.112269
   129  O   -0.600997
   130  C   -0.316621
   131  H    0.210173
   132  H    0.157399
   133  C   -0.158885
   134  H    0.165806
   135  H    0.180403
   136  N   -0.585622
   137  H    0.382296
   138  N   -0.744743
   139  H    0.375849
   140  H    0.391132
   141  N   -0.743001
   142  H    0.372769
   143  H    0.383575
   144  C    0.790231
   145  O   -0.580966
   146  H    0.394900
 Sum of Mulliken charges =   1.00000

 Dipole moment (field-independent basis, Debye):
    X=            -22.7396    Y=            -23.6321    Z=              6.1907  Tot=             33.3750
 Quadrupole moment (field-independent basis, Debye-Ang):
   XX=             30.6334   YY=           -492.8717   ZZ=            331.3655
   XY=             15.7993   XZ=            715.3670   YZ=            181.7836

 Normal termination of Gaussian 16 at Sun Jun 12 09:17:30 2022.
