 Gaussian 16, Revision C.01,
 Gaussian 16:  ES64L-G16RevC.01  3-Jul-2019

 ----------------------------------------------------------------------
 # B3LYP/6-31G* empiricaldispersion=gd3 guess=read geom=check nosymm in
 tegral(ultrafinegrid)
 ----------------------------------------------------------------------

 ------------------------------------------------------
 Candidate Structure: Conf:883 Charge calc in gas phase
 ------------------------------------------------------
 Structure from the checkpoint file:  "conf-883.chk"
 Charge =  1 Multiplicity = 1

                          Input orientation:
 ---------------------------------------------------------------------
 Center     Atomic      Atomic             Coordinates (Angstroms)
 Number     Number       Type             X           Y           Z
 ---------------------------------------------------------------------
      1          7           0       -6.653320   -5.853591   -7.001723
      2          1           0       -6.808359   -6.288371   -7.916727
      3          1           0       -5.612718   -5.848423   -6.804791
      4          1           0       -7.159694   -6.397207   -6.295021
      5          6           0       -6.987864   -4.379788   -6.978602
      6          1           0       -7.692366   -4.154750   -7.781260
      7          6           0       -5.619936   -3.697998   -7.169120
      8          6           0       -7.593420   -3.992255   -5.602372
      9          1           0       -6.934702   -4.365061   -4.804457
     10          1           0       -8.571397   -4.487324   -5.502845
     11          8           0       -4.607299   -4.375143   -6.919029
     12          8           0       -7.730334   -2.603169   -5.553688
     13          1           0       -7.156179   -2.294657   -4.809938
     14          7           0       -5.636550   -2.418382   -7.535277
     15          1           0       -6.535358   -1.946348   -7.486064
     16          6           0       -4.439953   -1.555721   -7.494546
     17          1           0       -3.581113   -2.218710   -7.640523
     18          6           0       -4.335397   -0.911801   -6.087818
     19          6           0       -4.500941   -0.499389   -8.590357
     20          1           0       -3.613880    0.134907   -8.535139
     21          1           0       -5.371552    0.150608   -8.458923
     22          1           0       -4.544478   -0.973529   -9.574519
     23          8           0       -4.273475    0.299764   -5.935322
     24          7           0       -4.385043   -1.803245   -5.052144
     25          1           0       -4.120930   -2.765747   -5.238019
     26          6           0       -4.266063   -1.342865   -3.668419
     27          1           0       -4.689708   -0.334814   -3.642122
     28          6           0       -2.772749   -1.308281   -3.288253
     29          6           0       -5.072364   -2.249452   -2.729459
     30          1           0       -4.682546   -3.269494   -2.803900
     31          8           0       -2.251766   -2.258880   -2.696210
     32          6           0       -5.019723   -1.786892   -1.279219
     33          1           0       -3.997909   -1.836038   -0.898707
     34          1           0       -5.371062   -0.750110   -1.187414
     35          1           0       -5.652023   -2.428692   -0.658160
     36          8           0       -6.447438   -2.320065   -3.188499
     37          1           0       -6.961419   -1.662615   -2.691883
     38          7           0       -2.117919   -0.212799   -3.715057
     39          1           0       -2.640504    0.514333   -4.189460
     40          6           0       -0.685953    0.010029   -3.467421
     41          1           0       -0.229382   -0.984923   -3.432966
     42          6           0       -0.552026    0.639144   -2.060033
     43          6           0       -0.029667    0.794119   -4.621543
     44          1           0       -0.200199    0.167787   -5.511832
     45          8           0       -0.356908    1.835076   -1.863635
     46          6           0       -0.656200    2.172746   -4.889722
     47          1           0       -0.542204    2.821982   -4.020375
     48          1           0       -1.722644    2.110968   -5.149967
     49          1           0       -0.153325    2.639989   -5.743512
     50          6           0        1.485913    0.903475   -4.393518
     51          1           0        1.737114    1.561526   -3.555834
     52          1           0        1.930894   -0.081463   -4.200882
     53          1           0        1.965364    1.311365   -5.290564
     54          7           0       -0.742014   -0.258363   -1.055801
     55          1           0       -0.857958   -1.235709   -1.291494
     56          6           0       -0.738392    0.142678    0.350009
     57          1           0       -1.033077    1.195497    0.350385
     58          6           0        0.704072    0.078406    0.891823
     59          6           0       -1.770130   -0.647544    1.181863
     60          1           0       -2.750610   -0.342672    0.780567
     61          8           0        1.127973   -0.822893    1.615042
     62          6           0       -1.727845   -0.243585    2.672816
     63          1           0       -0.844160   -0.700102    3.129613
     64          1           0       -2.605960   -0.691873    3.157587
     65          6           0       -1.645216   -2.174259    1.039010
     66          1           0       -0.649013   -2.499980    1.347929
     67          1           0       -1.824734   -2.518496    0.012460
     68          1           0       -2.386007   -2.670887    1.677314
     69          6           0       -1.708715    1.267414    2.939536
     70          1           0       -1.861083    1.469122    4.005509
     71          1           0       -0.747249    1.716171    2.665658
     72          1           0       -2.502945    1.787032    2.386961
     73          7           0        1.477109    1.118028    0.493907
     74          1           0        1.141006    1.773100   -0.209004
     75          6           0        2.854723    1.197668    0.918641
     76          1           0        3.391316    0.294331    0.597425
     77          6           0        2.974226    1.334752    2.440381
     78          6           0        3.519030    2.432962    0.280686
     79          1           0        2.909327    3.316332    0.491908
     80          1           0        4.510073    2.578051    0.724745
     81          8           0        2.191456    1.960860    3.135855
     82          6           0        3.642214    2.208665   -1.243680
     83          8           0        4.583088    1.393815   -1.583713
     84          8           0        2.815326    2.753772   -1.980944
     85          7           0        4.138936    0.771233    2.936497
     86          1           0        4.793127    0.440241    2.236714
     87          6           0        4.777571    1.348006    4.101147
     88          1           0        3.987793    1.818347    4.693008
     89          6           0        5.808720    2.387109    3.629442
     90          6           0        5.485273    0.250399    4.938185
     91          1           0        6.316384   -0.154884    4.346694
     92          1           0        4.761939   -0.558164    5.079222
     93          8           0        6.448338    2.213844    2.586062
     94          6           0        5.991759    0.705485    6.273934
     95          6           0        5.478936    0.417436    7.515349
     96          1           0        4.632550   -0.178112    7.821453
     97          7           0        7.108834    1.515035    6.424678
     98          1           0        8.087544    2.346737    5.224532
     99          6           0        7.265147    1.703149    7.721403
    100          1           0        8.050091    2.282521    8.186794
    101          7           0        6.297718    1.057789    8.423292
    102          7           0        6.005477    3.448827    4.435669
    103          1           0        5.482932    3.491782    5.299692
    104          6           0        7.053453    4.447994    4.220627
    105          1           0        6.798540    5.041953    3.340634
    106          6           0        8.407060    3.808347    3.923381
    107          6           0        7.134544    5.343537    5.474564
    108          1           0        6.130985    5.752282    5.664729
    109          1           0        7.386260    4.702261    6.331519
    110          8           0        8.788892    2.734028    4.621044
    111          6           0        8.138887    6.509060    5.396824
    112          1           0        9.130628    6.094489    5.175820
    113          6           0        7.786028    7.507994    4.285254
    114          1           0        6.794890    7.948297    4.455356
    115          1           0        8.515530    8.324456    4.257681
    116          1           0        7.778322    7.039515    3.295615
    117          6           0        8.212737    7.216499    6.757410
    118          1           0        7.242016    7.652562    7.027146
    119          1           0        8.947368    8.028490    6.733914
    120          1           0        8.504236    6.523327    7.555914
    121          7           0        9.150712    4.386771    3.061782
    122          1           0        9.858695    6.087569    2.756660
    123          6           0       10.494560    3.893538    2.791941
    124          1           0       10.907456    3.300365    3.617941
    125          6           0       11.431895    5.101913    2.599087
    126          6           0       10.513950    3.039914    1.506633
    127          1           0       11.561624    2.830606    1.259836
    128          1           0       10.094405    3.646204    0.692281
    129          8           0       12.619277    4.977204    2.411701
    130          6           0        9.713709    1.744431    1.654147
    131          1           0       10.167319    1.115020    2.430758
    132          1           0        8.702283    1.976661    1.996072
    133          6           0        9.639005    0.920827    0.364730
    134          1           0       10.645166    0.669088    0.011581
    135          1           0        9.111872   -0.021864    0.544867
    136          7           0        8.960033    1.589931   -0.752855
    137          1           0        9.517943    2.149415   -1.381691
    138          7           0        6.781084    1.033810   -0.096552
    139          1           0        5.790696    1.040694   -0.448861
    140          1           0        6.926424    1.249018    0.886313
    141          7           0        7.155565    1.912278   -2.192718
    142          1           0        6.124104    1.847212   -2.310375
    143          1           0        7.756015    1.924817   -3.003977
    144          6           0        7.636397    1.519239   -1.003268
    145          8           0       10.816698    6.297303    2.637780
    146          1           0        6.207308    1.032577    9.429265
 ---------------------------------------------------------------------

 SCF Done:  E(RB3LYP) =  -3503.56628228     A.U. after    3 cycles

 Alpha  occ. eigenvalues --  -19.28553 -19.27494 -19.27228 -19.22921 -19.21642
 Alpha  occ. eigenvalues --  -19.20152 -19.19697 -19.18682 -19.15843 -19.15157
 Alpha  occ. eigenvalues --  -19.14566 -19.14064 -19.10941 -19.09612 -14.62258
 Alpha  occ. eigenvalues --  -14.51215 -14.47356 -14.46900 -14.43571 -14.43465
 Alpha  occ. eigenvalues --  -14.42901 -14.40957 -14.40433 -14.39966 -14.39608
 Alpha  occ. eigenvalues --  -14.39464 -14.37758 -14.35822 -10.45032 -10.41828
 Alpha  occ. eigenvalues --  -10.39822 -10.39232 -10.38063 -10.36824 -10.35514
 Alpha  occ. eigenvalues --  -10.35167 -10.34645 -10.33020 -10.32954 -10.32926
 Alpha  occ. eigenvalues --  -10.32757 -10.32400 -10.31969 -10.30894 -10.29093
 Alpha  occ. eigenvalues --  -10.29078 -10.28985 -10.28411 -10.28380 -10.28376
 Alpha  occ. eigenvalues --  -10.28320 -10.28133 -10.26902 -10.26154 -10.25993
 Alpha  occ. eigenvalues --  -10.25967 -10.25789 -10.24724 -10.23672 -10.23634
 Alpha  occ. eigenvalues --  -10.23097 -10.22851 -10.22747 -10.21635 -10.21367
 Alpha  occ. eigenvalues --  -10.20803 -10.20763 -10.20665 -10.20527 -10.19868
 Alpha  occ. eigenvalues --  -10.18981  -1.20977  -1.16118  -1.15504  -1.14771
 Alpha  occ. eigenvalues --   -1.13712  -1.11485  -1.11403  -1.11019  -1.10049
 Alpha  occ. eigenvalues --   -1.09518  -1.07830  -1.07796  -1.07119  -1.06757
 Alpha  occ. eigenvalues --   -1.05600  -1.03218  -1.03077  -1.02947  -0.99868
 Alpha  occ. eigenvalues --   -0.99333  -0.96936  -0.96829  -0.96476  -0.95539
 Alpha  occ. eigenvalues --   -0.95031  -0.94621  -0.94533  -0.93527  -0.93294
 Alpha  occ. eigenvalues --   -0.89047  -0.87439  -0.86705  -0.85434  -0.84992
 Alpha  occ. eigenvalues --   -0.84054  -0.84009  -0.81784  -0.81206  -0.80706
 Alpha  occ. eigenvalues --   -0.80551  -0.79178  -0.78081  -0.77249  -0.75909
 Alpha  occ. eigenvalues --   -0.75859  -0.75326  -0.74118  -0.73713  -0.73387
 Alpha  occ. eigenvalues --   -0.72984  -0.72731  -0.72347  -0.71833  -0.70896
 Alpha  occ. eigenvalues --   -0.70157  -0.69867  -0.69487  -0.68608  -0.68039
 Alpha  occ. eigenvalues --   -0.67635  -0.66737  -0.66493  -0.66253  -0.65549
 Alpha  occ. eigenvalues --   -0.65161  -0.64474  -0.63782  -0.63757  -0.63639
 Alpha  occ. eigenvalues --   -0.63316  -0.62803  -0.62602  -0.62170  -0.61898
 Alpha  occ. eigenvalues --   -0.61238  -0.61105  -0.60948  -0.60555  -0.60523
 Alpha  occ. eigenvalues --   -0.59943  -0.59592  -0.59299  -0.58834  -0.58751
 Alpha  occ. eigenvalues --   -0.58083  -0.56966  -0.56908  -0.55854  -0.55729
 Alpha  occ. eigenvalues --   -0.55562  -0.55051  -0.54853  -0.54634  -0.54210
 Alpha  occ. eigenvalues --   -0.54201  -0.54008  -0.53771  -0.53222  -0.53050
 Alpha  occ. eigenvalues --   -0.52919  -0.52624  -0.52573  -0.51893  -0.51805
 Alpha  occ. eigenvalues --   -0.51522  -0.51432  -0.51301  -0.50685  -0.50315
 Alpha  occ. eigenvalues --   -0.50069  -0.49909  -0.49668  -0.49481  -0.48552
 Alpha  occ. eigenvalues --   -0.48519  -0.48431  -0.48371  -0.48152  -0.47989
 Alpha  occ. eigenvalues --   -0.47857  -0.47693  -0.47577  -0.47019  -0.46848
 Alpha  occ. eigenvalues --   -0.46657  -0.46621  -0.46440  -0.46104  -0.46027
 Alpha  occ. eigenvalues --   -0.45906  -0.45636  -0.45451  -0.45247  -0.44812
 Alpha  occ. eigenvalues --   -0.44603  -0.44455  -0.44158  -0.44060  -0.44012
 Alpha  occ. eigenvalues --   -0.43704  -0.43572  -0.43411  -0.43268  -0.43192
 Alpha  occ. eigenvalues --   -0.42798  -0.42628  -0.42607  -0.42448  -0.42374
 Alpha  occ. eigenvalues --   -0.41935  -0.41459  -0.41132  -0.40996  -0.40913
 Alpha  occ. eigenvalues --   -0.40704  -0.40358  -0.40322  -0.40104  -0.39879
 Alpha  occ. eigenvalues --   -0.39671  -0.39299  -0.39070  -0.38628  -0.38504
 Alpha  occ. eigenvalues --   -0.38207  -0.37890  -0.37800  -0.37542  -0.37439
 Alpha  occ. eigenvalues --   -0.37295  -0.37189  -0.37003  -0.36786  -0.36425
 Alpha  occ. eigenvalues --   -0.36175  -0.36046  -0.35953  -0.35791  -0.35646
 Alpha  occ. eigenvalues --   -0.35459  -0.33907  -0.33080  -0.32779  -0.32754
 Alpha  occ. eigenvalues --   -0.32735  -0.32230  -0.31853  -0.31547  -0.30848
 Alpha  occ. eigenvalues --   -0.30788  -0.30307  -0.29758  -0.29068  -0.28638
 Alpha  occ. eigenvalues --   -0.27601  -0.27526  -0.26653  -0.26140  -0.25603
 Alpha  occ. eigenvalues --   -0.23355
 Alpha virt. eigenvalues --   -0.14655  -0.12790  -0.09514  -0.07614  -0.06387
 Alpha virt. eigenvalues --   -0.05382  -0.05169  -0.04727  -0.03933  -0.03314
 Alpha virt. eigenvalues --   -0.02859  -0.02632  -0.02409  -0.01991  -0.01940

 Mulliken charges:
               1
     1  N   -0.755641
     2  H    0.425048
     3  H    0.434125
     4  H    0.419572
     5  C   -0.130930
     6  H    0.226695
     7  C    0.642664
     8  C   -0.037342
     9  H    0.170792
    10  H    0.171870
    11  O   -0.552103
    12  O   -0.641540
    13  H    0.455258
    14  N   -0.554031
    15  H    0.370662
    16  C   -0.106613
    17  H    0.214166
    18  C    0.622667
    19  C   -0.448607
    20  H    0.202542
    21  H    0.173811
    22  H    0.167148
    23  O   -0.494643
    24  N   -0.622654
    25  H    0.352633
    26  C   -0.071973
    27  H    0.181203
    28  C    0.639536
    29  C    0.131292
    30  H    0.162676
    31  O   -0.553432
    32  C   -0.518300
    33  H    0.227386
    34  H    0.155345
    35  H    0.173794
    36  O   -0.661776
    37  H    0.420204
    38  N   -0.615621
    39  H    0.368567
    40  C   -0.067564
    41  H    0.173432
    42  C    0.634790
    43  C   -0.078434
    44  H    0.108423
    45  O   -0.516563
    46  C   -0.477332
    47  H    0.211623
    48  H    0.118617
    49  H    0.148715
    50  C   -0.488871
    51  H    0.248801
    52  H    0.127070
    53  H    0.136193
    54  N   -0.629851
    55  H    0.365556
    56  C   -0.070177
    57  H    0.184145
    58  C    0.645784
    59  C   -0.076963
    60  H    0.106659
    61  O   -0.545719
    62  C   -0.261676
    63  H    0.174471
    64  H    0.117950
    65  C   -0.496645
    66  H    0.193196
    67  H    0.140967
    68  H    0.134605
    69  C   -0.469074
    70  H    0.143504
    71  H    0.183028
    72  H    0.129508
    73  N   -0.625471
    74  H    0.385188
    75  C   -0.041221
    76  H    0.163952
    77  C    0.635208
    78  C   -0.390667
    79  H    0.168059
    80  H    0.145066
    81  O   -0.517116
    82  C    0.584051
    83  O   -0.641961
    84  O   -0.520426
    85  N   -0.586775
    86  H    0.329913
    87  C   -0.077925
    88  H    0.185308
    89  C    0.644181
    90  C   -0.350994
    91  H    0.170557
    92  H    0.183868
    93  O   -0.555833
    94  C    0.259494
    95  C   -0.020127
    96  H    0.183244
    97  N   -0.540246
    98  H    0.474173
    99  C    0.241998
   100  H    0.189008
   101  N   -0.551834
   102  N   -0.619674
   103  H    0.343348
   104  C    0.003533
   105  H    0.191551
   106  C    0.557269
   107  C   -0.309088
   108  H    0.147588
   109  H    0.134612
   110  O   -0.660523
   111  C   -0.078304
   112  H    0.145625
   113  C   -0.462027
   114  H    0.143066
   115  H    0.164159
   116  H    0.154729
   117  C   -0.444097
   118  H    0.142078
   119  H    0.159506
   120  H    0.136087
   121  N   -0.531707
   122  H    0.446462
   123  C   -0.079387
   124  H    0.174845
   125  C    0.594710
   126  C   -0.259840
   127  H    0.164336
   128  H    0.136120
   129  O   -0.471012
   130  C   -0.290773
   131  H    0.151179
   132  H    0.193495
   133  C   -0.161729
   134  H    0.164527
   135  H    0.176024
   136  N   -0.596825
   137  H    0.345420
   138  N   -0.822994
   139  H    0.408198
   140  H    0.393897
   141  N   -0.777604
   142  H    0.417600
   143  H    0.339394
   144  C    0.757581
   145  O   -0.594291
   146  H    0.357643
 Sum of Mulliken charges =   1.00000

 Dipole moment (field-independent basis, Debye):
    X=            -22.9003    Y=            -23.1570    Z=            -17.0798  Tot=             36.7749
 Quadrupole moment (field-independent basis, Debye-Ang):
   XX=           -195.2333   YY=           -329.4056   ZZ=            -74.6911
   XY=            118.2370   XZ=            250.8960   YZ=            167.8437

 Normal termination of Gaussian 16 at Sun Jun 12 09:18:20 2022.
