 Gaussian 16, Revision C.01,
 Gaussian 16:  ES64L-G16RevC.01  3-Jul-2019

 ----------------------------------------------------------------------
 # B3LYP/6-31G* empiricaldispersion=gd3 guess=read geom=check nosymm in
 tegral(ultrafinegrid)
 ----------------------------------------------------------------------

 ------------------------------------------------------
 Candidate Structure: Conf:746 Charge calc in gas phase
 ------------------------------------------------------
 Structure from the checkpoint file:  "conf-746.chk"
 Charge =  1 Multiplicity = 1

                          Input orientation:
 ---------------------------------------------------------------------
 Center     Atomic      Atomic             Coordinates (Angstroms)
 Number     Number       Type             X           Y           Z
 ---------------------------------------------------------------------
      1          7           0       -5.511369   -4.784820   -6.005083
      2          1           0       -5.865532   -5.725232   -6.193570
      3          1           0       -5.820922   -4.096704   -6.765236
      4          1           0       -4.486980   -4.817696   -5.980632
      5          6           0       -6.096744   -4.138889   -4.771602
      6          1           0       -6.865217   -4.796009   -4.357579
      7          6           0       -6.698430   -2.822362   -5.327228
      8          6           0       -5.008988   -3.873995   -3.707574
      9          1           0       -4.291064   -3.145200   -4.102867
     10          1           0       -4.481994   -4.819389   -3.498557
     11          8           0       -6.622951   -2.623066   -6.544850
     12          8           0       -5.659124   -3.386916   -2.559860
     13          1           0       -5.082626   -2.669328   -2.189372
     14          7           0       -7.223913   -2.000663   -4.406283
     15          1           0       -7.059721   -2.320283   -3.448733
     16          6           0       -7.128286   -0.540232   -4.581099
     17          1           0       -7.168410   -0.343013   -5.654379
     18          6           0       -5.678496   -0.216784   -4.125900
     19          6           0       -8.268092    0.170160   -3.858827
     20          1           0       -8.175635    1.255832   -3.966463
     21          1           0       -8.288411   -0.075509   -2.790605
     22          1           0       -9.226411   -0.131477   -4.289486
     23          8           0       -4.730722   -0.708747   -4.739266
     24          7           0       -5.531396    0.494459   -2.989560
     25          1           0       -6.305775    0.977125   -2.548526
     26          6           0       -4.231419    0.782485   -2.414697
     27          1           0       -3.715796    1.539951   -3.022073
     28          6           0       -3.365914   -0.483195   -2.325010
     29          6           0       -4.459683    1.333348   -0.974364
     30          1           0       -4.779623    0.487426   -0.356774
     31          8           0       -3.825798   -1.566124   -1.933835
     32          6           0       -3.210616    1.982189   -0.388399
     33          1           0       -2.359624    1.296182   -0.357266
     34          1           0       -2.905827    2.848837   -0.990427
     35          1           0       -3.418202    2.325460    0.628759
     36          8           0       -5.575671    2.225112   -0.972100
     37          1           0       -5.270647    3.095965   -1.277033
     38          7           0       -2.068962   -0.290675   -2.593940
     39          1           0       -1.719068    0.648595   -2.763068
     40          6           0       -1.008158   -1.240302   -2.277511
     41          1           0       -1.444793   -2.037678   -1.668139
     42          6           0        0.016996   -0.419721   -1.467895
     43          6           0       -0.389874   -1.847902   -3.564649
     44          1           0        0.033010   -1.010615   -4.137306
     45          8           0        0.141137    0.787746   -1.692807
     46          6           0        0.734088   -2.843173   -3.240952
     47          1           0        0.358802   -3.671319   -2.624889
     48          1           0        1.567676   -2.384718   -2.702924
     49          1           0        1.132005   -3.275095   -4.165327
     50          6           0       -1.480892   -2.517680   -4.413618
     51          1           0       -1.905931   -3.372501   -3.870124
     52          1           0       -2.290690   -1.822470   -4.657372
     53          1           0       -1.051782   -2.892050   -5.350269
     54          7           0        0.701410   -1.092289   -0.526663
     55          1           0        0.668167   -2.107595   -0.484629
     56          6           0        1.824839   -0.523069    0.208703
     57          1           0        2.158678    0.369316   -0.331201
     58          6           0        2.912642   -1.615617    0.187376
     59          6           0        1.426874   -0.109354    1.658790
     60          1           0        1.154834   -1.032137    2.192797
     61          8           0        2.599511   -2.801882    0.064217
     62          6           0        0.185275    0.806762    1.623370
     63          1           0       -0.612358    0.281242    1.086220
     64          1           0        0.413692    1.702625    1.031176
     65          6           0        2.610556    0.541342    2.392844
     66          1           0        3.002500    1.400565    1.832568
     67          1           0        3.426345   -0.167132    2.548768
     68          1           0        2.300538    0.906655    3.374798
     69          6           0       -0.347619    1.208796    3.003206
     70          1           0       -1.318355    1.709306    2.910369
     71          1           0       -0.486417    0.331337    3.647795
     72          1           0        0.322297    1.901354    3.521376
     73          7           0        4.175376   -1.162104    0.287773
     74          1           0        4.390574   -0.167181    0.370286
     75          6           0        5.329942   -2.022051    0.480846
     76          1           0        5.109676   -2.984865    0.006964
     77          6           0        5.478572   -2.305871    2.000230
     78          6           0        6.552967   -1.349132   -0.174823
     79          1           0        7.407598   -2.030121   -0.190304
     80          1           0        6.287550   -1.105894   -1.208051
     81          8           0        4.485701   -2.526939    2.692682
     82          6           0        6.919215   -0.059302    0.592834
     83          8           0        8.013599   -0.078228    1.224972
     84          8           0        6.051308    0.859747    0.608239
     85          7           0        6.747157   -2.302870    2.524616
     86          1           0        7.453738   -1.735773    2.041620
     87          6           0        6.858841   -2.277751    3.980967
     88          1           0        6.188493   -3.042380    4.380591
     89          6           0        6.454604   -0.882390    4.492492
     90          6           0        8.305919   -2.540358    4.423135
     91          1           0        8.923731   -1.711456    4.059063
     92          1           0        8.667891   -3.464869    3.963994
     93          8           0        7.294052    0.017050    4.565132
     94          6           0        8.466973   -2.656697    5.912127
     95          6           0        9.188250   -3.581428    6.620309
     96          1           0        9.771347   -4.423495    6.283039
     97          7           0        7.921541   -1.794348    6.859341
     98          1           0        7.261438   -0.958616    6.774794
     99          6           0        8.290461   -2.172195    8.076673
    100          1           0        8.000912   -1.678294    8.991389
    101          7           0        9.068451   -3.257376    7.960771
    102          7           0        5.183744   -0.760145    4.920847
    103          1           0        4.524081   -1.475882    4.633931
    104          6           0        4.695172    0.470024    5.527571
    105          1           0        4.559358    1.228679    4.748550
    106          6           0        5.723145    0.988280    6.553996
    107          6           0        3.358892    0.164322    6.231637
    108          1           0        2.658668   -0.222104    5.476281
    109          1           0        3.547675   -0.651767    6.941376
    110          8           0        6.323025    0.207017    7.334669
    111          6           0        2.690883    1.335435    6.978819
    112          1           0        3.384749    1.684661    7.755014
    113          6           0        2.354748    2.528116    6.070734
    114          1           0        1.722317    2.210133    5.232539
    115          1           0        1.798944    3.286595    6.632657
    116          1           0        3.239737    3.029146    5.668125
    117          6           0        1.421489    0.822726    7.676391
    118          1           0        0.684541    0.476177    6.939515
    119          1           0        0.952699    1.617441    8.266809
    120          1           0        1.641046   -0.013846    8.350463
    121          7           0        5.821668    2.301324    6.574848
    122          1           0        5.323491    2.889752    5.893862
    123          6           0        6.572817    3.192435    7.449085
    124          1           0        6.152270    3.146623    8.461125
    125          6           0        6.297191    4.649829    6.896156
    126          6           0        8.077470    2.889209    7.553197
    127          1           0        8.213912    2.000334    8.180267
    128          1           0        8.504962    3.745265    8.086293
    129          8           0        6.856157    5.568037    7.496110
    130          6           0        8.845452    2.650960    6.239877
    131          1           0        9.898653    2.490180    6.509306
    132          1           0        8.492998    1.723525    5.774585
    133          6           0        8.797647    3.792292    5.195993
    134          1           0        8.767291    4.763641    5.695505
    135          1           0        9.700040    3.781240    4.573037
    136          7           0        7.629192    3.744912    4.313988
    137          1           0        6.778083    4.197510    4.692887
    138          7           0        8.498827    2.099543    2.893765
    139          1           0        8.295031    1.320723    2.238302
    140          1           0        9.230574    1.900023    3.558652
    141          7           0        6.289522    2.761976    2.699606
    142          1           0        6.194670    2.135500    1.882618
    143          1           0        5.623935    3.512535    2.817811
    144          6           0        7.480836    2.862935    3.322486
    145          8           0        5.555914    4.692377    5.845175
    146          1           0        9.495707   -3.752530    8.732219
 ---------------------------------------------------------------------

 SCF Done:  E(RB3LYP) =  -3503.61558253     A.U. after    3 cycles

 Alpha  occ. eigenvalues --  -19.26016 -19.25253 -19.24625 -19.21602 -19.21389
 Alpha  occ. eigenvalues --  -19.18716 -19.18412 -19.18170 -19.17212 -19.16741
 Alpha  occ. eigenvalues --  -19.14744 -19.14603 -19.10447 -19.09049 -14.59243
 Alpha  occ. eigenvalues --  -14.53172 -14.50012 -14.47640 -14.46090 -14.44968
 Alpha  occ. eigenvalues --  -14.42547 -14.42418 -14.41907 -14.40444 -14.39334
 Alpha  occ. eigenvalues --  -14.39181 -14.39084 -14.38551 -10.42350 -10.39200
 Alpha  occ. eigenvalues --  -10.38935 -10.38717 -10.38688 -10.36344 -10.35800
 Alpha  occ. eigenvalues --  -10.35786 -10.35066 -10.34942 -10.34660 -10.34154
 Alpha  occ. eigenvalues --  -10.34018 -10.33919 -10.33847 -10.33738 -10.32957
 Alpha  occ. eigenvalues --  -10.32580 -10.31011 -10.30780 -10.29126 -10.28951
 Alpha  occ. eigenvalues --  -10.28783 -10.28742 -10.28320 -10.27905 -10.27298
 Alpha  occ. eigenvalues --  -10.26289 -10.25788 -10.25258 -10.24995 -10.24407
 Alpha  occ. eigenvalues --  -10.24355 -10.24226 -10.23758 -10.23666 -10.23269
 Alpha  occ. eigenvalues --  -10.22681 -10.22414 -10.21972 -10.21828 -10.21333
 Alpha  occ. eigenvalues --  -10.21121  -1.18473  -1.16556  -1.14217  -1.13494
 Alpha  occ. eigenvalues --   -1.12621  -1.12510  -1.11888  -1.10999  -1.10657
 Alpha  occ. eigenvalues --   -1.09907  -1.08413  -1.07959  -1.07764  -1.04991
 Alpha  occ. eigenvalues --   -1.04472  -1.03163  -1.02963  -1.02318  -1.01638
 Alpha  occ. eigenvalues --   -0.99463  -0.99143  -0.99068  -0.98507  -0.97459
 Alpha  occ. eigenvalues --   -0.96812  -0.94397  -0.93647  -0.92262  -0.90940
 Alpha  occ. eigenvalues --   -0.90620  -0.89046  -0.87517  -0.86518  -0.86385
 Alpha  occ. eigenvalues --   -0.85796  -0.84957  -0.82503  -0.82358  -0.81083
 Alpha  occ. eigenvalues --   -0.80402  -0.79507  -0.78681  -0.78041  -0.77378
 Alpha  occ. eigenvalues --   -0.76482  -0.75978  -0.75398  -0.75191  -0.75023
 Alpha  occ. eigenvalues --   -0.73629  -0.72616  -0.72560  -0.71880  -0.71629
 Alpha  occ. eigenvalues --   -0.71240  -0.71019  -0.69942  -0.69550  -0.69337
 Alpha  occ. eigenvalues --   -0.69002  -0.67740  -0.67495  -0.66455  -0.66180
 Alpha  occ. eigenvalues --   -0.65667  -0.65233  -0.65092  -0.64261  -0.64165
 Alpha  occ. eigenvalues --   -0.63899  -0.63537  -0.62718  -0.62204  -0.61714
 Alpha  occ. eigenvalues --   -0.61629  -0.61327  -0.61073  -0.60092  -0.59793
 Alpha  occ. eigenvalues --   -0.59270  -0.58963  -0.58619  -0.58293  -0.58198
 Alpha  occ. eigenvalues --   -0.57581  -0.57556  -0.57373  -0.57220  -0.56836
 Alpha  occ. eigenvalues --   -0.56662  -0.56372  -0.56024  -0.55263  -0.55039
 Alpha  occ. eigenvalues --   -0.54520  -0.54191  -0.54050  -0.53806  -0.53307
 Alpha  occ. eigenvalues --   -0.52962  -0.52752  -0.52647  -0.52462  -0.52383
 Alpha  occ. eigenvalues --   -0.52193  -0.51908  -0.51763  -0.51499  -0.51203
 Alpha  occ. eigenvalues --   -0.50805  -0.50784  -0.50504  -0.50326  -0.50172
 Alpha  occ. eigenvalues --   -0.50011  -0.49502  -0.49032  -0.48869  -0.48778
 Alpha  occ. eigenvalues --   -0.48667  -0.48337  -0.48215  -0.48034  -0.47890
 Alpha  occ. eigenvalues --   -0.47587  -0.47532  -0.47280  -0.47158  -0.47057
 Alpha  occ. eigenvalues --   -0.46821  -0.46610  -0.46496  -0.46256  -0.46142
 Alpha  occ. eigenvalues --   -0.45905  -0.45794  -0.45723  -0.45528  -0.45308
 Alpha  occ. eigenvalues --   -0.45148  -0.44741  -0.44626  -0.44374  -0.44071
 Alpha  occ. eigenvalues --   -0.43789  -0.43554  -0.43390  -0.43225  -0.43097
 Alpha  occ. eigenvalues --   -0.42615  -0.42336  -0.42258  -0.42159  -0.42007
 Alpha  occ. eigenvalues --   -0.41731  -0.41637  -0.41467  -0.41194  -0.41014
 Alpha  occ. eigenvalues --   -0.40753  -0.40655  -0.40560  -0.40376  -0.40020
 Alpha  occ. eigenvalues --   -0.39916  -0.39066  -0.38560  -0.38226  -0.37899
 Alpha  occ. eigenvalues --   -0.37801  -0.37746  -0.37705  -0.37583  -0.37378
 Alpha  occ. eigenvalues --   -0.37114  -0.36923  -0.35969  -0.35911  -0.35638
 Alpha  occ. eigenvalues --   -0.35172  -0.34820  -0.34484  -0.34376  -0.32840
 Alpha  occ. eigenvalues --   -0.32769  -0.32659  -0.32212  -0.31550  -0.31186
 Alpha  occ. eigenvalues --   -0.30860  -0.30636  -0.30289  -0.29860  -0.29473
 Alpha  occ. eigenvalues --   -0.29037  -0.28883  -0.28526  -0.25573  -0.25234
 Alpha  occ. eigenvalues --   -0.23059
 Alpha virt. eigenvalues --   -0.12419  -0.11193  -0.10406  -0.07777  -0.07332
 Alpha virt. eigenvalues --   -0.07160  -0.05635  -0.05219  -0.04760  -0.04644
 Alpha virt. eigenvalues --   -0.03835  -0.02927  -0.02331  -0.02064  -0.01713

 Mulliken charges:
               1
     1  N   -0.765766
     2  H    0.415970
     3  H    0.436731
     4  H    0.416447
     5  C   -0.124343
     6  H    0.230606
     7  C    0.645008
     8  C   -0.051229
     9  H    0.203118
    10  H    0.150794
    11  O   -0.524995
    12  O   -0.654732
    13  H    0.467615
    14  N   -0.573947
    15  H    0.372633
    16  C   -0.073697
    17  H    0.216998
    18  C    0.616436
    19  C   -0.485854
    20  H    0.178235
    21  H    0.166876
    22  H    0.191986
    23  O   -0.530551
    24  N   -0.629254
    25  H    0.367188
    26  C   -0.034875
    27  H    0.160408
    28  C    0.665222
    29  C    0.107141
    30  H    0.175264
    31  O   -0.597019
    32  C   -0.499860
    33  H    0.189275
    34  H    0.153029
    35  H    0.186095
    36  O   -0.623992
    37  H    0.403938
    38  N   -0.587141
    39  H    0.360513
    40  C   -0.070853
    41  H    0.173369
    42  C    0.626018
    43  C   -0.068733
    44  H    0.150164
    45  O   -0.552007
    46  C   -0.470341
    47  H    0.145361
    48  H    0.177581
    49  H    0.155835
    50  C   -0.481867
    51  H    0.125759
    52  H    0.189620
    53  H    0.146368
    54  N   -0.602980
    55  H    0.356713
    56  C   -0.076728
    57  H    0.181307
    58  C    0.641701
    59  C   -0.064340
    60  H    0.136123
    61  O   -0.554368
    62  C   -0.255175
    63  H    0.131590
    64  H    0.150036
    65  C   -0.508796
    66  H    0.148792
    67  H    0.178069
    68  H    0.160653
    69  C   -0.465990
    70  H    0.141875
    71  H    0.143073
    72  H    0.167139
    73  N   -0.612555
    74  H    0.379546
    75  C   -0.075622
    76  H    0.199286
    77  C    0.621330
    78  C   -0.376482
    79  H    0.161847
    80  H    0.176485
    81  O   -0.532447
    82  C    0.592374
    83  O   -0.586303
    84  O   -0.585911
    85  N   -0.625463
    86  H    0.381466
    87  C   -0.047391
    88  H    0.172932
    89  C    0.601922
    90  C   -0.364363
    91  H    0.217485
    92  H    0.178539
    93  O   -0.541908
    94  C    0.344662
    95  C   -0.020498
    96  H    0.210857
    97  N   -0.625020
    98  H    0.482802
    99  C    0.301292
   100  H    0.252038
   101  N   -0.551395
   102  N   -0.619624
   103  H    0.367083
   104  C   -0.014193
   105  H    0.178519
   106  C    0.672607
   107  C   -0.299132
   108  H    0.143864
   109  H    0.149105
   110  O   -0.656845
   111  C   -0.086156
   112  H    0.150940
   113  C   -0.479153
   114  H    0.143643
   115  H    0.159273
   116  H    0.170770
   117  C   -0.444015
   118  H    0.137443
   119  H    0.154050
   120  H    0.141127
   121  N   -0.606452
   122  H    0.375048
   123  C   -0.051302
   124  H    0.160843
   125  C    0.578448
   126  C   -0.268553
   127  H    0.123427
   128  H    0.174662
   129  O   -0.542113
   130  C   -0.301103
   131  H    0.128665
   132  H    0.172865
   133  C   -0.190658
   134  H    0.210307
   135  H    0.153173
   136  N   -0.618531
   137  H    0.394369
   138  N   -0.787059
   139  H    0.416543
   140  H    0.342601
   141  N   -0.825485
   142  H    0.415468
   143  H    0.352028
   144  C    0.772484
   145  O   -0.637971
   146  H    0.384243
 Sum of Mulliken charges =   1.00000

 Dipole moment (field-independent basis, Debye):
    X=             -7.7548    Y=            -26.6514    Z=             -6.6661  Tot=             28.5459
 Quadrupole moment (field-independent basis, Debye-Ang):
   XX=           -138.1309   YY=           -363.4927   ZZ=           -232.4745
   XY=            -69.2767   XZ=            224.0327   YZ=            -41.7441

 Normal termination of Gaussian 16 at Sun Jun 12 09:18:17 2022.
