 Gaussian 16, Revision C.01,
 Gaussian 16:  ES64L-G16RevC.01  3-Jul-2019

 ----------------------------------------------------------------------
 # B3LYP/6-31G* empiricaldispersion=gd3 guess=read geom=check nosymm in
 tegral(ultrafinegrid)
 ----------------------------------------------------------------------

 ------------------------------------------------------
 Candidate Structure: Conf:205 Charge calc in gas phase
 ------------------------------------------------------
 Structure from the checkpoint file:  "conf-205.chk"
 Charge =  1 Multiplicity = 1

                          Input orientation:
 ---------------------------------------------------------------------
 Center     Atomic      Atomic             Coordinates (Angstroms)
 Number     Number       Type             X           Y           Z
 ---------------------------------------------------------------------
      1          7           0       -9.877027   -3.002465   -7.400416
      2          1           0       -9.561208   -3.943620   -7.026609
      3          1           0      -10.603050   -2.635570   -6.764826
      4          1           0      -10.231134   -3.063099   -8.356950
      5          6           0       -8.642871   -2.152818   -7.230345
      6          1           0       -8.158940   -2.030169   -8.202823
      7          6           0       -7.746075   -3.032646   -6.305624
      8          6           0       -9.056180   -0.799625   -6.643409
      9          1           0       -9.540499   -0.185683   -7.417095
     10          1           0       -8.164622   -0.262887   -6.295491
     11          8           0       -8.113553   -4.196728   -6.094678
     12          8           0       -9.946002   -1.120787   -5.586293
     13          1           0      -10.263703   -0.312544   -5.154385
     14          7           0       -6.641059   -2.469433   -5.842830
     15          1           0       -6.387768   -1.492493   -6.005117
     16          6           0       -5.708741   -3.122342   -4.924549
     17          1           0       -6.285938   -3.580871   -4.113452
     18          6           0       -4.855905   -1.964787   -4.363177
     19          6           0       -4.857687   -4.190451   -5.626787
     20          1           0       -4.176875   -4.668142   -4.916052
     21          1           0       -4.261831   -3.740232   -6.426828
     22          1           0       -5.508121   -4.960226   -6.049818
     23          8           0       -4.939890   -0.835437   -4.867900
     24          7           0       -4.035088   -2.289472   -3.360430
     25          1           0       -3.999345   -3.227819   -2.972298
     26          6           0       -3.150485   -1.339530   -2.706108
     27          1           0       -2.789313   -0.631036   -3.460580
     28          6           0       -2.003794   -2.166710   -2.112669
     29          6           0       -3.903994   -0.549667   -1.588294
     30          1           0       -4.164275   -1.261443   -0.797532
     31          8           0       -2.212634   -3.327902   -1.750240
     32          6           0       -3.062679    0.584896   -1.000190
     33          1           0       -2.191363    0.226622   -0.442283
     34          1           0       -2.717393    1.265989   -1.790428
     35          1           0       -3.689107    1.162520   -0.315111
     36          8           0       -5.150616   -0.079850   -2.080572
     37          1           0       -4.991980    0.375948   -2.924342
     38          7           0       -0.814706   -1.541360   -1.991974
     39          1           0       -0.762950   -0.552258   -2.202726
     40          6           0        0.263941   -2.081319   -1.148432
     41          1           0        0.234403   -3.168244   -1.267913
     42          6           0       -0.120966   -1.677500    0.293528
     43          6           0        1.636246   -1.550767   -1.587945
     44          1           0        1.633314   -0.466379   -1.414761
     45          8           0        0.115261   -0.548309    0.729431
     46          6           0        2.745595   -2.172433   -0.729743
     47          1           0        2.769959   -3.262688   -0.854388
     48          1           0        2.626957   -1.948175    0.330315
     49          1           0        3.723178   -1.781120   -1.025757
     50          6           0        1.885035   -1.823628   -3.078335
     51          1           0        1.879874   -2.901694   -3.283027
     52          1           0        1.131376   -1.358204   -3.722834
     53          1           0        2.865332   -1.434219   -3.371549
     54          7           0       -0.850517   -2.601188    0.961634
     55          1           0       -0.983740   -3.512767    0.543967
     56          6           0       -1.412241   -2.368638    2.297202
     57          1           0       -1.704109   -1.313094    2.338889
     58          6           0       -0.269638   -2.653286    3.293290
     59          6           0       -2.641009   -3.258166    2.554847
     60          1           0       -2.300113   -4.301098    2.483842
     61          8           0        0.058440   -3.802605    3.568099
     62          6           0       -3.735614   -3.010519    1.497948
     63          1           0       -3.302385   -3.110671    0.496426
     64          1           0       -4.080219   -1.968514    1.587221
     65          6           0       -3.148868   -3.023409    3.985454
     66          1           0       -3.480494   -1.985013    4.116817
     67          1           0       -2.366301   -3.232468    4.720093
     68          1           0       -3.995048   -3.677038    4.214769
     69          6           0       -4.935689   -3.958852    1.599788
     70          1           0       -5.635344   -3.787610    0.773167
     71          1           0       -4.611823   -5.005700    1.551677
     72          1           0       -5.492523   -3.824681    2.532608
     73          7           0        0.361071   -1.542490    3.758100
     74          1           0        0.149206   -0.658541    3.305893
     75          6           0        1.727296   -1.627497    4.262470
     76          1           0        1.808704   -2.484245    4.933257
     77          6           0        2.052526   -0.320905    4.975782
     78          6           0        2.674946   -1.796751    3.049430
     79          1           0        2.393349   -2.738698    2.564230
     80          1           0        2.456214   -0.992955    2.340597
     81          8           0        1.524615    0.740791    4.637038
     82          6           0        4.195039   -1.844025    3.271689
     83          8           0        4.873813   -1.636876    2.232498
     84          8           0        4.639313   -2.101227    4.430763
     85          7           0        3.030126   -0.412199    5.939917
     86          1           0        3.649512   -1.222056    5.769341
     87          6           0        3.740232    0.829041    6.228250
     88          1           0        3.004328    1.631915    6.137741
     89          6           0        4.840182    0.996688    5.166445
     90          6           0        4.388052    0.899779    7.630502
     91          1           0        5.109782    0.087979    7.743132
     92          1           0        3.627066    0.803875    8.411290
     93          8           0        5.951264    0.490315    5.326564
     94          6           0        5.117528    2.210317    7.688484
     95          6           0        6.368326    2.524027    7.233133
     96          1           0        7.162428    1.882760    6.895133
     97          7           0        4.464180    3.435917    7.822372
     98          1           0        3.513486    3.556363    8.148223
     99          6           0        5.270160    4.437109    7.443063
    100          1           0        5.021441    5.486020    7.422587
    101          7           0        6.435983    3.891719    7.100671
    102          7           0        4.478852    1.708217    4.086381
    103          1           0        3.510292    1.987821    4.001263
    104          6           0        5.396813    1.950922    2.982928
    105          1           0        5.652265    0.985613    2.531092
    106          6           0        6.686472    2.613928    3.532767
    107          6           0        4.726048    2.875616    1.953828
    108          1           0        4.564625    3.848537    2.438426
    109          1           0        5.442889    3.044724    1.140175
    110          8           0        6.633084    3.487873    4.416192
    111          6           0        3.399135    2.358501    1.357963
    112          1           0        2.697655    2.132917    2.176329
    113          6           0        2.751795    3.457629    0.502931
    114          1           0        3.402290    3.727328   -0.339142
    115          1           0        1.794787    3.115915    0.091707
    116          1           0        2.564680    4.367821    1.085855
    117          6           0        3.576668    1.070542    0.543332
    118          1           0        4.191890    1.259464   -0.347190
    119          1           0        2.597082    0.707191    0.214048
    120          1           0        4.049216    0.264052    1.112698
    121          7           0        7.799959    2.173566    2.949751
    122          1           0        7.784903    1.463487    2.213994
    123          6           0        9.171406    2.591350    3.202125
    124          1           0        9.281071    3.657671    2.969424
    125          6           0       10.095437    1.795465    2.203872
    126          6           0        9.629994    2.387686    4.662628
    127          1           0        9.184969    3.183544    5.274932
    128          1           0       10.713827    2.542919    4.659247
    129          8           0       11.306052    2.006464    2.317247
    130          6           0        9.279774    1.048032    5.339645
    131          1           0        9.562225    1.137439    6.399983
    132          1           0        8.195864    0.896868    5.303387
    133          6           0        9.963908   -0.231540    4.806647
    134          1           0       11.018304   -0.036572    4.593596
    135          1           0        9.935187   -1.014891    5.574980
    136          7           0        9.393208   -0.763727    3.571991
    137          1           0        9.707626   -0.303989    2.707789
    138          7           0        7.489662   -1.794496    4.505525
    139          1           0        6.467595   -1.943343    4.418250
    140          1           0        7.765905   -1.471865    5.420081
    141          7           0        7.619172   -1.365987    2.232399
    142          1           0        6.606947   -1.575223    2.156203
    143          1           0        8.082089   -0.843652    1.495494
    144          6           0        8.156475   -1.280363    3.456449
    145          8           0        9.487244    0.963284    1.440160
    146          1           0        7.134544    4.339310    6.511540
 ---------------------------------------------------------------------

 SCF Done:  E(RB3LYP) =  -3503.58274726     A.U. after    2 cycles

 Alpha  occ. eigenvalues --  -19.31476 -19.27299 -19.22988 -19.21939 -19.20900
 Alpha  occ. eigenvalues --  -19.17934 -19.17719 -19.16816 -19.15403 -19.14481
 Alpha  occ. eigenvalues --  -19.12692 -19.12080 -19.08841 -19.07610 -14.60089
 Alpha  occ. eigenvalues --  -14.52994 -14.51875 -14.49893 -14.46432 -14.45063
 Alpha  occ. eigenvalues --  -14.42488 -14.41032 -14.40498 -14.39666 -14.37640
 Alpha  occ. eigenvalues --  -14.37307 -14.37289 -14.36611 -10.44262 -10.41936
 Alpha  occ. eigenvalues --  -10.40674 -10.39952 -10.39614 -10.37936 -10.35379
 Alpha  occ. eigenvalues --  -10.34996 -10.34116 -10.34088 -10.34049 -10.33700
 Alpha  occ. eigenvalues --  -10.32767 -10.32630 -10.32537 -10.32259 -10.31428
 Alpha  occ. eigenvalues --  -10.30437 -10.29944 -10.29800 -10.28786 -10.28761
 Alpha  occ. eigenvalues --  -10.28275 -10.27209 -10.26717 -10.26494 -10.25312
 Alpha  occ. eigenvalues --  -10.25079 -10.25015 -10.24484 -10.23483 -10.22975
 Alpha  occ. eigenvalues --  -10.22842 -10.22828 -10.22791 -10.22709 -10.22096
 Alpha  occ. eigenvalues --  -10.21638 -10.21551 -10.21392 -10.21174 -10.20552
 Alpha  occ. eigenvalues --  -10.19587  -1.20325  -1.18523  -1.16923  -1.14972
 Alpha  occ. eigenvalues --   -1.13877  -1.12786  -1.09761  -1.09652  -1.09601
 Alpha  occ. eigenvalues --   -1.08733  -1.07286  -1.06651  -1.05595  -1.05422
 Alpha  occ. eigenvalues --   -1.03723  -1.02972  -1.02940  -1.01549  -1.01330
 Alpha  occ. eigenvalues --   -0.98604  -0.98197  -0.97466  -0.96559  -0.96418
 Alpha  occ. eigenvalues --   -0.94532  -0.93605  -0.92788  -0.92255  -0.90638
 Alpha  occ. eigenvalues --   -0.90565  -0.89146  -0.87328  -0.86231  -0.85077
 Alpha  occ. eigenvalues --   -0.85014  -0.84018  -0.81575  -0.81430  -0.81346
 Alpha  occ. eigenvalues --   -0.80095  -0.79240  -0.79097  -0.78760  -0.77728
 Alpha  occ. eigenvalues --   -0.76973  -0.75625  -0.75255  -0.74413  -0.74231
 Alpha  occ. eigenvalues --   -0.73427  -0.73300  -0.72174  -0.71604  -0.71342
 Alpha  occ. eigenvalues --   -0.70767  -0.70237  -0.69739  -0.68932  -0.68750
 Alpha  occ. eigenvalues --   -0.68254  -0.67894  -0.67808  -0.67165  -0.66757
 Alpha  occ. eigenvalues --   -0.65340  -0.64781  -0.64149  -0.64127  -0.63284
 Alpha  occ. eigenvalues --   -0.62984  -0.62741  -0.62366  -0.62336  -0.61701
 Alpha  occ. eigenvalues --   -0.61335  -0.61036  -0.60292  -0.59708  -0.59614
 Alpha  occ. eigenvalues --   -0.59438  -0.58770  -0.58487  -0.58134  -0.57999
 Alpha  occ. eigenvalues --   -0.57842  -0.57541  -0.57384  -0.56798  -0.56553
 Alpha  occ. eigenvalues --   -0.56100  -0.55662  -0.55453  -0.55105  -0.54987
 Alpha  occ. eigenvalues --   -0.54367  -0.54093  -0.53802  -0.53494  -0.53197
 Alpha  occ. eigenvalues --   -0.52966  -0.52218  -0.52083  -0.51536  -0.51197
 Alpha  occ. eigenvalues --   -0.51055  -0.50959  -0.50874  -0.50726  -0.50557
 Alpha  occ. eigenvalues --   -0.50261  -0.50092  -0.49771  -0.49639  -0.49432
 Alpha  occ. eigenvalues --   -0.49253  -0.49106  -0.48460  -0.48318  -0.48168
 Alpha  occ. eigenvalues --   -0.47843  -0.47749  -0.47486  -0.47424  -0.47327
 Alpha  occ. eigenvalues --   -0.47134  -0.47001  -0.46682  -0.46529  -0.46320
 Alpha  occ. eigenvalues --   -0.45927  -0.45758  -0.45578  -0.45272  -0.45150
 Alpha  occ. eigenvalues --   -0.44933  -0.44675  -0.44601  -0.44155  -0.44056
 Alpha  occ. eigenvalues --   -0.43969  -0.43680  -0.43488  -0.43314  -0.43177
 Alpha  occ. eigenvalues --   -0.43077  -0.42972  -0.42693  -0.42503  -0.42332
 Alpha  occ. eigenvalues --   -0.42132  -0.41818  -0.41691  -0.41579  -0.41499
 Alpha  occ. eigenvalues --   -0.41234  -0.41107  -0.40885  -0.40650  -0.39821
 Alpha  occ. eigenvalues --   -0.39745  -0.39581  -0.39116  -0.38682  -0.38496
 Alpha  occ. eigenvalues --   -0.38387  -0.38108  -0.37856  -0.37763  -0.37665
 Alpha  occ. eigenvalues --   -0.37453  -0.37351  -0.37120  -0.36275  -0.36194
 Alpha  occ. eigenvalues --   -0.36121  -0.36020  -0.35757  -0.35475  -0.35135
 Alpha  occ. eigenvalues --   -0.35064  -0.34764  -0.33762  -0.33403  -0.32679
 Alpha  occ. eigenvalues --   -0.31770  -0.31071  -0.30979  -0.30040  -0.29705
 Alpha  occ. eigenvalues --   -0.29302  -0.28387  -0.28236  -0.28114  -0.27500
 Alpha  occ. eigenvalues --   -0.27233  -0.27015  -0.26181  -0.24011  -0.23606
 Alpha  occ. eigenvalues --   -0.21749
 Alpha virt. eigenvalues --   -0.13260  -0.11936  -0.10565  -0.08613  -0.07344
 Alpha virt. eigenvalues --   -0.07312  -0.06524  -0.05507  -0.04862  -0.04175
 Alpha virt. eigenvalues --   -0.03802  -0.03329  -0.02901  -0.02529  -0.01936

 Mulliken charges:
               1
     1  N   -0.755785
     2  H    0.436704
     3  H    0.430643
     4  H    0.413585
     5  C   -0.130042
     6  H    0.234085
     7  C    0.673138
     8  C   -0.057736
     9  H    0.178159
    10  H    0.197438
    11  O   -0.536329
    12  O   -0.624525
    13  H    0.443170
    14  N   -0.616785
    15  H    0.375047
    16  C   -0.055164
    17  H    0.202988
    18  C    0.654442
    19  C   -0.456050
    20  H    0.181021
    21  H    0.172277
    22  H    0.192417
    23  O   -0.574570
    24  N   -0.600267
    25  H    0.363691
    26  C   -0.102799
    27  H    0.170523
    28  C    0.635257
    29  C    0.153254
    30  H    0.165090
    31  O   -0.546623
    32  C   -0.499579
    33  H    0.183702
    34  H    0.137181
    35  H    0.181421
    36  O   -0.627163
    37  H    0.400620
    38  N   -0.599109
    39  H    0.346534
    40  C   -0.045145
    41  H    0.171502
    42  C    0.638009
    43  C   -0.108761
    44  H    0.150763
    45  O   -0.555655
    46  C   -0.469727
    47  H    0.140019
    48  H    0.191228
    49  H    0.171045
    50  C   -0.445454
    51  H    0.148236
    52  H    0.130838
    53  H    0.163833
    54  N   -0.599786
    55  H    0.354063
    56  C   -0.038522
    57  H    0.154083
    58  C    0.626512
    59  C   -0.101419
    60  H    0.151502
    61  O   -0.535690
    62  C   -0.281893
    63  H    0.153993
    64  H    0.126765
    65  C   -0.470628
    66  H    0.138729
    67  H    0.178706
    68  H    0.156054
    69  C   -0.447567
    70  H    0.132817
    71  H    0.149853
    72  H    0.154980
    73  N   -0.593656
    74  H    0.355760
    75  C   -0.062953
    76  H    0.194631
    77  C    0.604201
    78  C   -0.388210
    79  H    0.189759
    80  H    0.183295
    81  O   -0.551043
    82  C    0.622952
    83  O   -0.582487
    84  O   -0.614502
    85  N   -0.610047
    86  H    0.383386
    87  C   -0.054487
    88  H    0.159243
    89  C    0.655870
    90  C   -0.346030
    91  H    0.203838
    92  H    0.172848
    93  O   -0.563189
    94  C    0.262309
    95  C    0.066588
    96  H    0.242135
    97  N   -0.586832
    98  H    0.382245
    99  C    0.312611
   100  H    0.243167
   101  N   -0.514851
   102  N   -0.615901
   103  H    0.358170
   104  C   -0.041164
   105  H    0.186648
   106  C    0.649417
   107  C   -0.294319
   108  H    0.141398
   109  H    0.158163
   110  O   -0.631197
   111  C   -0.093736
   112  H    0.131286
   113  C   -0.439557
   114  H    0.143509
   115  H    0.140779
   116  H    0.134604
   117  C   -0.506637
   118  H    0.130240
   119  H    0.163420
   120  H    0.205010
   121  N   -0.613681
   122  H    0.352966
   123  C   -0.033022
   124  H    0.153919
   125  C    0.564712
   126  C   -0.264676
   127  H    0.095966
   128  H    0.176989
   129  O   -0.548383
   130  C   -0.321185
   131  H    0.116409
   132  H    0.195236
   133  C   -0.174610
   134  H    0.194248
   135  H    0.145584
   136  N   -0.602516
   137  H    0.395572
   138  N   -0.775028
   139  H    0.417545
   140  H    0.335828
   141  N   -0.815456
   142  H    0.412399
   143  H    0.372497
   144  C    0.740181
   145  O   -0.644601
   146  H    0.413278
 Sum of Mulliken charges =   1.00000

 Dipole moment (field-independent basis, Debye):
    X=            -42.9446    Y=              1.6737    Z=            -14.7805  Tot=             45.4478
 Quadrupole moment (field-independent basis, Debye-Ang):
   XX=           -196.8796   YY=           -369.8738   ZZ=            -38.5576
   XY=            100.1420   XZ=            350.2851   YZ=            150.6579

 Normal termination of Gaussian 16 at Sun Jun 12 09:17:26 2022.
