 Gaussian 16, Revision C.01,
 Gaussian 16:  ES64L-G16RevC.01  3-Jul-2019

 ----------------------------------------------------------------------
 # B3LYP/6-31G* empiricaldispersion=gd3 guess=read geom=check nosymm in
 tegral(ultrafinegrid)
 ----------------------------------------------------------------------

 ------------------------------------------------------
 Candidate Structure: Conf:950 Charge calc in gas phase
 ------------------------------------------------------
 Structure from the checkpoint file:  "conf-950.chk"
 Charge =  1 Multiplicity = 1

                          Input orientation:
 ---------------------------------------------------------------------
 Center     Atomic      Atomic             Coordinates (Angstroms)
 Number     Number       Type             X           Y           Z
 ---------------------------------------------------------------------
      1          7           0       -6.391738   -2.669890   -8.322913
      2          1           0       -6.999319   -2.656997   -9.143547
      3          1           0       -5.692402   -3.446794   -8.361419
      4          1           0       -6.933577   -2.780037   -7.429851
      5          6           0       -5.578121   -1.428754   -8.103450
      6          1           0       -5.692210   -0.747480   -8.949497
      7          6           0       -4.129302   -1.929925   -7.951853
      8          6           0       -6.102072   -0.783805   -6.760210
      9          1           0       -6.876414   -0.049975   -7.001716
     10          1           0       -5.279326   -0.265782   -6.253523
     11          8           0       -3.935809   -3.139463   -7.823165
     12          8           0       -6.695766   -1.780027   -5.958641
     13          1           0       -6.033930   -2.204305   -5.344140
     14          7           0       -3.179726   -0.974296   -7.902865
     15          1           0       -3.497372   -0.008500   -7.903527
     16          6           0       -1.988720   -1.167025   -7.037846
     17          1           0       -1.706030   -2.218398   -7.118185
     18          6           0       -2.555352   -0.810696   -5.650836
     19          6           0       -0.848139   -0.247708   -7.449333
     20          1           0        0.015108   -0.418580   -6.798998
     21          1           0       -1.146730    0.798974   -7.337406
     22          1           0       -0.553732   -0.438797   -8.484920
     23          8           0       -2.888600    0.357687   -5.420877
     24          7           0       -2.836490   -1.839352   -4.831412
     25          1           0       -2.535535   -2.774876   -5.070623
     26          6           0       -3.568934   -1.642568   -3.578064
     27          1           0       -4.239205   -0.791154   -3.741300
     28          6           0       -2.574677   -1.312518   -2.432764
     29          6           0       -4.388518   -2.882631   -3.235244
     30          1           0       -3.698983   -3.695083   -2.978480
     31          8           0       -2.295745   -2.155566   -1.585511
     32          6           0       -5.352510   -2.636318   -2.083400
     33          1           0       -4.791923   -2.384982   -1.180021
     34          1           0       -6.042702   -1.819151   -2.321845
     35          1           0       -5.939287   -3.538986   -1.875564
     36          8           0       -5.100643   -3.253894   -4.454155
     37          1           0       -5.636846   -4.035083   -4.241192
     38          7           0       -2.048804   -0.078019   -2.513088
     39          1           0       -2.418179    0.561838   -3.206051
     40          6           0       -1.124941    0.440917   -1.500211
     41          1           0       -0.275485   -0.245962   -1.416691
     42          6           0       -1.874431    0.532626   -0.156596
     43          6           0       -0.619867    1.831569   -1.943777
     44          1           0       -1.512701    2.435402   -2.166478
     45          8           0       -2.896235    1.210669   -0.034599
     46          6           0        0.157463    2.536086   -0.821363
     47          1           0        1.050807    1.957799   -0.564340
     48          1           0       -0.464258    2.674476    0.069821
     49          1           0        0.474501    3.530385   -1.157829
     50          6           0        0.256855    1.703326   -3.199369
     51          1           0        1.136729    1.092825   -2.966658
     52          1           0       -0.283336    1.238851   -4.034216
     53          1           0        0.597275    2.690770   -3.533319
     54          7           0       -1.266410   -0.146381    0.832980
     55          1           0       -0.471110   -0.763567    0.603704
     56          6           0       -1.723038   -0.128725    2.218466
     57          1           0       -2.092387    0.886086    2.413117
     58          6           0       -0.465075   -0.370670    3.079307
     59          6           0       -2.889496   -1.119145    2.454061
     60          1           0       -3.674269   -0.754975    1.774680
     61          8           0       -0.382302   -1.216169    3.960736
     62          6           0       -3.458057   -1.071999    3.886091
     63          1           0       -2.727618   -1.507165    4.574424
     64          1           0       -4.343519   -1.723259    3.907624
     65          6           0       -2.524901   -2.551578    2.037646
     66          1           0       -1.708116   -2.937175    2.654525
     67          1           0       -2.219782   -2.592028    0.987296
     68          1           0       -3.392332   -3.211961    2.165376
     69          6           0       -3.857778    0.327201    4.370991
     70          1           0       -4.392493    0.272916    5.326519
     71          1           0       -2.981821    0.967424    4.527931
     72          1           0       -4.512048    0.830553    3.647543
     73          7           0        0.591221    0.441298    2.738631
     74          1           0        0.442724    1.022596    1.923023
     75          6           0        1.946979   -0.060859    2.883925
     76          1           0        1.873148   -1.113520    3.171435
     77          6           0        2.734823    0.733939    3.913649
     78          6           0        2.725806    0.081768    1.559320
     79          1           0        2.897489    1.142855    1.367061
     80          1           0        3.715482   -0.383091    1.660551
     81          8           0        2.653602    1.956961    4.027934
     82          6           0        2.012735   -0.523658    0.304003
     83          8           0        2.335681    0.009364   -0.783573
     84          8           0        1.182735   -1.448032    0.517564
     85          7           0        3.659349    0.011369    4.641288
     86          1           0        3.843318   -0.943174    4.355825
     87          6           0        4.725977    0.741656    5.307804
     88          1           0        4.255839    1.636589    5.724408
     89          6           0        5.808118    1.157079    4.288595
     90          6           0        5.389331   -0.066663    6.428205
     91          1           0        6.010861   -0.849378    5.977732
     92          1           0        4.622079   -0.541862    7.046102
     93          8           0        6.847177    0.507978    4.154197
     94          6           0        6.245489    0.799913    7.304377
     95          6           0        6.414857    0.772173    8.663003
     96          1           0        5.980785    0.128694    9.411455
     97          7           0        7.043474    1.842637    6.844895
     98          1           0        7.169098    2.227900    5.871660
     99          6           0        7.665027    2.423101    7.864680
    100          1           0        8.334011    3.265826    7.786890
    101          7           0        7.304043    1.783933    8.985490
    102          7           0        5.542641    2.295946    3.617657
    103          1           0        4.627403    2.721013    3.737205
    104          6           0        6.532603    2.888102    2.743903
    105          1           0        7.009516    2.074301    2.186514
    106          6           0        7.659628    3.514256    3.605252
    107          6           0        5.871636    3.873288    1.760715
    108          1           0        5.483017    4.731288    2.327059
    109          1           0        6.639707    4.273596    1.087109
    110          8           0        7.707386    3.379567    4.846685
    111          6           0        4.741050    3.259582    0.906762
    112          1           0        3.949915    2.921393    1.588524
    113          6           0        4.131495    4.336632   -0.001227
    114          1           0        4.874300    4.711977   -0.717582
    115          1           0        3.292986    3.924162   -0.572201
    116          1           0        3.760702    5.190879    0.578141
    117          6           0        5.209350    2.053530    0.080205
    118          1           0        5.987448    2.355253   -0.634791
    119          1           0        4.375414    1.608197   -0.474675
    120          1           0        5.620377    1.257901    0.712369
    121          7           0        8.607327    4.166987    2.932550
    122          1           0        8.534275    4.379288    1.937459
    123          6           0        9.748634    4.841904    3.537320
    124          1           0        9.409112    5.444513    4.385714
    125          6           0       10.370047    5.753884    2.450110
    126          6           0       10.816219    3.848873    4.040387
    127          1           0       10.329066    3.158978    4.738140
    128          1           0       11.561565    4.417266    4.606153
    129          8           0       11.362349    6.437244    2.850542
    130          6           0       11.502502    3.032921    2.928377
    131          1           0       11.895465    2.109738    3.367905
    132          1           0       10.744620    2.710847    2.201344
    133          6           0       12.669605    3.751529    2.198521
    134          1           0       12.910804    4.693297    2.688052
    135          1           0       13.567606    3.123187    2.216033
    136          7           0       12.363051    4.031282    0.786446
    137          1           0       11.895639    3.285935    0.287763
    138          7           0       12.789931    6.323263    0.764956
    139          1           0       12.941067    7.130119    0.173158
    140          1           0       12.269608    6.511173    1.683714
    141          7           0       12.360760    5.183828   -1.222570
    142          1           0       11.924072    5.988989   -1.651241
    143          1           0       12.196438    4.307783   -1.699151
    144          6           0       12.478154    5.191914    0.134951
    145          8           0        9.928314    5.644650    1.283165
    146          1           0        7.625431    2.015916    9.916031
 ---------------------------------------------------------------------

 SCF Done:  E(RB3LYP) =  -3503.54149002     A.U. after    1 cycles

 Alpha  occ. eigenvalues --  -19.27072 -19.26635 -19.26210 -19.20984 -19.19041
 Alpha  occ. eigenvalues --  -19.17693 -19.16216 -19.15938 -19.14407 -19.14235
 Alpha  occ. eigenvalues --  -19.12727 -19.11436 -19.07310 -19.07212 -14.57675
 Alpha  occ. eigenvalues --  -14.53162 -14.50161 -14.48773 -14.45959 -14.45180
 Alpha  occ. eigenvalues --  -14.44997 -14.41581 -14.41532 -14.41389 -14.40757
 Alpha  occ. eigenvalues --  -14.39587 -14.36264 -14.35057 -10.42776 -10.40225
 Alpha  occ. eigenvalues --  -10.39308 -10.39024 -10.38119 -10.37199 -10.35364
 Alpha  occ. eigenvalues --  -10.34505 -10.34421 -10.33984 -10.33798 -10.33266
 Alpha  occ. eigenvalues --  -10.32808 -10.32787 -10.32147 -10.30942 -10.30103
 Alpha  occ. eigenvalues --  -10.29522 -10.29225 -10.29062 -10.28501 -10.28432
 Alpha  occ. eigenvalues --  -10.27061 -10.26692 -10.25875 -10.25300 -10.24966
 Alpha  occ. eigenvalues --  -10.24673 -10.24105 -10.24104 -10.23909 -10.23294
 Alpha  occ. eigenvalues --  -10.22649 -10.21324 -10.20526 -10.19688 -10.19391
 Alpha  occ. eigenvalues --  -10.19087 -10.18970 -10.18307 -10.17986 -10.17852
 Alpha  occ. eigenvalues --  -10.16356  -1.18590  -1.16596  -1.15334  -1.13375
 Alpha  occ. eigenvalues --   -1.12620  -1.11250  -1.10612  -1.09413  -1.09149
 Alpha  occ. eigenvalues --   -1.08000  -1.07887  -1.07634  -1.05426  -1.04503
 Alpha  occ. eigenvalues --   -1.03130  -1.03129  -1.01761  -1.00428  -0.99696
 Alpha  occ. eigenvalues --   -0.98884  -0.98625  -0.97769  -0.97673  -0.96072
 Alpha  occ. eigenvalues --   -0.95920  -0.94027  -0.91928  -0.91671  -0.90747
 Alpha  occ. eigenvalues --   -0.90449  -0.87068  -0.86137  -0.85539  -0.85161
 Alpha  occ. eigenvalues --   -0.84269  -0.82443  -0.81058  -0.80574  -0.79108
 Alpha  occ. eigenvalues --   -0.78813  -0.78669  -0.78491  -0.77645  -0.74856
 Alpha  occ. eigenvalues --   -0.74365  -0.73854  -0.73686  -0.73086  -0.72560
 Alpha  occ. eigenvalues --   -0.72386  -0.71433  -0.71214  -0.71100  -0.70829
 Alpha  occ. eigenvalues --   -0.70399  -0.69933  -0.69727  -0.68725  -0.67920
 Alpha  occ. eigenvalues --   -0.67704  -0.67362  -0.66987  -0.65712  -0.65618
 Alpha  occ. eigenvalues --   -0.64287  -0.64167  -0.63496  -0.63263  -0.62931
 Alpha  occ. eigenvalues --   -0.62670  -0.62205  -0.62118  -0.61567  -0.60982
 Alpha  occ. eigenvalues --   -0.60809  -0.60277  -0.59853  -0.59493  -0.58938
 Alpha  occ. eigenvalues --   -0.58797  -0.58633  -0.57999  -0.57811  -0.57515
 Alpha  occ. eigenvalues --   -0.57403  -0.57248  -0.56781  -0.56484  -0.56401
 Alpha  occ. eigenvalues --   -0.56060  -0.55108  -0.55082  -0.54860  -0.54441
 Alpha  occ. eigenvalues --   -0.54361  -0.54145  -0.53863  -0.53135  -0.52993
 Alpha  occ. eigenvalues --   -0.52689  -0.52194  -0.52154  -0.51503  -0.50949
 Alpha  occ. eigenvalues --   -0.50771  -0.50520  -0.50286  -0.49974  -0.49786
 Alpha  occ. eigenvalues --   -0.49647  -0.49331  -0.49070  -0.48742  -0.48266
 Alpha  occ. eigenvalues --   -0.48099  -0.47512  -0.47390  -0.47238  -0.47138
 Alpha  occ. eigenvalues --   -0.46915  -0.46831  -0.46182  -0.46086  -0.45845
 Alpha  occ. eigenvalues --   -0.45816  -0.45700  -0.45615  -0.45604  -0.45519
 Alpha  occ. eigenvalues --   -0.45485  -0.44851  -0.44831  -0.44483  -0.44141
 Alpha  occ. eigenvalues --   -0.44025  -0.43561  -0.43373  -0.43251  -0.43110
 Alpha  occ. eigenvalues --   -0.43037  -0.42891  -0.42485  -0.42346  -0.42223
 Alpha  occ. eigenvalues --   -0.42080  -0.41863  -0.41503  -0.41411  -0.41214
 Alpha  occ. eigenvalues --   -0.41126  -0.40961  -0.40392  -0.39987  -0.39908
 Alpha  occ. eigenvalues --   -0.39888  -0.39796  -0.39647  -0.39378  -0.39323
 Alpha  occ. eigenvalues --   -0.39040  -0.38766  -0.38449  -0.38075  -0.37797
 Alpha  occ. eigenvalues --   -0.36929  -0.36449  -0.36338  -0.36119  -0.35973
 Alpha  occ. eigenvalues --   -0.35823  -0.35720  -0.35484  -0.35384  -0.35346
 Alpha  occ. eigenvalues --   -0.35060  -0.34678  -0.34468  -0.33744  -0.33602
 Alpha  occ. eigenvalues --   -0.33352  -0.33307  -0.33202  -0.32714  -0.32020
 Alpha  occ. eigenvalues --   -0.31988  -0.31198  -0.30337  -0.29802  -0.29731
 Alpha  occ. eigenvalues --   -0.29343  -0.29306  -0.29015  -0.28536  -0.27210
 Alpha  occ. eigenvalues --   -0.26008  -0.25312  -0.24322  -0.22966  -0.21760
 Alpha  occ. eigenvalues --   -0.21312
 Alpha virt. eigenvalues --   -0.12574  -0.11241  -0.08865  -0.07256  -0.07081
 Alpha virt. eigenvalues --   -0.05582  -0.04945  -0.04677  -0.04477  -0.03460
 Alpha virt. eigenvalues --   -0.03338  -0.02192  -0.02100  -0.02002  -0.01412

 Mulliken charges:
               1
     1  N   -0.754711
     2  H    0.409102
     3  H    0.424400
     4  H    0.424216
     5  C   -0.133048
     6  H    0.217299
     7  C    0.620409
     8  C   -0.077783
     9  H    0.193311
    10  H    0.211342
    11  O   -0.510773
    12  O   -0.660609
    13  H    0.463234
    14  N   -0.567239
    15  H    0.352251
    16  C   -0.073711
    17  H    0.191926
    18  C    0.634492
    19  C   -0.465649
    20  H    0.195703
    21  H    0.184324
    22  H    0.173997
    23  O   -0.558724
    24  N   -0.582224
    25  H    0.355436
    26  C   -0.095492
    27  H    0.178450
    28  C    0.662330
    29  C    0.109223
    30  H    0.180854
    31  O   -0.516500
    32  C   -0.483297
    33  H    0.226918
    34  H    0.158128
    35  H    0.149671
    36  O   -0.671488
    37  H    0.418707
    38  N   -0.624523
    39  H    0.357339
    40  C   -0.040457
    41  H    0.211548
    42  C    0.615148
    43  C   -0.096421
    44  H    0.129121
    45  O   -0.575203
    46  C   -0.504101
    47  H    0.197540
    48  H    0.154446
    49  H    0.132402
    50  C   -0.468963
    51  H    0.198480
    52  H    0.113856
    53  H    0.132348
    54  N   -0.664144
    55  H    0.426310
    56  C   -0.060831
    57  H    0.172281
    58  C    0.595731
    59  C   -0.059333
    60  H    0.130287
    61  O   -0.523870
    62  C   -0.256347
    63  H    0.165796
    64  H    0.114122
    65  C   -0.487912
    66  H    0.169635
    67  H    0.180658
    68  H    0.114182
    69  C   -0.454854
    70  H    0.134512
    71  H    0.143409
    72  H    0.143183
    73  N   -0.569279
    74  H    0.343195
    75  C   -0.055435
    76  H    0.177608
    77  C    0.642035
    78  C   -0.413995
    79  H    0.169587
    80  H    0.139989
    81  O   -0.547219
    82  C    0.597476
    83  O   -0.581030
    84  O   -0.604661
    85  N   -0.603985
    86  H    0.342851
    87  C   -0.051560
    88  H    0.185064
    89  C    0.584099
    90  C   -0.360304
    91  H    0.210813
    92  H    0.186895
    93  O   -0.546357
    94  C    0.346588
    95  C   -0.019098
    96  H    0.214484
    97  N   -0.624167
    98  H    0.481131
    99  C    0.302400
   100  H    0.248107
   101  N   -0.551931
   102  N   -0.601625
   103  H    0.379685
   104  C   -0.056450
   105  H    0.195932
   106  C    0.665932
   107  C   -0.303757
   108  H    0.147799
   109  H    0.148821
   110  O   -0.615503
   111  C   -0.088312
   112  H    0.150897
   113  C   -0.450976
   114  H    0.134833
   115  H    0.170024
   116  H    0.140041
   117  C   -0.476298
   118  H    0.119300
   119  H    0.209634
   120  H    0.140087
   121  N   -0.608228
   122  H    0.366438
   123  C   -0.033342
   124  H    0.165307
   125  C    0.604494
   126  C   -0.269091
   127  H    0.146894
   128  H    0.163629
   129  O   -0.622764
   130  C   -0.298972
   131  H    0.153712
   132  H    0.149027
   133  C   -0.151565
   134  H    0.218614
   135  H    0.168039
   136  N   -0.582347
   137  H    0.338583
   138  N   -0.753456
   139  H    0.336592
   140  H    0.433160
   141  N   -0.758616
   142  H    0.366084
   143  H    0.350247
   144  C    0.774533
   145  O   -0.595043
   146  H    0.384855
 Sum of Mulliken charges =   1.00000

 Dipole moment (field-independent basis, Debye):
    X=             10.3814    Y=              0.2165    Z=            -14.6467  Tot=             17.9540
 Quadrupole moment (field-independent basis, Debye-Ang):
   XX=             28.6115   YY=           -382.6232   ZZ=             31.0944
   XY=            143.8346   XZ=            309.9137   YZ=             75.8705

 Normal termination of Gaussian 16 at Sun Jun 12 09:16:30 2022.
