 Gaussian 16, Revision C.01,
 Gaussian 16:  ES64L-G16RevC.01  3-Jul-2019

 ----------------------------------------------------------------------
 # B3LYP/6-31G* empiricaldispersion=gd3 guess=read geom=check nosymm in
 tegral(ultrafinegrid)
 ----------------------------------------------------------------------

 ------------------------------------------------------
 Candidate Structure: Conf:123 Charge calc in gas phase
 ------------------------------------------------------
 Structure from the checkpoint file:  "conf-123.chk"
 Charge =  1 Multiplicity = 1

                          Input orientation:
 ---------------------------------------------------------------------
 Center     Atomic      Atomic             Coordinates (Angstroms)
 Number     Number       Type             X           Y           Z
 ---------------------------------------------------------------------
      1          7           0       -5.063417   -3.051223    0.916511
      2          1           0       -5.051964   -3.521054    1.823812
      3          1           0       -4.383122   -3.477820    0.250494
      4          1           0       -4.814392   -2.041827    1.021527
      5          6           0       -6.396184   -3.043668    0.224261
      6          1           0       -7.000680   -3.881148    0.584123
      7          6           0       -6.034933   -3.256379   -1.266725
      8          6           0       -7.046730   -1.669548    0.562319
      9          1           0       -7.505557   -1.731092    1.555594
     10          1           0       -7.843257   -1.441904   -0.155841
     11          8           0       -4.870472   -3.547948   -1.553154
     12          8           0       -6.048089   -0.683592    0.593151
     13          1           0       -5.999829   -0.229285   -0.294278
     14          7           0       -7.025804   -3.124776   -2.162432
     15          1           0       -7.929015   -2.778703   -1.862840
     16          6           0       -6.750971   -3.047635   -3.616817
     17          1           0       -5.977822   -3.789969   -3.828568
     18          6           0       -6.220374   -1.614963   -3.838878
     19          6           0       -8.017370   -3.324455   -4.412666
     20          1           0       -7.788653   -3.314148   -5.481818
     21          1           0       -8.762116   -2.544045   -4.229643
     22          1           0       -8.429995   -4.303870   -4.154159
     23          8           0       -7.001001   -0.675261   -4.032659
     24          7           0       -4.894882   -1.477531   -3.669043
     25          1           0       -4.312788   -2.269012   -3.401542
     26          6           0       -4.213126   -0.196211   -3.614016
     27          1           0       -4.550526    0.425977   -4.450585
     28          6           0       -2.714178   -0.531098   -3.694064
     29          6           0       -4.467267    0.563637   -2.264671
     30          1           0       -3.848353    0.100303   -1.489543
     31          8           0       -2.322098   -1.632860   -3.308356
     32          6           0       -4.137220    2.050036   -2.343007
     33          1           0       -3.055880    2.199641   -2.384119
     34          1           0       -4.626912    2.524254   -3.202679
     35          1           0       -4.499612    2.537930   -1.433959
     36          8           0       -5.821839    0.369158   -1.820832
     37          1           0       -6.431687    0.390884   -2.588721
     38          7           0       -1.875711    0.444072   -4.109585
     39          1           0       -2.264075    1.364380   -4.269818
     40          6           0       -0.470702    0.385112   -3.687339
     41          1           0       -0.007858   -0.481854   -4.171361
     42          6           0       -0.468463    0.209128   -2.153507
     43          6           0        0.275708    1.670218   -4.100860
     44          1           0       -0.262042    2.511387   -3.638340
     45          8           0       -1.186018    0.920065   -1.445001
     46          6           0        1.710031    1.667581   -3.550615
     47          1           0        2.271042    0.797570   -3.914285
     48          1           0        1.731579    1.652502   -2.457023
     49          1           0        2.240853    2.566414   -3.879444
     50          6           0        0.276633    1.843388   -5.626826
     51          1           0        0.824375    1.023403   -6.107020
     52          1           0       -0.733582    1.858973   -6.050281
     53          1           0        0.769224    2.781570   -5.902518
     54          7           0        0.345472   -0.749363   -1.680237
     55          1           0        0.937384   -1.293414   -2.299160
     56          6           0        0.534632   -1.026832   -0.267510
     57          1           0        0.379005   -0.089924    0.277706
     58          6           0        1.994846   -1.496737   -0.123295
     59          6           0       -0.454535   -2.094575    0.287855
     60          1           0       -0.130325   -2.283956    1.322425
     61          8           0        2.550602   -2.094619   -1.047414
     62          6           0       -0.371936   -3.415866   -0.501191
     63          1           0        0.661713   -3.777262   -0.493833
     64          1           0       -0.625179   -3.210148   -1.548748
     65          6           0       -1.894636   -1.551489    0.331045
     66          1           0       -2.344503   -1.580960   -0.667705
     67          1           0       -1.932163   -0.519379    0.689124
     68          1           0       -2.494515   -2.172113    1.010336
     69          6           0       -1.297491   -4.516346    0.030298
     70          1           0       -1.089683   -5.471052   -0.463782
     71          1           0       -1.171171   -4.665296    1.110730
     72          1           0       -2.352435   -4.283508   -0.167385
     73          7           0        2.565294   -1.225106    1.064375
     74          1           0        2.084594   -0.657126    1.756030
     75          6           0        3.971005   -1.458296    1.370162
     76          1           0        4.221556   -2.516306    1.252826
     77          6           0        4.155901   -1.016219    2.833214
     78          6           0        4.905333   -0.641823    0.432134
     79          1           0        4.716947   -1.003169   -0.583571
     80          1           0        4.637979    0.416173    0.470537
     81          8           0        3.279664   -0.357070    3.415255
     82          6           0        6.405295   -0.822382    0.757915
     83          8           0        7.140671    0.187804    0.742944
     84          8           0        6.744883   -2.013610    1.074957
     85          7           0        5.355439   -1.316569    3.379759
     86          1           0        6.017759   -1.762105    2.723472
     87          6           0        5.910349   -0.564888    4.512077
     88          1           0        5.150392   -0.519848    5.299290
     89          6           0        6.251521    0.883768    4.064461
     90          6           0        7.173328   -1.275365    5.063773
     91          1           0        6.863041   -2.145365    5.649187
     92          1           0        7.688173   -0.579928    5.733516
     93          8           0        7.428879    1.258573    3.945019
     94          6           0        8.098015   -1.756250    3.984003
     95          6           0        8.473825   -3.022525    3.636162
     96          1           0        8.294888   -3.969219    4.119415
     97          7           0        8.604827   -0.925774    2.996050
     98          1           0        8.344971    0.065677    2.926390
     99          6           0        9.170863   -1.647131    2.041361
    100          1           0        9.537573   -1.260683    1.106187
    101          7           0        9.184957   -2.920901    2.449809
    102          7           0        5.211061    1.673309    3.758558
    103          1           0        4.278245    1.277650    3.849740
    104          6           0        5.381233    2.824598    2.851692
    105          1           0        6.268993    2.594099    2.255547
    106          6           0        5.641129    4.125846    3.641695
    107          6           0        4.151563    2.931683    1.948274
    108          1           0        3.895890    1.916597    1.621524
    109          1           0        3.309046    3.306836    2.541234
    110          8           0        4.846673    5.068000    3.628230
    111          6           0        4.326489    3.820306    0.700378
    112          1           0        4.340134    4.862625    1.040274
    113          6           0        5.635905    3.534647   -0.056335
    114          1           0        5.805434    2.460243   -0.201277
    115          1           0        5.624282    4.017933   -1.040405
    116          1           0        6.506628    3.925031    0.482367
    117          6           0        3.111523    3.623116   -0.219401
    118          1           0        3.086626    2.595603   -0.609186
    119          1           0        3.149862    4.302959   -1.078502
    120          1           0        2.169118    3.803384    0.312541
    121          7           0        6.800136    4.136115    4.333710
    122          1           0        7.445512    3.348852    4.289093
    123          6           0        7.213037    5.295099    5.102356
    124          1           0        7.152323    6.178762    4.455356
    125          6           0        8.691706    5.098586    5.479182
    126          6           0        6.303749    5.552545    6.353058
    127          1           0        6.902049    5.519434    7.272864
    128          1           0        5.602910    4.715239    6.408720
    129          8           0        9.293744    4.070112    5.245177
    130          6           0        5.507138    6.867914    6.290685
    131          1           0        5.144869    6.999833    5.265809
    132          1           0        4.618873    6.783501    6.930230
    133          6           0        6.286929    8.111585    6.751563
    134          1           0        5.657680    8.998391    6.567082
    135          1           0        6.438583    8.058050    7.839910
    136          7           0        7.589850    8.188777    6.114255
    137          1           0        8.588263    6.911494    6.176577
    138          7           0        7.576138   10.548739    5.712565
    139          1           0        7.703321   11.140001    4.900693
    140          1           0        6.663078   10.638811    6.135256
    141          7           0        9.244836    9.195454    4.850432
    142          1           0        9.901895    9.951531    5.004955
    143          1           0        9.686496    8.282399    4.879810
    144          6           0        8.080592    9.266068    5.601175
    145          8           0        9.260687    6.141039    6.083035
    146          1           0        9.472177   -3.696480    1.870180
 ---------------------------------------------------------------------

 SCF Done:  E(RB3LYP) =  -3503.59304118     A.U. after    2 cycles

 Alpha  occ. eigenvalues --  -19.27182 -19.26923 -19.25563 -19.22094 -19.21299
 Alpha  occ. eigenvalues --  -19.18808 -19.18756 -19.18340 -19.18336 -19.17490
 Alpha  occ. eigenvalues --  -19.14789 -19.14241 -19.11444 -19.11391 -14.58197
 Alpha  occ. eigenvalues --  -14.50517 -14.49097 -14.46636 -14.45937 -14.45025
 Alpha  occ. eigenvalues --  -14.42662 -14.41668 -14.41544 -14.41251 -14.40485
 Alpha  occ. eigenvalues --  -14.39211 -14.37741 -14.35606 -10.43900 -10.40187
 Alpha  occ. eigenvalues --  -10.39252 -10.38307 -10.38220 -10.35863 -10.35469
 Alpha  occ. eigenvalues --  -10.35251 -10.35000 -10.34947 -10.34637 -10.34394
 Alpha  occ. eigenvalues --  -10.33956 -10.33269 -10.33170 -10.31461 -10.31161
 Alpha  occ. eigenvalues --  -10.31136 -10.30902 -10.30789 -10.29731 -10.29711
 Alpha  occ. eigenvalues --  -10.28554 -10.28158 -10.27967 -10.27003 -10.26666
 Alpha  occ. eigenvalues --  -10.26588 -10.25964 -10.25522 -10.25493 -10.25330
 Alpha  occ. eigenvalues --  -10.25036 -10.24311 -10.24309 -10.23822 -10.22021
 Alpha  occ. eigenvalues --  -10.21848 -10.21827 -10.21666 -10.21384 -10.20930
 Alpha  occ. eigenvalues --  -10.19610  -1.19433  -1.15795  -1.14661  -1.13298
 Alpha  occ. eigenvalues --   -1.13288  -1.12191  -1.11615  -1.10729  -1.10400
 Alpha  occ. eigenvalues --   -1.10296  -1.09759  -1.09099  -1.06648  -1.05887
 Alpha  occ. eigenvalues --   -1.04599  -1.03250  -1.02522  -1.02286  -1.01468
 Alpha  occ. eigenvalues --   -0.99937  -0.99309  -0.99031  -0.98193  -0.97626
 Alpha  occ. eigenvalues --   -0.95587  -0.94575  -0.92605  -0.92001  -0.91803
 Alpha  occ. eigenvalues --   -0.88984  -0.88120  -0.87930  -0.87476  -0.86249
 Alpha  occ. eigenvalues --   -0.84726  -0.83677  -0.82303  -0.81994  -0.80957
 Alpha  occ. eigenvalues --   -0.80182  -0.79681  -0.78935  -0.78701  -0.76540
 Alpha  occ. eigenvalues --   -0.76330  -0.75211  -0.74815  -0.74769  -0.74048
 Alpha  occ. eigenvalues --   -0.73573  -0.73073  -0.71759  -0.71417  -0.71176
 Alpha  occ. eigenvalues --   -0.70948  -0.70836  -0.70515  -0.69226  -0.68934
 Alpha  occ. eigenvalues --   -0.68162  -0.67824  -0.66819  -0.66132  -0.65742
 Alpha  occ. eigenvalues --   -0.65454  -0.65016  -0.64860  -0.63987  -0.63541
 Alpha  occ. eigenvalues --   -0.62865  -0.62703  -0.62505  -0.62405  -0.62014
 Alpha  occ. eigenvalues --   -0.61609  -0.61183  -0.60999  -0.60321  -0.59796
 Alpha  occ. eigenvalues --   -0.59584  -0.59347  -0.59056  -0.58831  -0.58431
 Alpha  occ. eigenvalues --   -0.58135  -0.57963  -0.57310  -0.57168  -0.56315
 Alpha  occ. eigenvalues --   -0.55478  -0.55286  -0.55183  -0.54775  -0.54448
 Alpha  occ. eigenvalues --   -0.54303  -0.54169  -0.53659  -0.53585  -0.53514
 Alpha  occ. eigenvalues --   -0.53136  -0.52832  -0.52691  -0.52646  -0.52161
 Alpha  occ. eigenvalues --   -0.52121  -0.52080  -0.51852  -0.51833  -0.51100
 Alpha  occ. eigenvalues --   -0.50944  -0.50320  -0.50176  -0.49947  -0.49848
 Alpha  occ. eigenvalues --   -0.49595  -0.49242  -0.49036  -0.48984  -0.48766
 Alpha  occ. eigenvalues --   -0.48620  -0.48574  -0.48299  -0.48150  -0.47879
 Alpha  occ. eigenvalues --   -0.47619  -0.47337  -0.47110  -0.46806  -0.46740
 Alpha  occ. eigenvalues --   -0.46721  -0.46427  -0.46278  -0.46095  -0.45949
 Alpha  occ. eigenvalues --   -0.45786  -0.45716  -0.45386  -0.45194  -0.45087
 Alpha  occ. eigenvalues --   -0.44893  -0.44749  -0.44457  -0.44264  -0.44061
 Alpha  occ. eigenvalues --   -0.43856  -0.43819  -0.43620  -0.43451  -0.42991
 Alpha  occ. eigenvalues --   -0.42824  -0.42761  -0.42437  -0.42364  -0.42032
 Alpha  occ. eigenvalues --   -0.41313  -0.41053  -0.40862  -0.40779  -0.40668
 Alpha  occ. eigenvalues --   -0.40443  -0.40331  -0.40118  -0.40046  -0.39738
 Alpha  occ. eigenvalues --   -0.39546  -0.39440  -0.39152  -0.39002  -0.38708
 Alpha  occ. eigenvalues --   -0.38484  -0.38060  -0.37865  -0.37644  -0.36693
 Alpha  occ. eigenvalues --   -0.36584  -0.36151  -0.35505  -0.35491  -0.35052
 Alpha  occ. eigenvalues --   -0.34978  -0.34660  -0.34481  -0.32976  -0.32862
 Alpha  occ. eigenvalues --   -0.32689  -0.32399  -0.32222  -0.32135  -0.31956
 Alpha  occ. eigenvalues --   -0.31457  -0.30763  -0.30614  -0.30223  -0.28649
 Alpha  occ. eigenvalues --   -0.28038  -0.27676  -0.27551  -0.27183  -0.25785
 Alpha  occ. eigenvalues --   -0.25366
 Alpha virt. eigenvalues --   -0.13281  -0.09138  -0.08785  -0.07728  -0.07248
 Alpha virt. eigenvalues --   -0.06070  -0.05636  -0.04893  -0.04749  -0.04424
 Alpha virt. eigenvalues --   -0.03710  -0.02975  -0.01504  -0.01336  -0.00914

 Mulliken charges:
               1
     1  N   -0.781925
     2  H    0.409011
     3  H    0.458808
     4  H    0.435900
     5  C   -0.130079
     6  H    0.224088
     7  C    0.651203
     8  C   -0.059475
     9  H    0.188863
    10  H    0.172608
    11  O   -0.525913
    12  O   -0.656150
    13  H    0.483219
    14  N   -0.592172
    15  H    0.351863
    16  C   -0.066534
    17  H    0.198932
    18  C    0.630757
    19  C   -0.472276
    20  H    0.192708
    21  H    0.184256
    22  H    0.171579
    23  O   -0.558540
    24  N   -0.603401
    25  H    0.386688
    26  C   -0.093195
    27  H    0.183191
    28  C    0.629157
    29  C    0.143928
    30  H    0.171916
    31  O   -0.530646
    32  C   -0.486227
    33  H    0.191801
    34  H    0.148014
    35  H    0.177465
    36  O   -0.699307
    37  H    0.440640
    38  N   -0.602192
    39  H    0.341798
    40  C   -0.017046
    41  H    0.167204
    42  C    0.636465
    43  C   -0.119333
    44  H    0.147218
    45  O   -0.566344
    46  C   -0.469716
    47  H    0.154179
    48  H    0.174612
    49  H    0.165343
    50  C   -0.448631
    51  H    0.157140
    52  H    0.142657
    53  H    0.164823
    54  N   -0.591401
    55  H    0.358207
    56  C   -0.065816
    57  H    0.170032
    58  C    0.636801
    59  C   -0.064302
    60  H    0.132108
    61  O   -0.547719
    62  C   -0.277893
    63  H    0.170917
    64  H    0.167837
    65  C   -0.484752
    66  H    0.178601
    67  H    0.177222
    68  H    0.081482
    69  C   -0.466439
    70  H    0.165371
    71  H    0.138724
    72  H    0.121092
    73  N   -0.635718
    74  H    0.354756
    75  C   -0.034980
    76  H    0.193931
    77  C    0.603955
    78  C   -0.371499
    79  H    0.194446
    80  H    0.165323
    81  O   -0.575132
    82  C    0.567234
    83  O   -0.590632
    84  O   -0.630617
    85  N   -0.636490
    86  H    0.408169
    87  C   -0.077829
    88  H    0.189972
    89  C    0.642270
    90  C   -0.347617
    91  H    0.172187
    92  H    0.208327
    93  O   -0.570485
    94  C    0.274398
    95  C    0.006580
    96  H    0.195610
    97  N   -0.553763
    98  H    0.428036
    99  C    0.359107
   100  H    0.245096
   101  N   -0.536165
   102  N   -0.610525
   103  H    0.379721
   104  C   -0.079302
   105  H    0.209292
   106  C    0.634651
   107  C   -0.293513
   108  H    0.128790
   109  H    0.152322
   110  O   -0.543084
   111  C   -0.070003
   112  H    0.156574
   113  C   -0.478047
   114  H    0.179792
   115  H    0.134003
   116  H    0.148283
   117  C   -0.456012
   118  H    0.134267
   119  H    0.140098
   120  H    0.138876
   121  N   -0.648307
   122  H    0.390211
   123  C   -0.029858
   124  H    0.180887
   125  C    0.577265
   126  C   -0.285222
   127  H    0.150289
   128  H    0.159806
   129  O   -0.475419
   130  C   -0.269571
   131  H    0.179686
   132  H    0.131273
   133  C   -0.146380
   134  H    0.108532
   135  H    0.151207
   136  N   -0.561843
   137  H    0.461160
   138  N   -0.757041
   139  H    0.342925
   140  H    0.345398
   141  N   -0.760659
   142  H    0.335155
   143  H    0.350499
   144  C    0.671225
   145  O   -0.632647
   146  H    0.377772
 Sum of Mulliken charges =   1.00000

 Dipole moment (field-independent basis, Debye):
    X=            -13.6240    Y=             -8.5189    Z=              3.2138  Tot=             16.3864
 Quadrupole moment (field-independent basis, Debye-Ang):
   XX=           -181.7583   YY=           -263.4843   ZZ=           -353.9026
   XY=             69.8822   XZ=             47.5416   YZ=              2.0792

 Normal termination of Gaussian 16 at Sun Jun 12 09:17:14 2022.
