 Gaussian 16, Revision C.01,
 Gaussian 16:  ES64L-G16RevC.01  3-Jul-2019

 ----------------------------------------------------------------------
 # B3LYP/6-31G* empiricaldispersion=gd3 guess=read geom=check nosymm in
 tegral(ultrafinegrid)
 ----------------------------------------------------------------------

 ------------------------------------------------------
 Candidate Structure: Conf:727 Charge calc in gas phase
 ------------------------------------------------------
 Structure from the checkpoint file:  "conf-727.chk"
 Charge =  1 Multiplicity = 1

                          Input orientation:
 ---------------------------------------------------------------------
 Center     Atomic      Atomic             Coordinates (Angstroms)
 Number     Number       Type             X           Y           Z
 ---------------------------------------------------------------------
      1          7           0       -9.749935   -2.589589   -4.928297
      2          1           0       -9.714817   -3.493267   -4.436106
      3          1           0       -8.919608   -2.039323   -4.602802
      4          1           0      -10.610476   -2.079289   -4.713332
      5          6           0       -9.561915   -2.831388   -6.405859
      6          1           0      -10.496638   -3.227027   -6.816867
      7          6           0       -8.452108   -3.914440   -6.449580
      8          6           0       -9.204101   -1.451507   -7.021119
      9          1           0      -10.119002   -0.849262   -7.067767
     10          1           0       -8.859459   -1.578814   -8.055796
     11          8           0       -8.259043   -4.590306   -5.434899
     12          8           0       -8.289681   -0.775092   -6.205207
     13          1           0       -7.376943   -1.090688   -6.407558
     14          7           0       -7.699832   -4.023096   -7.565508
     15          1           0       -7.843371   -3.319414   -8.280158
     16          6           0       -6.265928   -4.366915   -7.390133
     17          1           0       -6.215875   -5.297535   -6.821844
     18          6           0       -5.714871   -3.171502   -6.578007
     19          6           0       -5.581685   -4.502699   -8.745957
     20          1           0       -4.531555   -4.776035   -8.607654
     21          1           0       -5.613570   -3.551082   -9.287366
     22          1           0       -6.066553   -5.278589   -9.344978
     23          8           0       -5.994578   -2.025552   -6.964288
     24          7           0       -5.058782   -3.430971   -5.439676
     25          1           0       -4.741773   -4.364843   -5.191219
     26          6           0       -4.714307   -2.383002   -4.490607
     27          1           0       -4.632605   -1.444496   -5.043411
     28          6           0       -3.397526   -2.797814   -3.819362
     29          6           0       -5.822841   -2.251403   -3.379236
     30          1           0       -5.600104   -2.996753   -2.603020
     31          8           0       -3.154319   -3.993873   -3.658629
     32          6           0       -5.867356   -0.858037   -2.774761
     33          1           0       -4.911771   -0.587656   -2.314693
     34          1           0       -6.112517   -0.120818   -3.547854
     35          1           0       -6.639171   -0.816341   -2.000716
     36          8           0       -7.124547   -2.539397   -3.912158
     37          1           0       -7.139555   -3.476487   -4.173503
     38          7           0       -2.622526   -1.780596   -3.400548
     39          1           0       -2.978343   -0.830352   -3.448124
     40          6           0       -1.546251   -1.937564   -2.431516
     41          1           0       -1.664890   -2.919591   -1.961045
     42          6           0       -1.753454   -0.820434   -1.388540
     43          6           0       -0.136169   -1.858197   -3.080620
     44          1           0        0.589969   -2.000818   -2.268059
     45          8           0       -2.550901    0.099635   -1.602074
     46          6           0        0.050274   -2.992202   -4.096049
     47          1           0       -0.635426   -2.871365   -4.942138
     48          1           0       -0.144882   -3.972357   -3.648749
     49          1           0        1.072738   -2.985922   -4.488411
     50          6           0        0.124214   -0.484837   -3.713640
     51          1           0       -0.593905   -0.283746   -4.517617
     52          1           0        0.050951    0.326653   -2.981497
     53          1           0        1.128096   -0.452008   -4.148601
     54          7           0       -0.992267   -0.923283   -0.282467
     55          1           0       -0.251054   -1.617032   -0.253118
     56          6           0       -0.781867    0.175911    0.657229
     57          1           0       -1.319025    1.043833    0.266111
     58          6           0        0.738247    0.419157    0.654983
     59          6           0       -1.291620   -0.166412    2.082823
     60          1           0       -0.673976   -1.005212    2.435296
     61          8           0        1.516422   -0.529654    0.546181
     62          6           0       -2.757656   -0.650609    2.071026
     63          1           0       -3.003190   -0.969987    3.092663
     64          1           0       -2.828128   -1.548217    1.444207
     65          6           0       -1.074576    1.016409    3.041284
     66          1           0       -1.564095    1.926013    2.669172
     67          1           0       -0.013627    1.235754    3.191469
     68          1           0       -1.513071    0.791372    4.019871
     69          6           0       -3.794878    0.376097    1.596578
     70          1           0       -4.803206   -0.049560    1.659738
     71          1           0       -3.785222    1.279978    2.215565
     72          1           0       -3.623932    0.667396    0.555272
     73          7           0        1.144162    1.705907    0.746811
     74          1           0        0.465354    2.409493    1.004698
     75          6           0        2.548386    2.041022    0.907765
     76          1           0        3.120015    1.528827    0.130564
     77          6           0        3.070137    1.629306    2.294682
     78          6           0        2.762961    3.567959    0.764090
     79          1           0        2.508690    3.855397   -0.261674
     80          1           0        2.113142    4.101352    1.466264
     81          8           0        2.358662    1.626016    3.293382
     82          6           0        4.249519    3.907838    1.059363
     83          8           0        5.095130    3.330907    0.332844
     84          8           0        4.465700    4.626805    2.081689
     85          7           0        4.433513    1.420012    2.348966
     86          1           0        4.900788    1.693594    1.479078
     87          6           0        5.107129    1.980250    3.523626
     88          1           0        4.611637    2.926805    3.769337
     89          6           0        6.574077    2.287176    3.187716
     90          6           0        5.025639    1.056163    4.764399
     91          1           0        5.436398    0.070904    4.537305
     92          1           0        3.969249    0.935596    5.019054
     93          8           0        7.428354    1.364095    3.222299
     94          6           0        5.817184    1.667674    5.870665
     95          6           0        7.040511    1.353677    6.385427
     96          1           0        7.692304    0.523936    6.171044
     97          7           0        5.500627    2.911720    6.412516
     98          1           0        4.674754    3.450165    6.181308
     99          6           0        6.497963    3.345094    7.186907
    100          1           0        6.558296    4.302777    7.677374
    101          7           0        7.418592    2.384964    7.222432
    102          7           0        6.853303    3.554435    2.940367
    103          1           0        6.048462    4.168197    2.677056
    104          6           0        8.229529    4.009301    2.775656
    105          1           0        8.694124    3.441177    1.962469
    106          6           0        9.002819    3.710563    4.079886
    107          6           0        8.283972    5.512079    2.461044
    108          1           0        7.889587    6.059751    3.327908
    109          1           0        9.346764    5.777000    2.380566
    110          8           0        8.426708    3.697238    5.182830
    111          6           0        7.551994    5.964640    1.179799
    112          1           0        6.472907    5.842670    1.333706
    113          6           0        7.833391    7.456089    0.946309
    114          1           0        8.898882    7.628842    0.745015
    115          1           0        7.265950    7.829290    0.086097
    116          1           0        7.555869    8.060025    1.819324
    117          6           0        7.943272    5.123257   -0.042299
    118          1           0        9.034521    5.078797   -0.163142
    119          1           0        7.523280    5.560942   -0.955016
    120          1           0        7.540513    4.109120    0.033919
    121          7           0       10.302429    3.466093    3.922680
    122          1           0       10.842765    3.627272    3.058084
    123          6           0       11.228670    3.155222    5.000051
    124          1           0       11.088396    3.847739    5.835946
    125          6           0       12.692072    3.286606    4.405854
    126          6           0       11.027852    1.703514    5.471505
    127          1           0        9.960523    1.539715    5.688835
    128          1           0       11.593833    1.556665    6.396597
    129          8           0       13.594309    3.012776    5.216044
    130          6           0       11.536706    0.717791    4.401991
    131          1           0       11.438679    1.161945    3.404138
    132          1           0       12.610339    0.574829    4.551489
    133          6           0       10.851136   -0.642098    4.395197
    134          1           0       11.381499   -1.311667    3.704469
    135          1           0       10.859270   -1.098131    5.395188
    136          7           0        9.451059   -0.509892    3.942742
    137          1           0        9.092833    0.422884    3.717290
    138          7           0        9.125413   -2.801892    3.723045
    139          1           0        8.483296   -3.578664    3.685026
    140          1           0       10.054502   -2.989687    4.066692
    141          7           0        7.393193   -1.323749    3.244873
    142          1           0        6.922656   -2.034672    2.702393
    143          1           0        7.132266   -0.333996    3.083060
    144          6           0        8.666139   -1.535115    3.628946
    145          8           0       12.722160    3.560031    3.175145
    146          1           0        8.376272    2.556647    7.506546
 ---------------------------------------------------------------------

 SCF Done:  E(RB3LYP) =  -3503.53492366     A.U. after    2 cycles

 Alpha  occ. eigenvalues --  -19.27956 -19.26916 -19.26710 -19.24119 -19.21001
 Alpha  occ. eigenvalues --  -19.19698 -19.18702 -19.17749 -19.17723 -19.13814
 Alpha  occ. eigenvalues --  -19.11768 -19.10763 -19.05433 -19.04303 -14.59310
 Alpha  occ. eigenvalues --  -14.51820 -14.51264 -14.50570 -14.48476 -14.47618
 Alpha  occ. eigenvalues --  -14.45832 -14.44979 -14.44784 -14.43214 -14.42025
 Alpha  occ. eigenvalues --  -14.40302 -14.39874 -14.36163 -10.44924 -10.42698
 Alpha  occ. eigenvalues --  -10.41346 -10.40867 -10.38862 -10.38477 -10.38231
 Alpha  occ. eigenvalues --  -10.36534 -10.36422 -10.35055 -10.34644 -10.34496
 Alpha  occ. eigenvalues --  -10.33861 -10.33666 -10.33641 -10.32846 -10.30965
 Alpha  occ. eigenvalues --  -10.30587 -10.30018 -10.29714 -10.29686 -10.29622
 Alpha  occ. eigenvalues --  -10.29354 -10.28184 -10.27736 -10.26763 -10.26713
 Alpha  occ. eigenvalues --  -10.25892 -10.25136 -10.23834 -10.23729 -10.23515
 Alpha  occ. eigenvalues --  -10.23389 -10.22337 -10.22335 -10.22256 -10.22218
 Alpha  occ. eigenvalues --  -10.21251 -10.21202 -10.20902 -10.19761 -10.18495
 Alpha  occ. eigenvalues --  -10.17610  -1.20394  -1.16306  -1.16209  -1.15681
 Alpha  occ. eigenvalues --   -1.13857  -1.12920  -1.12692  -1.11377  -1.11363
 Alpha  occ. eigenvalues --   -1.09924  -1.09491  -1.08842  -1.07156  -1.05121
 Alpha  occ. eigenvalues --   -1.04563  -1.04356  -1.03042  -1.01536  -1.00450
 Alpha  occ. eigenvalues --   -0.99887  -0.99318  -0.98531  -0.98385  -0.97835
 Alpha  occ. eigenvalues --   -0.96863  -0.95530  -0.92967  -0.92372  -0.90097
 Alpha  occ. eigenvalues --   -0.89785  -0.89617  -0.88347  -0.87253  -0.86336
 Alpha  occ. eigenvalues --   -0.84460  -0.84129  -0.82769  -0.81988  -0.81823
 Alpha  occ. eigenvalues --   -0.80311  -0.79870  -0.78539  -0.78124  -0.77983
 Alpha  occ. eigenvalues --   -0.76823  -0.76413  -0.75190  -0.74870  -0.74208
 Alpha  occ. eigenvalues --   -0.73916  -0.73520  -0.73384  -0.72163  -0.71777
 Alpha  occ. eigenvalues --   -0.70862  -0.70363  -0.70074  -0.69982  -0.69049
 Alpha  occ. eigenvalues --   -0.68975  -0.68475  -0.68139  -0.67366  -0.67145
 Alpha  occ. eigenvalues --   -0.66667  -0.66412  -0.65900  -0.65240  -0.64619
 Alpha  occ. eigenvalues --   -0.64176  -0.63997  -0.63472  -0.62832  -0.62530
 Alpha  occ. eigenvalues --   -0.62450  -0.62369  -0.62257  -0.61846  -0.60908
 Alpha  occ. eigenvalues --   -0.60530  -0.59840  -0.59747  -0.59256  -0.58794
 Alpha  occ. eigenvalues --   -0.58460  -0.58222  -0.57594  -0.57370  -0.57133
 Alpha  occ. eigenvalues --   -0.56680  -0.56049  -0.55943  -0.55705  -0.55601
 Alpha  occ. eigenvalues --   -0.55146  -0.55109  -0.54974  -0.54483  -0.54415
 Alpha  occ. eigenvalues --   -0.54268  -0.53892  -0.53860  -0.53486  -0.53386
 Alpha  occ. eigenvalues --   -0.53179  -0.53016  -0.52315  -0.52231  -0.51502
 Alpha  occ. eigenvalues --   -0.50805  -0.50598  -0.50427  -0.50186  -0.50120
 Alpha  occ. eigenvalues --   -0.49645  -0.49394  -0.49366  -0.49302  -0.49042
 Alpha  occ. eigenvalues --   -0.48927  -0.48881  -0.48294  -0.47792  -0.47670
 Alpha  occ. eigenvalues --   -0.47596  -0.47469  -0.47261  -0.47084  -0.46573
 Alpha  occ. eigenvalues --   -0.46501  -0.46054  -0.45913  -0.45711  -0.45604
 Alpha  occ. eigenvalues --   -0.45282  -0.45061  -0.45012  -0.44897  -0.44510
 Alpha  occ. eigenvalues --   -0.44389  -0.44221  -0.44038  -0.44024  -0.43522
 Alpha  occ. eigenvalues --   -0.43470  -0.43110  -0.43004  -0.42624  -0.42217
 Alpha  occ. eigenvalues --   -0.42131  -0.41763  -0.41592  -0.41540  -0.41258
 Alpha  occ. eigenvalues --   -0.41235  -0.40689  -0.40631  -0.40395  -0.40111
 Alpha  occ. eigenvalues --   -0.40060  -0.39759  -0.39501  -0.39343  -0.39195
 Alpha  occ. eigenvalues --   -0.38479  -0.38202  -0.38129  -0.38062  -0.37907
 Alpha  occ. eigenvalues --   -0.37775  -0.37572  -0.37408  -0.37139  -0.36851
 Alpha  occ. eigenvalues --   -0.36620  -0.35056  -0.34995  -0.34868  -0.34763
 Alpha  occ. eigenvalues --   -0.34547  -0.33886  -0.33717  -0.33607  -0.33375
 Alpha  occ. eigenvalues --   -0.33198  -0.33163  -0.32874  -0.32476  -0.31846
 Alpha  occ. eigenvalues --   -0.31111  -0.30754  -0.29922  -0.27950  -0.27035
 Alpha  occ. eigenvalues --   -0.27003  -0.26002  -0.24971  -0.20611  -0.20239
 Alpha  occ. eigenvalues --   -0.18731
 Alpha virt. eigenvalues --   -0.15337  -0.10912  -0.10861  -0.09355  -0.07351
 Alpha virt. eigenvalues --   -0.07253  -0.06816  -0.05619  -0.05250  -0.05221
 Alpha virt. eigenvalues --   -0.04547  -0.03699  -0.03355  -0.03044  -0.02612

 Mulliken charges:
               1
     1  N   -0.744600
     2  H    0.420062
     3  H    0.460178
     4  H    0.410416
     5  C   -0.152806
     6  H    0.229584
     7  C    0.642180
     8  C   -0.056499
     9  H    0.185140
    10  H    0.173988
    11  O   -0.532787
    12  O   -0.636740
    13  H    0.465858
    14  N   -0.562426
    15  H    0.351633
    16  C   -0.063098
    17  H    0.196988
    18  C    0.621652
    19  C   -0.476072
    20  H    0.191435
    21  H    0.181426
    22  H    0.190302
    23  O   -0.577059
    24  N   -0.604581
    25  H    0.366755
    26  C   -0.070561
    27  H    0.191150
    28  C    0.613149
    29  C    0.125490
    30  H    0.159164
    31  O   -0.537140
    32  C   -0.488632
    33  H    0.198613
    34  H    0.165388
    35  H    0.167990
    36  O   -0.684679
    37  H    0.429638
    38  N   -0.590090
    39  H    0.358968
    40  C   -0.080657
    41  H    0.185466
    42  C    0.627984
    43  C   -0.083265
    44  H    0.149058
    45  O   -0.549588
    46  C   -0.444747
    47  H    0.146084
    48  H    0.158321
    49  H    0.156128
    50  C   -0.462986
    51  H    0.144495
    52  H    0.163358
    53  H    0.164848
    54  N   -0.595870
    55  H    0.354865
    56  C   -0.078989
    57  H    0.176517
    58  C    0.636989
    59  C   -0.070188
    60  H    0.137376
    61  O   -0.554175
    62  C   -0.251724
    63  H    0.137505
    64  H    0.129848
    65  C   -0.505547
    66  H    0.135302
    67  H    0.204068
    68  H    0.150210
    69  C   -0.475177
    70  H    0.135989
    71  H    0.148363
    72  H    0.175979
    73  N   -0.596573
    74  H    0.340883
    75  C   -0.052452
    76  H    0.190330
    77  C    0.607747
    78  C   -0.342110
    79  H    0.165380
    80  H    0.147103
    81  O   -0.526533
    82  C    0.570544
    83  O   -0.581602
    84  O   -0.602790
    85  N   -0.626851
    86  H    0.375357
    87  C   -0.044347
    88  H    0.174024
    89  C    0.627735
    90  C   -0.354041
    91  H    0.171881
    92  H    0.206052
    93  O   -0.627779
    94  C    0.309450
    95  C    0.036584
    96  H    0.200004
    97  N   -0.583548
    98  H    0.390720
    99  C    0.338903
   100  H    0.246761
   101  N   -0.506762
   102  N   -0.596899
   103  H    0.419577
   104  C   -0.035026
   105  H    0.169852
   106  C    0.626959
   107  C   -0.295502
   108  H    0.139332
   109  H    0.160036
   110  O   -0.623570
   111  C   -0.089520
   112  H    0.168145
   113  C   -0.443513
   114  H    0.142147
   115  H    0.141572
   116  H    0.134103
   117  C   -0.457396
   118  H    0.129019
   119  H    0.139210
   120  H    0.173316
   121  N   -0.600610
   122  H    0.357230
   123  C   -0.071522
   124  H    0.134213
   125  C    0.588163
   126  C   -0.270434
   127  H    0.085377
   128  H    0.160026
   129  O   -0.595542
   130  C   -0.313100
   131  H    0.180636
   132  H    0.205137
   133  C   -0.164640
   134  H    0.165789
   135  H    0.160911
   136  N   -0.625780
   137  H    0.419872
   138  N   -0.764599
   139  H    0.367857
   140  H    0.383092
   141  N   -0.797693
   142  H    0.353036
   143  H    0.420991
   144  C    0.787249
   145  O   -0.608592
   146  H    0.401805
 Sum of Mulliken charges =   1.00000

 Dipole moment (field-independent basis, Debye):
    X=            -39.6987    Y=            -23.9683    Z=            -11.5390  Tot=             47.7872
 Quadrupole moment (field-independent basis, Debye-Ang):
   XX=           -300.2318   YY=           -390.0437   ZZ=           -153.6181
   XY=            -54.8657   XZ=            240.0154   YZ=             66.7015

 Normal termination of Gaussian 16 at Sun Jun 12 09:17:00 2022.
