 Gaussian 16, Revision C.01,
 Gaussian 16:  ES64L-G16RevC.01  3-Jul-2019

 ----------------------------------------------------------------------
 # B3LYP/6-31G* empiricaldispersion=gd3 guess=read geom=check nosymm in
 tegral(ultrafinegrid)
 ----------------------------------------------------------------------

 ------------------------------------------------------
 Candidate Structure: Conf:879 Charge calc in gas phase
 ------------------------------------------------------
 Structure from the checkpoint file:  "conf-879.chk"
 Charge =  1 Multiplicity = 1

                          Input orientation:
 ---------------------------------------------------------------------
 Center     Atomic      Atomic             Coordinates (Angstroms)
 Number     Number       Type             X           Y           Z
 ---------------------------------------------------------------------
      1          7           0        1.007543    6.272557   -4.551269
      2          1           0        1.791254    6.843778   -4.213559
      3          1           0        1.278234    5.792199   -5.445798
      4          1           0        0.197668    6.882990   -4.692289
      5          6           0        0.733749    5.122850   -3.611197
      6          1           0        1.055435    5.388240   -2.599295
      7          6           0        1.475204    3.950902   -4.246512
      8          6           0       -0.792485    4.812827   -3.578932
      9          1           0       -1.145967    4.659492   -4.612994
     10          1           0       -1.298330    5.689567   -3.157397
     11          8           0        1.692086    3.978850   -5.469182
     12          8           0       -1.077662    3.730813   -2.747234
     13          1           0       -0.848156    2.888836   -3.202272
     14          7           0        1.750772    2.943050   -3.418532
     15          1           0        1.593385    3.086277   -2.402474
     16          6           0        2.072184    1.623766   -3.915830
     17          1           0        2.706170    1.732134   -4.802803
     18          6           0        0.759551    0.926365   -4.357944
     19          6           0        2.816848    0.843110   -2.824381
     20          1           0        3.080253   -0.162416   -3.163808
     21          1           0        2.194251    0.760157   -1.927514
     22          1           0        3.735563    1.375706   -2.561327
     23          8           0       -0.354168    1.420982   -4.138484
     24          7           0        0.895017   -0.250357   -4.995894
     25          1           0        1.803521   -0.665014   -5.176846
     26          6           0       -0.238692   -1.014039   -5.526075
     27          1           0       -1.031932   -0.302648   -5.775645
     28          6           0       -0.742187   -1.996170   -4.438504
     29          6           0        0.235035   -1.783635   -6.775432
     30          1           0       -0.581298   -2.454909   -7.074102
     31          8           0       -0.570644   -3.214152   -4.542012
     32          6           0        0.595680   -0.864314   -7.933024
     33          1           0       -0.274052   -0.279816   -8.251356
     34          1           0        1.394648   -0.170536   -7.651141
     35          1           0        0.946809   -1.463022   -8.777558
     36          8           0        1.397314   -2.538367   -6.432513
     37          1           0        1.071755   -3.229334   -5.824328
     38          7           0       -1.322315   -1.394656   -3.377783
     39          1           0       -1.338709   -0.375052   -3.342928
     40          6           0       -1.590487   -2.043302   -2.098202
     41          1           0       -2.392216   -2.783762   -2.215111
     42          6           0       -2.043540   -0.908302   -1.163661
     43          6           0       -0.328320   -2.787513   -1.542241
     44          1           0       -0.119510   -3.560989   -2.285911
     45          8           0       -1.744242    0.261519   -1.407808
     46          6           0        0.885728   -1.853847   -1.465786
     47          1           0        0.688010   -1.001304   -0.806775
     48          1           0        1.147828   -1.463670   -2.451078
     49          1           0        1.758085   -2.409159   -1.093849
     50          6           0       -0.572565   -3.479935   -0.194787
     51          1           0       -0.655211   -2.751835    0.618723
     52          1           0       -1.480201   -4.097612   -0.207958
     53          1           0        0.260615   -4.156203    0.029401
     54          7           0       -2.725992   -1.246240   -0.039357
     55          1           0       -2.881364   -2.220311    0.174929
     56          6           0       -2.868078   -0.260595    1.031331
     57          1           0       -3.555577    0.515969    0.675138
     58          6           0       -1.482006    0.380165    1.259378
     59          6           0       -3.464818   -0.872399    2.322210
     60          1           0       -4.439310   -1.293929    2.032493
     61          8           0       -0.464143   -0.317635    1.341360
     62          6           0       -3.723774    0.256776    3.344079
     63          1           0       -4.269962    1.066670    2.839685
     64          1           0       -2.763806    0.686414    3.661445
     65          6           0       -2.607230   -1.999504    2.918598
     66          1           0       -1.636315   -1.617534    3.247435
     67          1           0       -2.417330   -2.807658    2.203794
     68          1           0       -3.113046   -2.448043    3.777570
     69          6           0       -4.527214   -0.182359    4.572676
     70          1           0       -4.758512    0.679629    5.206779
     71          1           0       -5.476883   -0.646724    4.280357
     72          1           0       -3.976570   -0.901127    5.188013
     73          7           0       -1.451799    1.726552    1.320214
     74          1           0       -2.314359    2.221012    1.139908
     75          6           0       -0.216563    2.444460    1.045445
     76          1           0        0.331382    1.861377    0.297511
     77          6           0        0.686053    2.542199    2.291452
     78          6           0       -0.505248    3.821540    0.424831
     79          1           0       -1.310027    3.710697   -0.311915
     80          1           0       -0.832616    4.548392    1.175221
     81          8           0        0.343883    2.249585    3.431300
     82          6           0        0.661218    4.422114   -0.390021
     83          8           0        0.576214    5.625450   -0.695018
     84          8           0        1.612191    3.625761   -0.739994
     85          7           0        1.933866    2.973513    1.951591
     86          1           0        2.093606    3.141954    0.949857
     87          6           0        3.050278    3.103531    2.877880
     88          1           0        2.840301    3.886893    3.618720
     89          6           0        4.220426    3.533169    1.975623
     90          6           0        3.348665    1.793299    3.659670
     91          1           0        2.659358    1.738956    4.502692
     92          1           0        4.374323    1.823427    4.040913
     93          8           0        5.069535    2.723034    1.563509
     94          6           0        3.117767    0.594858    2.804112
     95          6           0        2.055626   -0.261845    2.753057
     96          1           0        1.160272   -0.302471    3.348122
     97          7           0        3.903947    0.300889    1.701231
     98          1           0        4.675930    0.931270    1.441284
     99          6           0        3.343141   -0.678659    0.990496
    100          1           0        3.713462   -1.098053    0.069189
    101          7           0        2.225899   -1.042529    1.630139
    102          7           0        4.178938    4.808511    1.562110
    103          1           0        3.434911    5.397948    1.915725
    104          6           0        4.848795    5.270987    0.330209
    105          1           0        4.906394    4.389527   -0.315597
    106          6           0        6.290570    5.756142    0.621918
    107          6           0        3.986707    6.358554   -0.311131
    108          1           0        2.941195    6.030015   -0.280402
    109          1           0        4.086680    7.272511    0.286059
    110          8           0        6.612171    6.936009    0.502941
    111          6           0        4.333746    6.678122   -1.778390
    112          1           0        5.340332    7.109809   -1.811738
    113          6           0        4.295008    5.413441   -2.653522
    114          1           0        3.418435    4.804226   -2.410055
    115          1           0        4.272968    5.663210   -3.722926
    116          1           0        5.180028    4.785241   -2.502680
    117          6           0        3.337917    7.731799   -2.289898
    118          1           0        2.305967    7.375252   -2.157447
    119          1           0        3.527059    7.972411   -3.347368
    120          1           0        3.417968    8.670324   -1.730628
    121          7           0        7.141631    4.770130    0.983348
    122          1           0        6.799519    3.824130    1.137910
    123          6           0        8.529697    5.025668    1.325060
    124          1           0        8.965596    5.699547    0.582868
    125          6           0        9.282437    3.701106    1.320547
    126          6           0        8.653917    5.687310    2.731579
    127          1           0        7.989360    5.138564    3.412870
    128          1           0        8.243808    6.696179    2.630468
    129          8           0       10.570384    3.881052    1.072980
    130          6           0       10.083154    5.726262    3.311979
    131          1           0       10.814130    5.827587    2.504855
    132          1           0       10.191706    6.607442    3.957096
    133          6           0       10.409780    4.463539    4.139385
    134          1           0        9.889206    4.525430    5.104350
    135          1           0       10.047582    3.556430    3.654769
    136          7           0       11.829528    4.265158    4.404031
    137          1           0       12.312850    5.021781    4.869740
    138          7           0       12.200519    2.675154    2.726483
    139          1           0       12.870323    1.963619    2.444224
    140          1           0       11.156305    3.218002    1.606926
    141          7           0       13.932225    3.356460    4.218028
    142          1           0       14.545470    2.673415    3.793792
    143          1           0       14.029536    3.400001    5.225617
    144          6           0       12.630851    3.383911    3.726404
    145          8           0        8.745953    2.645662    1.619822
    146          1           0        1.506444   -1.651103    1.256958
 ---------------------------------------------------------------------

 SCF Done:  E(RB3LYP) =  -3503.62789283     A.U. after    3 cycles

 Alpha  occ. eigenvalues --  -19.22675 -19.22381 -19.22037 -19.21937 -19.20909
 Alpha  occ. eigenvalues --  -19.20514 -19.20341 -19.20322 -19.19887 -19.18991
 Alpha  occ. eigenvalues --  -19.17325 -19.16803 -19.16779 -19.15882 -14.56202
 Alpha  occ. eigenvalues --  -14.52842 -14.51794 -14.45816 -14.45725 -14.44838
 Alpha  occ. eigenvalues --  -14.44557 -14.44040 -14.43257 -14.42881 -14.41515
 Alpha  occ. eigenvalues --  -14.41437 -14.40569 -14.36046 -10.39981 -10.39005
 Alpha  occ. eigenvalues --  -10.38751 -10.38642 -10.37423 -10.37047 -10.36687
 Alpha  occ. eigenvalues --  -10.35876 -10.35733 -10.35274 -10.34468 -10.34415
 Alpha  occ. eigenvalues --  -10.33972 -10.33858 -10.33580 -10.33562 -10.33414
 Alpha  occ. eigenvalues --  -10.33202 -10.31813 -10.31690 -10.31153 -10.31026
 Alpha  occ. eigenvalues --  -10.30196 -10.30191 -10.29663 -10.28294 -10.27894
 Alpha  occ. eigenvalues --  -10.27796 -10.27725 -10.27280 -10.26237 -10.26017
 Alpha  occ. eigenvalues --  -10.25515 -10.25433 -10.25263 -10.25144 -10.25120
 Alpha  occ. eigenvalues --  -10.24292 -10.24167 -10.24148 -10.24083 -10.23863
 Alpha  occ. eigenvalues --  -10.23625  -1.17276  -1.14885  -1.13996  -1.13608
 Alpha  occ. eigenvalues --   -1.13153  -1.12519  -1.11765  -1.11377  -1.10584
 Alpha  occ. eigenvalues --   -1.10270  -1.09639  -1.09291  -1.08584  -1.08399
 Alpha  occ. eigenvalues --   -1.04592  -1.04064  -1.03884  -1.02373  -1.02311
 Alpha  occ. eigenvalues --   -1.01849  -1.01192  -1.00830  -1.00529  -0.99983
 Alpha  occ. eigenvalues --   -0.99748  -0.97330  -0.95256  -0.91092  -0.91061
 Alpha  occ. eigenvalues --   -0.89650  -0.88684  -0.88204  -0.88157  -0.86560
 Alpha  occ. eigenvalues --   -0.85568  -0.84802  -0.83958  -0.83851  -0.82368
 Alpha  occ. eigenvalues --   -0.81760  -0.80064  -0.78996  -0.78771  -0.78501
 Alpha  occ. eigenvalues --   -0.77456  -0.77229  -0.77121  -0.76244  -0.75570
 Alpha  occ. eigenvalues --   -0.73736  -0.73395  -0.73197  -0.72598  -0.71173
 Alpha  occ. eigenvalues --   -0.70775  -0.69920  -0.69623  -0.69110  -0.68945
 Alpha  occ. eigenvalues --   -0.68619  -0.68428  -0.67670  -0.67535  -0.67060
 Alpha  occ. eigenvalues --   -0.66539  -0.66335  -0.65278  -0.64953  -0.64619
 Alpha  occ. eigenvalues --   -0.64460  -0.63545  -0.63349  -0.62958  -0.62775
 Alpha  occ. eigenvalues --   -0.62027  -0.61681  -0.61245  -0.60536  -0.60496
 Alpha  occ. eigenvalues --   -0.59888  -0.59251  -0.59168  -0.59029  -0.58818
 Alpha  occ. eigenvalues --   -0.58688  -0.58176  -0.57472  -0.57291  -0.57156
 Alpha  occ. eigenvalues --   -0.56961  -0.56860  -0.56588  -0.56423  -0.55985
 Alpha  occ. eigenvalues --   -0.55468  -0.55393  -0.55098  -0.54722  -0.54163
 Alpha  occ. eigenvalues --   -0.53777  -0.53484  -0.53261  -0.53031  -0.52904
 Alpha  occ. eigenvalues --   -0.52778  -0.52350  -0.52213  -0.51992  -0.51956
 Alpha  occ. eigenvalues --   -0.51711  -0.51530  -0.51271  -0.50835  -0.50787
 Alpha  occ. eigenvalues --   -0.50571  -0.50476  -0.50411  -0.49999  -0.49826
 Alpha  occ. eigenvalues --   -0.49692  -0.49538  -0.49313  -0.49284  -0.49044
 Alpha  occ. eigenvalues --   -0.48794  -0.48686  -0.48544  -0.48016  -0.47940
 Alpha  occ. eigenvalues --   -0.47876  -0.47639  -0.47454  -0.47209  -0.47020
 Alpha  occ. eigenvalues --   -0.46931  -0.46692  -0.46488  -0.46298  -0.46148
 Alpha  occ. eigenvalues --   -0.46117  -0.45925  -0.45638  -0.45441  -0.45292
 Alpha  occ. eigenvalues --   -0.45249  -0.45137  -0.44840  -0.44604  -0.44498
 Alpha  occ. eigenvalues --   -0.44052  -0.43720  -0.43545  -0.43511  -0.43354
 Alpha  occ. eigenvalues --   -0.42804  -0.42599  -0.42139  -0.41941  -0.41828
 Alpha  occ. eigenvalues --   -0.41808  -0.41539  -0.41399  -0.40849  -0.40650
 Alpha  occ. eigenvalues --   -0.40184  -0.40014  -0.39985  -0.39892  -0.39777
 Alpha  occ. eigenvalues --   -0.39391  -0.39282  -0.39228  -0.38694  -0.37033
 Alpha  occ. eigenvalues --   -0.36932  -0.36913  -0.36456  -0.36084  -0.35902
 Alpha  occ. eigenvalues --   -0.35630  -0.35299  -0.34994  -0.34510  -0.34319
 Alpha  occ. eigenvalues --   -0.34290  -0.34083  -0.33902  -0.33444  -0.33272
 Alpha  occ. eigenvalues --   -0.32911  -0.32780  -0.32188  -0.32065  -0.31792
 Alpha  occ. eigenvalues --   -0.31215  -0.31133  -0.30081  -0.29892  -0.29661
 Alpha  occ. eigenvalues --   -0.29236
 Alpha virt. eigenvalues --   -0.12344  -0.08603  -0.08468  -0.08116  -0.07713
 Alpha virt. eigenvalues --   -0.07304  -0.06844  -0.06107  -0.05347  -0.05229
 Alpha virt. eigenvalues --   -0.03986  -0.03615  -0.02811  -0.02397  -0.01785

 Mulliken charges:
               1
     1  N   -0.767373
     2  H    0.417083
     3  H    0.415538
     4  H    0.404808
     5  C   -0.174075
     6  H    0.284450
     7  C    0.628422
     8  C   -0.029295
     9  H    0.142865
    10  H    0.169041
    11  O   -0.562747
    12  O   -0.636241
    13  H    0.459026
    14  N   -0.619672
    15  H    0.431387
    16  C   -0.067196
    17  H    0.199753
    18  C    0.655422
    19  C   -0.487419
    20  H    0.159861
    21  H    0.180870
    22  H    0.183419
    23  O   -0.557805
    24  N   -0.599983
    25  H    0.355364
    26  C   -0.081313
    27  H    0.191037
    28  C    0.634687
    29  C    0.109014
    30  H    0.155929
    31  O   -0.542983
    32  C   -0.449171
    33  H    0.151958
    34  H    0.148003
    35  H    0.178497
    36  O   -0.649647
    37  H    0.418910
    38  N   -0.651147
    39  H    0.399435
    40  C   -0.028012
    41  H    0.172524
    42  C    0.630401
    43  C   -0.083442
    44  H    0.192211
    45  O   -0.545200
    46  C   -0.511445
    47  H    0.180733
    48  H    0.160691
    49  H    0.121176
    50  C   -0.515560
    51  H    0.177225
    52  H    0.150837
    53  H    0.154510
    54  N   -0.624568
    55  H    0.341492
    56  C   -0.011492
    57  H    0.161305
    58  C    0.654112
    59  C   -0.117059
    60  H    0.144892
    61  O   -0.586770
    62  C   -0.274096
    63  H    0.131038
    64  H    0.167426
    65  C   -0.462372
    66  H    0.159895
    67  H    0.134545
    68  H    0.167847
    69  C   -0.452530
    70  H    0.161036
    71  H    0.150505
    72  H    0.154849
    73  N   -0.577270
    74  H    0.343543
    75  C   -0.051759
    76  H    0.183711
    77  C    0.631363
    78  C   -0.409573
    79  H    0.206130
    80  H    0.169738
    81  O   -0.541575
    82  C    0.656045
    83  O   -0.579544
    84  O   -0.662825
    85  N   -0.674012
    86  H    0.401179
    87  C   -0.008580
    88  H    0.180893
    89  C    0.594125
    90  C   -0.361743
    91  H    0.208532
    92  H    0.192202
    93  O   -0.570905
    94  C    0.295230
    95  C    0.034202
    96  H    0.236278
    97  N   -0.585012
    98  H    0.419801
    99  C    0.298155
   100  H    0.234702
   101  N   -0.538855
   102  N   -0.573152
   103  H    0.356260
   104  C   -0.064751
   105  H    0.176092
   106  C    0.635569
   107  C   -0.321279
   108  H    0.186875
   109  H    0.159242
   110  O   -0.531306
   111  C   -0.064067
   112  H    0.168712
   113  C   -0.500769
   114  H    0.169674
   115  H    0.122538
   116  H    0.156707
   117  C   -0.492703
   118  H    0.152154
   119  H    0.124131
   120  H    0.174826
   121  N   -0.642168
   122  H    0.379039
   123  C    0.000291
   124  H    0.182891
   125  C    0.571402
   126  C   -0.284362
   127  H    0.135655
   128  H    0.179273
   129  O   -0.608129
   130  C   -0.279485
   131  H    0.177526
   132  H    0.135573
   133  C   -0.156633
   134  H    0.147411
   135  H    0.201290
   136  N   -0.601529
   137  H    0.330400
   138  N   -0.741679
   139  H    0.293518
   140  H    0.461404
   141  N   -0.759205
   142  H    0.335964
   143  H    0.336371
   144  C    0.690285
   145  O   -0.506955
   146  H    0.407509
 Sum of Mulliken charges =   1.00000

 Dipole moment (field-independent basis, Debye):
    X=             12.4126    Y=              8.9465    Z=              0.0318  Tot=             15.3008
 Quadrupole moment (field-independent basis, Debye-Ang):
   XX=           -230.1479   YY=           -334.9865   ZZ=           -323.1827
   XY=             35.7538   XZ=             75.9599   YZ=            -37.9917

 Normal termination of Gaussian 16 at Sun Jun 12 09:18:53 2022.
