 Gaussian 16, Revision C.01,
 Gaussian 16:  ES64L-G16RevC.01  3-Jul-2019

 ----------------------------------------------------------------------
 # B3LYP/6-31G* empiricaldispersion=gd3 guess=read geom=check nosymm in
 tegral(ultrafinegrid)
 ----------------------------------------------------------------------

 ------------------------------------------------------
 Candidate Structure: Conf:268 Charge calc in gas phase
 ------------------------------------------------------
 Structure from the checkpoint file:  "conf-268.chk"
 Charge =  1 Multiplicity = 1

                          Input orientation:
 ---------------------------------------------------------------------
 Center     Atomic      Atomic             Coordinates (Angstroms)
 Number     Number       Type             X           Y           Z
 ---------------------------------------------------------------------
      1          7           0      -10.744022   -3.664270   -0.184966
      2          1           0      -11.340765   -4.488965   -0.077506
      3          1           0       -9.811896   -3.877303    0.237890
      4          1           0      -11.198481   -2.838887    0.242523
      5          6           0      -10.431901   -3.326973   -1.619136
      6          1           0      -11.275913   -3.635020   -2.241282
      7          6           0       -9.117312   -4.062400   -1.926336
      8          6           0      -10.219793   -1.787822   -1.654160
      9          1           0      -10.174537   -1.442311   -2.689666
     10          1           0       -9.258671   -1.546418   -1.194481
     11          8           0       -8.406300   -4.374598   -0.970540
     12          8           0      -11.241521   -1.167577   -0.883256
     13          1           0      -11.976768   -0.896535   -1.454772
     14          7           0       -8.813434   -4.264824   -3.223156
     15          1           0       -9.401911   -3.788075   -3.898198
     16          6           0       -7.393644   -4.312760   -3.592407
     17          1           0       -6.924437   -5.094029   -2.988939
     18          6           0       -6.780296   -2.935765   -3.214531
     19          6           0       -7.236963   -4.618273   -5.083516
     20          1           0       -6.177862   -4.663753   -5.351451
     21          1           0       -7.698395   -3.832365   -5.693440
     22          1           0       -7.697404   -5.578679   -5.332823
     23          8           0       -7.511007   -1.971092   -2.974359
     24          7           0       -5.440361   -2.912123   -3.163636
     25          1           0       -4.878401   -3.674584   -3.546190
     26          6           0       -4.656435   -1.695112   -3.000370
     27          1           0       -5.226888   -0.843063   -3.385152
     28          6           0       -3.361645   -1.929056   -3.806679
     29          6           0       -4.284926   -1.440386   -1.509435
     30          1           0       -3.671315   -0.534173   -1.469197
     31          8           0       -3.077855   -3.059074   -4.206951
     32          6           0       -5.507462   -1.272435   -0.608818
     33          1           0       -6.151518   -0.459341   -0.958434
     34          1           0       -6.105545   -2.191706   -0.590368
     35          1           0       -5.171774   -1.056309    0.409571
     36          8           0       -3.424510   -2.468285   -1.035466
     37          1           0       -3.919269   -3.304015   -1.054383
     38          7           0       -2.602130   -0.828878   -3.974302
     39          1           0       -2.869846    0.013310   -3.466601
     40          6           0       -1.143406   -0.890189   -4.098571
     41          1           0       -0.854443   -1.945922   -4.106149
     42          6           0       -0.639864   -0.187644   -2.816156
     43          6           0       -0.638426   -0.208656   -5.392403
     44          1           0       -0.937502    0.847890   -5.335271
     45          8           0       -1.320429    0.717435   -2.315778
     46          6           0        0.892199   -0.280942   -5.502865
     47          1           0        1.232435   -1.324966   -5.522070
     48          1           0        1.401616    0.218819   -4.674310
     49          1           0        1.225740    0.189347   -6.434014
     50          6           0       -1.303733   -0.846411   -6.619312
     51          1           0       -1.041366   -1.909176   -6.693283
     52          1           0       -2.394291   -0.773562   -6.566624
     53          1           0       -0.970094   -0.350572   -7.537626
     54          7           0        0.508411   -0.645336   -2.301023
     55          1           0        1.087208   -1.305637   -2.812085
     56          6           0        1.172337   -0.065515   -1.137317
     57          1           0        0.783723    0.948046   -1.000610
     58          6           0        2.666397   -0.030519   -1.512996
     59          6           0        0.897459   -0.891486    0.156397
     60          1           0        1.360639   -1.878803    0.005314
     61          8           0        3.130242   -0.873964   -2.289978
     62          6           0       -0.619921   -1.096957    0.344445
     63          1           0       -1.041447   -1.546468   -0.559158
     64          1           0       -1.101664   -0.115541    0.452704
     65          6           0        1.549008   -0.227890    1.378524
     66          1           0        1.169948    0.791293    1.525873
     67          1           0        2.633072   -0.168779    1.280948
     68          1           0        1.331450   -0.797518    2.286979
     69          6           0       -0.996692   -1.996545    1.526532
     70          1           0       -2.068597   -2.222382    1.494385
     71          1           0       -0.454710   -2.950498    1.482209
     72          1           0       -0.775269   -1.533986    2.494251
     73          7           0        3.374633    0.979718   -0.982241
     74          1           0        3.030289    1.552404   -0.191842
     75          6           0        4.817200    1.036387   -1.077138
     76          1           0        5.120452    0.850894   -2.114094
     77          6           0        5.454234   -0.045843   -0.181981
     78          6           0        5.269791    2.434147   -0.583735
     79          1           0        6.341821    2.582608   -0.745623
     80          1           0        4.728726    3.185209   -1.169438
     81          8           0        4.802215   -0.782256    0.549551
     82          6           0        4.928320    2.572099    0.935528
     83          8           0        5.898795    2.651894    1.720087
     84          8           0        3.691085    2.508671    1.204774
     85          7           0        6.836350   -0.113190   -0.220212
     86          1           0        7.304955    0.728567   -0.537421
     87          6           0        7.480372   -0.792405    0.898423
     88          1           0        6.856009   -1.660029    1.119727
     89          6           0        7.540837    0.136350    2.127703
     90          6           0        8.909509   -1.250787    0.578436
     91          1           0        9.550799   -0.364938    0.506485
     92          1           0        8.929163   -1.780651   -0.378284
     93          8           0        8.538847    0.825362    2.342693
     94          6           0        9.447831   -2.164098    1.642095
     95          6           0       10.123198   -3.347792    1.502999
     96          1           0       10.423573   -3.883589    0.616866
     97          7           0        9.327864   -1.954567    3.012990
     98          1           0        8.845760   -1.184695    3.573421
     99          6           0        9.897255   -2.953954    3.673206
    100          1           0        9.936798   -3.042040    4.747714
    101          7           0       10.397191   -3.817129    2.777092
    102          7           0        6.506306    0.006040    2.981722
    103          1           0        5.643270   -0.377551    2.610157
    104          6           0        6.442308    0.842256    4.166363
    105          1           0        6.489753    1.887997    3.842582
    106          6           0        7.663061    0.546657    5.050958
    107          6           0        5.123502    0.575075    4.919231
    108          1           0        5.023205   -0.513514    5.042640
    109          1           0        5.202884    0.991895    5.931402
    110          8           0        8.373641   -0.480906    4.945350
    111          6           0        3.874088    1.167296    4.232269
    112          1           0        3.900815    0.949732    3.157575
    113          6           0        2.608728    0.529394    4.821270
    114          1           0        2.526692    0.733714    5.897822
    115          1           0        1.713930    0.931989    4.334159
    116          1           0        2.602870   -0.560058    4.685414
    117          6           0        3.835648    2.694970    4.357097
    118          1           0        3.822009    3.002481    5.413169
    119          1           0        2.942734    3.085687    3.861069
    120          1           0        4.687230    3.148634    3.844292
    121          7           0        7.910097    1.466892    5.983838
    122          1           0        7.343092    2.307762    6.070047
    123          6           0        9.067195    1.455791    6.870045
    124          1           0        9.230645    0.441219    7.241213
    125          6           0        8.747283    2.415126    8.041974
    126          6           0       10.304978    1.926119    6.052679
    127          1           0       10.129055    2.969878    5.760826
    128          1           0       10.290560    1.342472    5.126968
    129          8           0        9.354114    2.180608    9.146159
    130          6           0       11.697952    1.775813    6.709361
    131          1           0       11.674315    1.003849    7.489908
    132          1           0       12.413696    1.424021    5.956356
    133          6           0       12.298572    3.063500    7.301523
    134          1           0       13.347426    2.893455    7.576059
    135          1           0       12.273304    3.855934    6.543496
    136          7           0       11.542454    3.479872    8.483812
    137          1           0       10.926677    2.740160    8.882685
    138          7           0       11.573536    5.789294    8.110165
    139          1           0       11.253149    6.707143    8.381403
    140          1           0       12.506970    5.744017    7.729942
    141          7           0       10.037861    4.813123    9.589779
    142          1           0        9.522519    5.682242    9.615992
    143          1           0        9.474634    3.942961    9.689901
    144          6           0       11.051013    4.696486    8.718340
    145          8           0        8.006456    3.381936    7.793721
    146          1           0       10.885266   -4.673170    3.002532
 ---------------------------------------------------------------------

 SCF Done:  E(RB3LYP) =  -3503.54416653     A.U. after    3 cycles

 Alpha  occ. eigenvalues --  -19.30258 -19.26764 -19.21250 -19.20572 -19.17969
 Alpha  occ. eigenvalues --  -19.15737 -19.15315 -19.14926 -19.14586 -19.12628
 Alpha  occ. eigenvalues --  -19.11920 -19.11423 -19.06524 -19.06369 -14.59993
 Alpha  occ. eigenvalues --  -14.51524 -14.49431 -14.48163 -14.44700 -14.44528
 Alpha  occ. eigenvalues --  -14.41711 -14.41302 -14.40707 -14.39530 -14.38769
 Alpha  occ. eigenvalues --  -14.38494 -14.38147 -14.35493 -10.43620 -10.40700
 Alpha  occ. eigenvalues --  -10.39249 -10.38380 -10.38199 -10.37232 -10.34799
 Alpha  occ. eigenvalues --  -10.34412 -10.32733 -10.32359 -10.32085 -10.31942
 Alpha  occ. eigenvalues --  -10.31742 -10.31226 -10.30245 -10.30066 -10.29512
 Alpha  occ. eigenvalues --  -10.29477 -10.28773 -10.28723 -10.27601 -10.27094
 Alpha  occ. eigenvalues --  -10.26510 -10.24935 -10.24888 -10.24809 -10.24491
 Alpha  occ. eigenvalues --  -10.24483 -10.24129 -10.23744 -10.23276 -10.22304
 Alpha  occ. eigenvalues --  -10.20877 -10.20712 -10.20446 -10.20217 -10.18806
 Alpha  occ. eigenvalues --  -10.18761 -10.18752 -10.18340 -10.17597 -10.17030
 Alpha  occ. eigenvalues --  -10.15208  -1.19504  -1.17468  -1.14806  -1.13801
 Alpha  occ. eigenvalues --   -1.12946  -1.09905  -1.08104  -1.07970  -1.07652
 Alpha  occ. eigenvalues --   -1.07098  -1.06788  -1.06067  -1.05915  -1.04948
 Alpha  occ. eigenvalues --   -1.04215  -1.01253  -1.00960  -0.99614  -0.97829
 Alpha  occ. eigenvalues --   -0.97770  -0.96269  -0.96149  -0.95762  -0.95275
 Alpha  occ. eigenvalues --   -0.95035  -0.94782  -0.93193  -0.92337  -0.90815
 Alpha  occ. eigenvalues --   -0.88655  -0.87879  -0.85022  -0.83967  -0.83154
 Alpha  occ. eigenvalues --   -0.82804  -0.81976  -0.81447  -0.80196  -0.78562
 Alpha  occ. eigenvalues --   -0.78526  -0.78310  -0.76225  -0.75901  -0.75613
 Alpha  occ. eigenvalues --   -0.75214  -0.74208  -0.73817  -0.73455  -0.72505
 Alpha  occ. eigenvalues --   -0.72119  -0.71690  -0.71544  -0.70554  -0.70462
 Alpha  occ. eigenvalues --   -0.69622  -0.68870  -0.67404  -0.67243  -0.66704
 Alpha  occ. eigenvalues --   -0.66445  -0.66160  -0.65564  -0.64999  -0.64868
 Alpha  occ. eigenvalues --   -0.64686  -0.63841  -0.63599  -0.62807  -0.62523
 Alpha  occ. eigenvalues --   -0.61797  -0.61714  -0.61366  -0.61200  -0.60906
 Alpha  occ. eigenvalues --   -0.60809  -0.59501  -0.59345  -0.59118  -0.58377
 Alpha  occ. eigenvalues --   -0.58194  -0.57312  -0.57116  -0.56538  -0.56418
 Alpha  occ. eigenvalues --   -0.56370  -0.56045  -0.55859  -0.55775  -0.55593
 Alpha  occ. eigenvalues --   -0.55409  -0.54810  -0.54566  -0.53747  -0.53363
 Alpha  occ. eigenvalues --   -0.53239  -0.52922  -0.52758  -0.52287  -0.52135
 Alpha  occ. eigenvalues --   -0.51823  -0.51796  -0.51261  -0.50515  -0.50234
 Alpha  occ. eigenvalues --   -0.50164  -0.50034  -0.49630  -0.49184  -0.49088
 Alpha  occ. eigenvalues --   -0.49000  -0.48782  -0.48468  -0.48291  -0.48198
 Alpha  occ. eigenvalues --   -0.47766  -0.47539  -0.47485  -0.47305  -0.47156
 Alpha  occ. eigenvalues --   -0.46778  -0.46296  -0.46094  -0.46079  -0.45704
 Alpha  occ. eigenvalues --   -0.45497  -0.44950  -0.44898  -0.44560  -0.44352
 Alpha  occ. eigenvalues --   -0.43967  -0.43793  -0.43757  -0.43510  -0.43291
 Alpha  occ. eigenvalues --   -0.42975  -0.42847  -0.42597  -0.42504  -0.42352
 Alpha  occ. eigenvalues --   -0.42235  -0.42029  -0.41747  -0.41666  -0.41452
 Alpha  occ. eigenvalues --   -0.41358  -0.41054  -0.40894  -0.40553  -0.40348
 Alpha  occ. eigenvalues --   -0.40167  -0.39705  -0.39601  -0.39368  -0.39304
 Alpha  occ. eigenvalues --   -0.39053  -0.38926  -0.38743  -0.38514  -0.38278
 Alpha  occ. eigenvalues --   -0.38265  -0.37852  -0.37588  -0.37536  -0.37250
 Alpha  occ. eigenvalues --   -0.37109  -0.36781  -0.36610  -0.36377  -0.35389
 Alpha  occ. eigenvalues --   -0.35331  -0.35188  -0.35040  -0.34547  -0.34208
 Alpha  occ. eigenvalues --   -0.33778  -0.33359  -0.33228  -0.32965  -0.32843
 Alpha  occ. eigenvalues --   -0.32026  -0.31949  -0.31837  -0.31658  -0.31285
 Alpha  occ. eigenvalues --   -0.31050  -0.30159  -0.29169  -0.29115  -0.28938
 Alpha  occ. eigenvalues --   -0.28237  -0.28000  -0.27362  -0.27298  -0.26555
 Alpha  occ. eigenvalues --   -0.26181  -0.25893  -0.25630  -0.22129  -0.20934
 Alpha  occ. eigenvalues --   -0.20494
 Alpha virt. eigenvalues --   -0.13052  -0.10426  -0.09495  -0.07387  -0.06018
 Alpha virt. eigenvalues --   -0.05633  -0.05313  -0.04136  -0.03838  -0.03355
 Alpha virt. eigenvalues --   -0.02423  -0.02046  -0.01615  -0.01065  -0.01002

 Mulliken charges:
               1
     1  N   -0.738456
     2  H    0.417425
     3  H    0.428287
     4  H    0.428542
     5  C   -0.159332
     6  H    0.205081
     7  C    0.661705
     8  C   -0.062305
     9  H    0.204009
    10  H    0.231445
    11  O   -0.519225
    12  O   -0.614594
    13  H    0.428959
    14  N   -0.563934
    15  H    0.343152
    16  C   -0.085187
    17  H    0.205223
    18  C    0.640050
    19  C   -0.477632
    20  H    0.199529
    21  H    0.167476
    22  H    0.185367
    23  O   -0.559852
    24  N   -0.620623
    25  H    0.363853
    26  C   -0.099283
    27  H    0.179847
    28  C    0.636782
    29  C    0.126448
    30  H    0.185076
    31  O   -0.543002
    32  C   -0.464474
    33  H    0.152870
    34  H    0.133796
    35  H    0.173585
    36  O   -0.602435
    37  H    0.389658
    38  N   -0.596120
    39  H    0.352848
    40  C   -0.074688
    41  H    0.174023
    42  C    0.632206
    43  C   -0.072128
    44  H    0.139032
    45  O   -0.564236
    46  C   -0.469496
    47  H    0.145331
    48  H    0.173692
    49  H    0.151922
    50  C   -0.442763
    51  H    0.149080
    52  H    0.147196
    53  H    0.147126
    54  N   -0.599158
    55  H    0.353177
    56  C   -0.068817
    57  H    0.179113
    58  C    0.634642
    59  C   -0.067853
    60  H    0.124448
    61  O   -0.575935
    62  C   -0.255355
    63  H    0.152278
    64  H    0.133852
    65  C   -0.499202
    66  H    0.152231
    67  H    0.205990
    68  H    0.140065
    69  C   -0.449416
    70  H    0.134451
    71  H    0.131737
    72  H    0.143967
    73  N   -0.612692
    74  H    0.389915
    75  C   -0.081276
    76  H    0.171046
    77  C    0.643995
    78  C   -0.370366
    79  H    0.128464
    80  H    0.159260
    81  O   -0.523715
    82  C    0.582520
    83  O   -0.589552
    84  O   -0.600785
    85  N   -0.596711
    86  H    0.344054
    87  C   -0.063734
    88  H    0.181259
    89  C    0.619990
    90  C   -0.354254
    91  H    0.206182
    92  H    0.172972
    93  O   -0.553503
    94  C    0.345413
    95  C   -0.024383
    96  H    0.206124
    97  N   -0.620049
    98  H    0.489597
    99  C    0.297964
   100  H    0.244500
   101  N   -0.553465
   102  N   -0.611987
   103  H    0.370401
   104  C   -0.041510
   105  H    0.230833
   106  C    0.678149
   107  C   -0.301986
   108  H    0.128299
   109  H    0.146860
   110  O   -0.643077
   111  C   -0.088533
   112  H    0.179211
   113  C   -0.444393
   114  H    0.127563
   115  H    0.149380
   116  H    0.124124
   117  C   -0.445943
   118  H    0.103241
   119  H    0.153726
   120  H    0.184086
   121  N   -0.594358
   122  H    0.363651
   123  C   -0.025719
   124  H    0.155270
   125  C    0.585702
   126  C   -0.277021
   127  H    0.151830
   128  H    0.173294
   129  O   -0.647992
   130  C   -0.302107
   131  H    0.165393
   132  H    0.148515
   133  C   -0.147549
   134  H    0.162151
   135  H    0.158502
   136  N   -0.600955
   137  H    0.403152
   138  N   -0.754753
   139  H    0.363291
   140  H    0.365946
   141  N   -0.745605
   142  H    0.346881
   143  H    0.405018
   144  C    0.755747
   145  O   -0.565679
   146  H    0.379108
 Sum of Mulliken charges =   1.00000

 Dipole moment (field-independent basis, Debye):
    X=            -15.4326    Y=            -18.8473    Z=              0.7275  Tot=             24.3704
 Quadrupole moment (field-independent basis, Debye-Ang):
   XX=            468.2060   YY=           -283.5364   ZZ=           -339.9175
   XY=            142.5505   XZ=            209.0443   YZ=             53.1276

 Normal termination of Gaussian 16 at Sun Jun 12 09:17:41 2022.
