 Gaussian 16, Revision C.01,
 Gaussian 16:  ES64L-G16RevC.01  3-Jul-2019

 ----------------------------------------------------------------------
 # B3LYP/6-31G* empiricaldispersion=gd3 guess=read geom=check nosymm in
 tegral(ultrafinegrid)
 ----------------------------------------------------------------------

 ------------------------------------------------------
 Candidate Structure: Conf:472 Charge calc in gas phase
 ------------------------------------------------------
 Structure from the checkpoint file:  "conf-472.chk"
 Charge =  1 Multiplicity = 1

                          Input orientation:
 ---------------------------------------------------------------------
 Center     Atomic      Atomic             Coordinates (Angstroms)
 Number     Number       Type             X           Y           Z
 ---------------------------------------------------------------------
      1          7           0       -6.345207    0.421160   -5.171057
      2          1           0       -6.721403    1.347910   -4.958334
      3          1           0       -6.948266   -0.087051   -5.835653
      4          1           0       -6.322336   -0.188297   -4.309719
      5          6           0       -4.953925    0.462522   -5.752242
      6          1           0       -4.932835    1.219999   -6.541960
      7          6           0       -4.750849   -0.951678   -6.350404
      8          6           0       -3.984260    0.835776   -4.616359
      9          1           0       -4.064439    0.085261   -3.822504
     10          1           0       -4.296498    1.808035   -4.199389
     11          8           0       -5.742976   -1.687093   -6.468205
     12          8           0       -2.675991    0.898732   -5.134198
     13          1           0       -2.089987    0.631768   -4.388131
     14          7           0       -3.491856   -1.280971   -6.666160
     15          1           0       -2.783049   -0.612492   -6.348208
     16          6           0       -3.059781   -2.699539   -6.698545
     17          1           0       -3.903098   -3.285074   -7.070506
     18          6           0       -2.792895   -2.948457   -5.194095
     19          6           0       -1.821657   -2.875488   -7.562022
     20          1           0       -1.533410   -3.930837   -7.585311
     21          1           0       -0.985431   -2.309214   -7.142144
     22          1           0       -2.014614   -2.541271   -8.585071
     23          8           0       -1.745259   -2.584076   -4.680766
     24          7           0       -3.906648   -3.305956   -4.476630
     25          1           0       -4.560254   -3.967907   -4.877055
     26          6           0       -3.981640   -3.013556   -3.051801
     27          1           0       -3.334966   -2.146247   -2.897278
     28          6           0       -3.510599   -4.209256   -2.212513
     29          6           0       -5.423998   -2.644166   -2.637704
     30          1           0       -6.022771   -3.563620   -2.604516
     31          8           0       -4.039494   -5.310537   -2.332219
     32          6           0       -5.445897   -1.943414   -1.289531
     33          1           0       -4.969099   -2.559901   -0.520481
     34          1           0       -4.884079   -1.004434   -1.342591
     35          1           0       -6.475629   -1.731999   -0.987280
     36          8           0       -6.027336   -1.759722   -3.617887
     37          1           0       -5.997348   -2.209557   -4.482477
     38          7           0       -2.497421   -3.900547   -1.377767
     39          1           0       -2.247374   -2.919145   -1.306335
     40          6           0       -1.991138   -4.776932   -0.329446
     41          1           0       -2.764247   -5.531066   -0.141036
     42          6           0       -1.933420   -3.866321    0.923527
     43          6           0       -0.689427   -5.492602   -0.775598
     44          1           0       -0.262626   -5.983835    0.113178
     45          8           0       -2.891190   -3.147441    1.185461
     46          6           0       -1.019024   -6.599462   -1.789204
     47          1           0       -1.483411   -6.177290   -2.685665
     48          1           0       -1.718670   -7.330993   -1.372014
     49          1           0       -0.106695   -7.126505   -2.090085
     50          6           0        0.345106   -4.520607   -1.374002
     51          1           0       -0.052437   -4.067393   -2.288911
     52          1           0        0.623365   -3.708911   -0.692472
     53          1           0        1.261661   -5.060086   -1.637672
     54          7           0       -0.778179   -3.851605    1.660491
     55          1           0        0.005753   -4.362092    1.280033
     56          6           0       -0.408239   -2.622945    2.380467
     57          1           0       -1.337322   -2.070103    2.508947
     58          6           0        0.486540   -1.828216    1.418107
     59          6           0        0.194234   -2.891037    3.778600
     60          1           0       -0.645582   -3.261082    4.383676
     61          8           0        1.660005   -2.283889    1.165427
     62          6           0        0.715599   -1.588583    4.418736
     63          1           0        1.604370   -1.265445    3.859286
     64          1           0        1.065178   -1.826464    5.432108
     65          6           0        1.293674   -3.962590    3.814597
     66          1           0        2.206184   -3.599607    3.333307
     67          1           0        0.976792   -4.890421    3.324675
     68          1           0        1.538705   -4.212827    4.852987
     69          6           0       -0.294228   -0.436324    4.484689
     70          1           0        0.119802    0.406904    5.051065
     71          1           0       -0.555700   -0.071725    3.486036
     72          1           0       -1.218057   -0.747383    4.987045
     73          7           0       -0.072087   -0.768308    0.873437
     74          1           0       -1.478921   -0.957721    0.137038
     75          6           0        0.667133   -0.068665   -0.183718
     76          1           0        1.256205   -0.782209   -0.782270
     77          6           0        1.644694    0.968167    0.416739
     78          6           0       -0.322178    0.676575   -1.104009
     79          1           0       -0.751568    1.509155   -0.533391
     80          1           0        0.195724    1.112374   -1.959763
     81          8           0        1.475046    2.176662    0.309736
     82          6           0       -1.474076   -0.167066   -1.614577
     83          8           0       -2.040135   -0.986578   -0.738301
     84          8           0       -1.921101   -0.087904   -2.753813
     85          7           0        2.715338    0.417514    1.073106
     86          1           0        2.681600   -0.585111    1.253577
     87          6           0        3.623409    1.249020    1.832865
     88          1           0        3.343733    2.284328    1.618600
     89          6           0        5.075118    0.995334    1.406661
     90          6           0        3.455767    0.985665    3.363011
     91          1           0        3.869452   -0.003264    3.597983
     92          1           0        2.378457    0.934713    3.546367
     93          8           0        5.451546   -0.086386    0.937783
     94          6           0        4.045549    2.017558    4.275732
     95          6           0        3.381870    2.999593    4.970927
     96          1           0        2.335123    3.256918    5.025546
     97          7           0        5.401596    2.103854    4.559086
     98          1           0        6.674237    1.137497    3.879868
     99          6           0        5.546914    3.107006    5.405424
    100          1           0        6.479318    3.441108    5.838033
    101          7           0        4.347960    3.681040    5.681245
    102          7           0        5.945297    1.996756    1.645857
    103          1           0        5.610386    2.829470    2.110788
    104          6           0        7.393655    1.805489    1.537313
    105          1           0        7.631054    1.558859    0.501450
    106          6           0        7.870511    0.623472    2.378635
    107          6           0        8.101958    3.105963    1.964823
    108          1           0        7.699701    3.927226    1.354492
    109          1           0        7.826142    3.318153    3.007977
    110          8           0        7.394700    0.485027    3.622233
    111          6           0        9.637864    3.090507    1.838693
    112          1           0       10.022548    2.242016    2.419383
    113          6           0       10.100212    2.916206    0.384727
    114          1           0        9.739635    3.742460   -0.241523
    115          1           0       11.193697    2.905425    0.328937
    116          1           0        9.740002    1.980964   -0.057050
    117          6           0       10.217354    4.378455    2.440491
    118          1           0        9.862254    5.261870    1.894257
    119          1           0       11.311199    4.373145    2.389516
    120          1           0        9.931350    4.494983    3.492860
    121          7           0        8.756861   -0.144319    1.875872
    122          1           0       10.444108    0.072310    1.090098
    123          6           0        9.370670   -1.210169    2.660681
    124          1           0        9.320507   -1.026024    3.742062
    125          6           0       10.871227   -1.279228    2.301166
    126          6           0        8.710049   -2.568053    2.349927
    127          1           0        9.399935   -3.365506    2.643586
    128          1           0        8.596679   -2.632154    1.258638
    129          8           0       11.619136   -2.072025    2.821192
    130          6           0        7.358737   -2.748985    3.066056
    131          1           0        7.536895   -3.120774    4.081526
    132          1           0        6.843388   -1.790033    3.174197
    133          6           0        6.408977   -3.716205    2.353485
    134          1           0        6.918226   -4.649651    2.083977
    135          1           0        5.576827   -3.965071    3.021697
    136          7           0        5.861703   -3.077742    1.146593
    137          1           0        6.388662   -2.290846    0.780877
    138          7           0        3.746421   -4.100210    1.174931
    139          1           0        2.765453   -3.805767    1.231751
    140          1           0        4.066968   -4.789352    1.837951
    141          7           0        4.141803   -2.269605   -0.179026
    142          1           0        3.128900   -2.263118   -0.279699
    143          1           0        4.552567   -1.335343   -0.106443
    144          6           0        4.590162   -3.145353    0.740198
    145          8           0       11.266957   -0.394486    1.370810
    146          1           0        4.189605    4.455366    6.311344
 ---------------------------------------------------------------------

 SCF Done:  E(RB3LYP) =  -3503.60870706     A.U. after    3 cycles

 Alpha  occ. eigenvalues --  -19.25593 -19.24657 -19.24575 -19.24326 -19.24266
 Alpha  occ. eigenvalues --  -19.22255 -19.21657 -19.21307 -19.20460 -19.18771
 Alpha  occ. eigenvalues --  -19.18764 -19.17918 -19.17420 -19.16625 -14.57346
 Alpha  occ. eigenvalues --  -14.49776 -14.46767 -14.46684 -14.45525 -14.45485
 Alpha  occ. eigenvalues --  -14.44422 -14.43732 -14.43054 -14.42749 -14.42391
 Alpha  occ. eigenvalues --  -14.41653 -14.38484 -14.37626 -10.41917 -10.41313
 Alpha  occ. eigenvalues --  -10.39318 -10.38242 -10.38041 -10.37345 -10.35754
 Alpha  occ. eigenvalues --  -10.35590 -10.35147 -10.35133 -10.35084 -10.34882
 Alpha  occ. eigenvalues --  -10.34533 -10.33592 -10.32686 -10.32612 -10.31996
 Alpha  occ. eigenvalues --  -10.31901 -10.31576 -10.31476 -10.30958 -10.30069
 Alpha  occ. eigenvalues --  -10.29732 -10.29263 -10.28906 -10.28392 -10.28339
 Alpha  occ. eigenvalues --  -10.26849 -10.26563 -10.26388 -10.26029 -10.25918
 Alpha  occ. eigenvalues --  -10.25679 -10.25613 -10.25613 -10.24590 -10.24495
 Alpha  occ. eigenvalues --  -10.24216 -10.23593 -10.23390 -10.23344 -10.23310
 Alpha  occ. eigenvalues --  -10.22678  -1.16702  -1.16499  -1.14096  -1.13244
 Alpha  occ. eigenvalues --   -1.12915  -1.12548  -1.12506  -1.12225  -1.12021
 Alpha  occ. eigenvalues --   -1.11055  -1.10852  -1.10650  -1.10228  -1.09127
 Alpha  occ. eigenvalues --   -1.08320  -1.07887  -1.05074  -1.03630  -1.01956
 Alpha  occ. eigenvalues --   -1.00680  -1.00425  -0.99866  -0.98761  -0.98690
 Alpha  occ. eigenvalues --   -0.98229  -0.98083  -0.97538  -0.95399  -0.89598
 Alpha  occ. eigenvalues --   -0.89080  -0.87995  -0.87698  -0.87113  -0.86794
 Alpha  occ. eigenvalues --   -0.85663  -0.84828  -0.84715  -0.83911  -0.82518
 Alpha  occ. eigenvalues --   -0.80772  -0.79873  -0.79065  -0.77831  -0.77234
 Alpha  occ. eigenvalues --   -0.76705  -0.75639  -0.75375  -0.74338  -0.74157
 Alpha  occ. eigenvalues --   -0.73316  -0.73050  -0.72467  -0.72315  -0.72110
 Alpha  occ. eigenvalues --   -0.71477  -0.69512  -0.69286  -0.69006  -0.68969
 Alpha  occ. eigenvalues --   -0.68000  -0.67938  -0.67691  -0.67221  -0.66868
 Alpha  occ. eigenvalues --   -0.66744  -0.66123  -0.65955  -0.65686  -0.65140
 Alpha  occ. eigenvalues --   -0.64907  -0.64449  -0.63962  -0.63514  -0.63225
 Alpha  occ. eigenvalues --   -0.62968  -0.62741  -0.62715  -0.62144  -0.61680
 Alpha  occ. eigenvalues --   -0.61149  -0.60159  -0.59525  -0.58962  -0.58824
 Alpha  occ. eigenvalues --   -0.58517  -0.58322  -0.57982  -0.57892  -0.57670
 Alpha  occ. eigenvalues --   -0.57266  -0.56677  -0.56589  -0.56301  -0.56026
 Alpha  occ. eigenvalues --   -0.55733  -0.55495  -0.54879  -0.54639  -0.54121
 Alpha  occ. eigenvalues --   -0.53907  -0.53877  -0.53553  -0.53390  -0.53295
 Alpha  occ. eigenvalues --   -0.53011  -0.52949  -0.52666  -0.52174  -0.52053
 Alpha  occ. eigenvalues --   -0.51803  -0.51481  -0.51362  -0.51045  -0.50950
 Alpha  occ. eigenvalues --   -0.50564  -0.50238  -0.50024  -0.49793  -0.49660
 Alpha  occ. eigenvalues --   -0.49557  -0.49380  -0.49074  -0.48807  -0.48676
 Alpha  occ. eigenvalues --   -0.48193  -0.48031  -0.48006  -0.47723  -0.47656
 Alpha  occ. eigenvalues --   -0.47598  -0.47154  -0.46841  -0.46756  -0.46586
 Alpha  occ. eigenvalues --   -0.46517  -0.46351  -0.46273  -0.46211  -0.45718
 Alpha  occ. eigenvalues --   -0.45454  -0.45255  -0.45070  -0.45065  -0.44922
 Alpha  occ. eigenvalues --   -0.44752  -0.44600  -0.44544  -0.44449  -0.44115
 Alpha  occ. eigenvalues --   -0.43938  -0.43820  -0.43697  -0.43603  -0.43102
 Alpha  occ. eigenvalues --   -0.43002  -0.42974  -0.42678  -0.42395  -0.42046
 Alpha  occ. eigenvalues --   -0.41899  -0.41592  -0.41454  -0.40576  -0.39965
 Alpha  occ. eigenvalues --   -0.39756  -0.39737  -0.39522  -0.39453  -0.39371
 Alpha  occ. eigenvalues --   -0.39266  -0.38930  -0.38893  -0.38838  -0.38672
 Alpha  occ. eigenvalues --   -0.38593  -0.38487  -0.38164  -0.37694  -0.37509
 Alpha  occ. eigenvalues --   -0.36845  -0.35985  -0.35626  -0.35371  -0.35037
 Alpha  occ. eigenvalues --   -0.34918  -0.34715  -0.34641  -0.33993  -0.33759
 Alpha  occ. eigenvalues --   -0.33513  -0.33273  -0.32882  -0.32337  -0.31836
 Alpha  occ. eigenvalues --   -0.31768  -0.31406  -0.30777  -0.30371  -0.29962
 Alpha  occ. eigenvalues --   -0.29806
 Alpha virt. eigenvalues --   -0.11511  -0.07962  -0.07809  -0.07430  -0.07169
 Alpha virt. eigenvalues --   -0.06948  -0.06255  -0.05866  -0.05510  -0.05411
 Alpha virt. eigenvalues --   -0.04441  -0.04004  -0.02784  -0.02526  -0.02397

 Mulliken charges:
               1
     1  N   -0.758491
     2  H    0.405192
     3  H    0.417931
     4  H    0.442991
     5  C   -0.143641
     6  H    0.229185
     7  C    0.640725
     8  C   -0.030601
     9  H    0.193946
    10  H    0.143953
    11  O   -0.561061
    12  O   -0.647990
    13  H    0.458016
    14  N   -0.582466
    15  H    0.387448
    16  C   -0.059075
    17  H    0.181544
    18  C    0.597567
    19  C   -0.457672
    20  H    0.175311
    21  H    0.182211
    22  H    0.170263
    23  O   -0.491623
    24  N   -0.628570
    25  H    0.346316
    26  C   -0.094018
    27  H    0.207529
    28  C    0.636273
    29  C    0.102723
    30  H    0.168824
    31  O   -0.545876
    32  C   -0.481915
    33  H    0.211899
    34  H    0.159350
    35  H    0.159474
    36  O   -0.698263
    37  H    0.431236
    38  N   -0.616535
    39  H    0.397215
    40  C   -0.037173
    41  H    0.196565
    42  C    0.567924
    43  C   -0.102391
    44  H    0.122108
    45  O   -0.505791
    46  C   -0.445652
    47  H    0.167177
    48  H    0.157704
    49  H    0.142755
    50  C   -0.494608
    51  H    0.177589
    52  H    0.142425
    53  H    0.151309
    54  N   -0.614148
    55  H    0.338166
    56  C   -0.041315
    57  H    0.197285
    58  C    0.576792
    59  C   -0.071128
    60  H    0.145638
    61  O   -0.672332
    62  C   -0.271756
    63  H    0.129568
    64  H    0.138069
    65  C   -0.474734
    66  H    0.131622
    67  H    0.141179
    68  H    0.153603
    69  C   -0.468433
    70  H    0.131470
    71  H    0.173640
    72  H    0.154418
    73  N   -0.598066
    74  H    0.462731
    75  C   -0.070864
    76  H    0.147270
    77  C    0.626303
    78  C   -0.379872
    79  H    0.207824
    80  H    0.179326
    81  O   -0.518230
    82  C    0.622777
    83  O   -0.604451
    84  O   -0.526314
    85  N   -0.641562
    86  H    0.373027
    87  C   -0.074608
    88  H    0.194969
    89  C    0.649737
    90  C   -0.370818
    91  H    0.173239
    92  H    0.196149
    93  O   -0.575015
    94  C    0.258752
    95  C   -0.012024
    96  H    0.189884
    97  N   -0.547745
    98  H    0.472510
    99  C    0.243986
   100  H    0.195313
   101  N   -0.550692
   102  N   -0.612002
   103  H    0.347208
   104  C   -0.007333
   105  H    0.191311
   106  C    0.550454
   107  C   -0.306779
   108  H    0.152457
   109  H    0.133487
   110  O   -0.659102
   111  C   -0.080281
   112  H    0.145261
   113  C   -0.461730
   114  H    0.145074
   115  H    0.169674
   116  H    0.149883
   117  C   -0.444858
   118  H    0.144408
   119  H    0.163529
   120  H    0.137755
   121  N   -0.529924
   122  H    0.445981
   123  C   -0.077999
   124  H    0.179615
   125  C    0.593452
   126  C   -0.280116
   127  H    0.187760
   128  H    0.143646
   129  O   -0.462566
   130  C   -0.307957
   131  H    0.167215
   132  H    0.183741
   133  C   -0.152939
   134  H    0.182393
   135  H    0.153824
   136  N   -0.588372
   137  H    0.381058
   138  N   -0.769656
   139  H    0.406661
   140  H    0.357349
   141  N   -0.770863
   142  H    0.377722
   143  H    0.392746
   144  C    0.743774
   145  O   -0.588833
   146  H    0.363469
 Sum of Mulliken charges =   1.00000

 Dipole moment (field-independent basis, Debye):
    X=             -5.9901    Y=              5.3407    Z=             -3.6366  Tot=              8.8107
 Quadrupole moment (field-independent basis, Debye-Ang):
   XX=           -351.1687   YY=           -359.1325   ZZ=           -271.6188
   XY=             15.9495   XZ=            126.2388   YZ=             29.8053

 Normal termination of Gaussian 16 at Sun Jun 12 09:18:34 2022.
