 Gaussian 16, Revision C.01,
 Gaussian 16:  ES64L-G16RevC.01  3-Jul-2019

 ----------------------------------------------------------------------
 # B3LYP/6-31G* empiricaldispersion=gd3 guess=read geom=check nosymm in
 tegral(ultrafinegrid)
 ----------------------------------------------------------------------

 ------------------------------------------------------
 Candidate Structure: Conf:121 Charge calc in gas phase
 ------------------------------------------------------
 Structure from the checkpoint file:  "conf-121.chk"
 Charge =  1 Multiplicity = 1

                          Input orientation:
 ---------------------------------------------------------------------
 Center     Atomic      Atomic             Coordinates (Angstroms)
 Number     Number       Type             X           Y           Z
 ---------------------------------------------------------------------
      1          7           0       -9.854210   -5.496388   -4.661258
      2          1           0       -9.771761   -5.240652   -5.649343
      3          1           0       -9.366708   -6.412942   -4.518195
      4          1           0      -10.851516   -5.515805   -4.395385
      5          6           0       -9.129496   -4.545322   -3.744260
      6          1           0       -9.075259   -3.569607   -4.230964
      7          6           0       -7.749239   -5.202847   -3.509763
      8          6           0       -9.941354   -4.455140   -2.442980
      9          1           0       -9.557816   -3.616493   -1.848534
     10          1           0       -9.815692   -5.381449   -1.862769
     11          8           0       -7.634448   -6.402372   -3.787041
     12          8           0      -11.286407   -4.267721   -2.857076
     13          1           0      -11.877160   -4.271602   -2.087025
     14          7           0       -6.815647   -4.423947   -2.975037
     15          1           0       -6.967119   -3.437093   -2.756842
     16          6           0       -5.478686   -4.886780   -2.602531
     17          1           0       -5.577868   -5.796387   -1.999440
     18          6           0       -4.889975   -3.742646   -1.754555
     19          6           0       -4.607952   -5.173358   -3.837571
     20          1           0       -3.623291   -5.543571   -3.537154
     21          1           0       -4.469613   -4.262034   -4.427561
     22          1           0       -5.085845   -5.938454   -4.454168
     23          8           0       -5.471229   -2.648613   -1.703218
     24          7           0       -3.731813   -4.003475   -1.135815
     25          1           0       -3.237983   -4.882391   -1.265256
     26          6           0       -2.944644   -2.978817   -0.445319
     27          1           0       -3.633391   -2.319840    0.091624
     28          6           0       -2.154958   -2.179990   -1.505720
     29          6           0       -1.979839   -3.688414    0.529420
     30          1           0       -1.286059   -2.925922    0.910588
     31          8           0       -0.968444   -2.438085   -1.751173
     32          6           0       -2.701405   -4.354004    1.691723
     33          1           0       -3.234662   -3.612686    2.296208
     34          1           0       -3.422234   -5.096043    1.332367
     35          1           0       -1.973475   -4.867264    2.325453
     36          8           0       -1.272112   -4.697779   -0.187039
     37          1           0       -0.734803   -4.205010   -0.840106
     38          7           0       -2.864024   -1.243818   -2.161859
     39          1           0       -3.826219   -1.083867   -1.886839
     40          6           0       -2.291795   -0.416721   -3.232497
     41          1           0       -1.547040   -1.037065   -3.742886
     42          6           0       -1.599174    0.780322   -2.539407
     43          6           0       -3.369836    0.031549   -4.230414
     44          1           0       -4.053939    0.696761   -3.687184
     45          8           0       -2.191347    1.837235   -2.333066
     46          6           0       -2.724698    0.842328   -5.363739
     47          1           0       -1.995251    0.235406   -5.915440
     48          1           0       -2.218683    1.729107   -4.973692
     49          1           0       -3.486932    1.176283   -6.075675
     50          6           0       -4.156152   -1.164797   -4.789521
     51          1           0       -3.481902   -1.876570   -5.284647
     52          1           0       -4.705130   -1.701129   -4.007875
     53          1           0       -4.881460   -0.821935   -5.535986
     54          7           0       -0.335568    0.523619   -2.133553
     55          1           0        0.064730   -0.403114   -2.242094
     56          6           0        0.397337    1.448663   -1.283805
     57          1           0        0.212497    2.455658   -1.666703
     58          6           0        1.877202    1.084161   -1.405064
     59          6           0       -0.105414    1.368643    0.194059
     60          1           0       -1.197689    1.431988    0.099214
     61          8           0        2.224311   -0.063292   -1.683444
     62          6           0        0.347814    2.550196    1.073517
     63          1           0        1.426536    2.481473    1.253995
     64          1           0       -0.124197    2.414000    2.055987
     65          6           0        0.268330    0.028384    0.846426
     66          1           0        1.344954   -0.021740    1.041560
     67          1           0       -0.001277   -0.820707    0.208307
     68          1           0       -0.252920   -0.080000    1.805241
     69          6           0       -0.033945    3.936978    0.537787
     70          1           0        0.143179    4.709565    1.293639
     71          1           0        0.543091    4.225323   -0.350829
     72          1           0       -1.091860    3.975106    0.252453
     73          7           0        2.759101    2.098432   -1.181072
     74          1           0        2.395867    2.970846   -0.820658
     75          6           0        4.168731    1.813926   -0.985693
     76          1           0        4.283154    0.790577   -1.347880
     77          6           0        4.480801    1.713154    0.526924
     78          6           0        5.061703    2.733893   -1.833474
     79          1           0        4.560677    2.889847   -2.794477
     80          1           0        5.168582    3.727120   -1.383109
     81          8           0        3.602583    1.449612    1.340532
     82          6           0        6.489520    2.277555   -2.191726
     83          8           0        7.213513    3.033415   -2.797528
     84          8           0        6.938600    1.067103   -1.813512
     85          7           0        5.792940    1.875746    0.874506
     86          1           0        6.462738    1.963464    0.121857
     87          6           0        6.366976    1.249161    2.066161
     88          1           0        5.547928    1.131429    2.782148
     89          6           0        7.464634    2.159565    2.660666
     90          6           0        6.972593   -0.134710    1.715432
     91          1           0        7.351190   -0.585094    2.636018
     92          1           0        7.842451    0.023409    1.068150
     93          8           0        8.493496    1.689185    3.130382
     94          6           0        5.989840   -1.035964    1.036650
     95          6           0        5.232651   -2.048636    1.568130
     96          1           0        5.198777   -2.477709    2.557577
     97          7           0        5.651838   -0.874775   -0.302193
     98          1           0        6.318307    0.420983   -1.359549
     99          6           0        4.708524   -1.760949   -0.562663
    100          1           0        4.183020   -1.869945   -1.499355
    101          7           0        4.424676   -2.497104    0.540761
    102          7           0        7.200454    3.490451    2.579560
    103          1           0        6.344619    3.760529    2.115048
    104          6           0        8.240169    4.499581    2.690080
    105          1           0        9.193346    3.965637    2.725614
    106          6           0        8.103110    5.330243    3.966398
    107          6           0        8.202156    5.453346    1.468866
    108          1           0        7.309612    6.090433    1.559354
    109          1           0        9.061620    6.132122    1.534539
    110          8           0        7.014150    5.382383    4.595511
    111          6           0        8.184927    4.755906    0.094930
    112          1           0        7.249235    4.181227    0.019992
    113          6           0        8.160393    5.804084   -1.026223
    114          1           0        9.092003    6.382861   -1.036140
    115          1           0        8.043289    5.316076   -1.998609
    116          1           0        7.332434    6.512047   -0.892987
    117          6           0        9.349530    3.774977   -0.097654
    118          1           0       10.310974    4.298013   -0.019446
    119          1           0        9.290779    3.313590   -1.089074
    120          1           0        9.347428    2.971747    0.648711
    121          7           0        9.165396    6.049624    4.299412
    122          1           0        9.936076    6.231983    3.627462
    123          6           0        9.098291    7.212088    5.173447
    124          1           0        8.083519    7.625568    5.111551
    125          6           0       10.070462    8.298760    4.550960
    126          6           0        9.466929    6.925028    6.646602
    127          1           0       10.531103    7.131899    6.787471
    128          1           0        9.316897    5.860828    6.878326
    129          8           0       10.126059    9.352383    5.206570
    130          6           0        8.646051    7.808833    7.606233
    131          1           0        9.248562    8.113173    8.469235
    132          1           0        8.383114    8.733155    7.084189
    133          6           0        7.405375    7.108132    8.183571
    134          1           0        7.719733    6.401498    8.964913
    135          1           0        6.739009    7.850041    8.644215
    136          7           0        6.653635    6.342141    7.170686
    137          1           0        6.990640    6.284317    6.195036
    138          7           0        5.088694    5.468986    8.666819
    139          1           0        4.662042    4.614730    8.994263
    140          1           0        5.409550    6.105759    9.380715
    141          7           0        5.316005    4.559550    6.540200
    142          1           0        4.381400    4.181224    6.587958
    143          1           0        5.796159    4.579130    5.630590
    144          6           0        5.700173    5.470169    7.454674
    145          8           0       10.648409    7.926491    3.494235
    146          1           0        3.739964   -3.236645    0.597819
 ---------------------------------------------------------------------

 SCF Done:  E(RB3LYP) =  -3503.54270302     A.U. after    3 cycles

 Alpha  occ. eigenvalues --  -19.32460 -19.28513 -19.24997 -19.22860 -19.21939
 Alpha  occ. eigenvalues --  -19.21928 -19.18518 -19.18140 -19.17672 -19.16643
 Alpha  occ. eigenvalues --  -19.16155 -19.15584 -19.05578 -19.04459 -14.61815
 Alpha  occ. eigenvalues --  -14.51588 -14.48488 -14.45963 -14.45728 -14.45726
 Alpha  occ. eigenvalues --  -14.43475 -14.43470 -14.42857 -14.42001 -14.41774
 Alpha  occ. eigenvalues --  -14.39846 -14.38965 -14.36843 -10.45682 -10.42913
 Alpha  occ. eigenvalues --  -10.41813 -10.41573 -10.40628 -10.38688 -10.37155
 Alpha  occ. eigenvalues --  -10.36012 -10.35460 -10.35230 -10.34906 -10.33623
 Alpha  occ. eigenvalues --  -10.33229 -10.32901 -10.31747 -10.30858 -10.30779
 Alpha  occ. eigenvalues --  -10.30347 -10.29683 -10.29132 -10.28786 -10.28683
 Alpha  occ. eigenvalues --  -10.27678 -10.27083 -10.26886 -10.26382 -10.26289
 Alpha  occ. eigenvalues --  -10.26047 -10.25911 -10.25097 -10.24388 -10.24106
 Alpha  occ. eigenvalues --  -10.23488 -10.23282 -10.23072 -10.22686 -10.21686
 Alpha  occ. eigenvalues --  -10.21599 -10.21549 -10.21397 -10.20050 -10.18877
 Alpha  occ. eigenvalues --  -10.18730  -1.21395  -1.19674  -1.16830  -1.15496
 Alpha  occ. eigenvalues --   -1.13732  -1.12790  -1.10768  -1.10464  -1.09839
 Alpha  occ. eigenvalues --   -1.09420  -1.09369  -1.08201  -1.08074  -1.07669
 Alpha  occ. eigenvalues --   -1.06592  -1.04737  -1.04599  -1.01944  -0.99331
 Alpha  occ. eigenvalues --   -0.99148  -0.98676  -0.98511  -0.98506  -0.97489
 Alpha  occ. eigenvalues --   -0.96273  -0.95009  -0.93902  -0.93792  -0.90651
 Alpha  occ. eigenvalues --   -0.89968  -0.88611  -0.86911  -0.86633  -0.85317
 Alpha  occ. eigenvalues --   -0.83599  -0.83368  -0.82908  -0.82398  -0.81784
 Alpha  occ. eigenvalues --   -0.80153  -0.79841  -0.78885  -0.78315  -0.77995
 Alpha  occ. eigenvalues --   -0.76510  -0.76442  -0.75909  -0.75888  -0.75490
 Alpha  occ. eigenvalues --   -0.73957  -0.73568  -0.72068  -0.71649  -0.71298
 Alpha  occ. eigenvalues --   -0.69958  -0.69891  -0.69242  -0.69214  -0.68637
 Alpha  occ. eigenvalues --   -0.68336  -0.68245  -0.67205  -0.66853  -0.66347
 Alpha  occ. eigenvalues --   -0.66121  -0.65981  -0.65449  -0.65380  -0.65052
 Alpha  occ. eigenvalues --   -0.64834  -0.64388  -0.63704  -0.63084  -0.62679
 Alpha  occ. eigenvalues --   -0.62141  -0.62124  -0.61388  -0.61363  -0.60947
 Alpha  occ. eigenvalues --   -0.60441  -0.60116  -0.59778  -0.59653  -0.59519
 Alpha  occ. eigenvalues --   -0.59066  -0.58442  -0.58034  -0.57609  -0.57031
 Alpha  occ. eigenvalues --   -0.56963  -0.56727  -0.56660  -0.55682  -0.55384
 Alpha  occ. eigenvalues --   -0.54891  -0.54603  -0.54310  -0.53470  -0.53368
 Alpha  occ. eigenvalues --   -0.53334  -0.53271  -0.52836  -0.52629  -0.52130
 Alpha  occ. eigenvalues --   -0.52028  -0.51950  -0.51889  -0.51548  -0.51369
 Alpha  occ. eigenvalues --   -0.50983  -0.50886  -0.50435  -0.50142  -0.49896
 Alpha  occ. eigenvalues --   -0.49709  -0.49476  -0.49159  -0.48864  -0.48830
 Alpha  occ. eigenvalues --   -0.48536  -0.48446  -0.48103  -0.48021  -0.47857
 Alpha  occ. eigenvalues --   -0.47714  -0.47616  -0.47377  -0.47259  -0.47136
 Alpha  occ. eigenvalues --   -0.46858  -0.46514  -0.46232  -0.46043  -0.45867
 Alpha  occ. eigenvalues --   -0.45588  -0.45577  -0.45431  -0.45058  -0.44976
 Alpha  occ. eigenvalues --   -0.44664  -0.44275  -0.44246  -0.43973  -0.43829
 Alpha  occ. eigenvalues --   -0.43315  -0.43040  -0.42867  -0.42774  -0.42317
 Alpha  occ. eigenvalues --   -0.42231  -0.42085  -0.41811  -0.41621  -0.41516
 Alpha  occ. eigenvalues --   -0.41136  -0.41076  -0.40957  -0.40757  -0.40506
 Alpha  occ. eigenvalues --   -0.40443  -0.40099  -0.39511  -0.39436  -0.39401
 Alpha  occ. eigenvalues --   -0.39037  -0.38775  -0.38458  -0.38225  -0.37691
 Alpha  occ. eigenvalues --   -0.37566  -0.37241  -0.36409  -0.36342  -0.36043
 Alpha  occ. eigenvalues --   -0.35586  -0.35555  -0.35201  -0.34915  -0.34779
 Alpha  occ. eigenvalues --   -0.34668  -0.34576  -0.34459  -0.34237  -0.33372
 Alpha  occ. eigenvalues --   -0.33265  -0.32841  -0.32694  -0.32636  -0.31681
 Alpha  occ. eigenvalues --   -0.31099  -0.30736  -0.30693  -0.30075  -0.29607
 Alpha  occ. eigenvalues --   -0.29093  -0.28363  -0.28034  -0.20608  -0.20407
 Alpha  occ. eigenvalues --   -0.18747
 Alpha virt. eigenvalues --   -0.14446  -0.12175  -0.10843  -0.08251  -0.07907
 Alpha virt. eigenvalues --   -0.06132  -0.05613  -0.05265  -0.04919  -0.04593
 Alpha virt. eigenvalues --   -0.03664  -0.03585  -0.03425  -0.02903  -0.02864

 Mulliken charges:
               1
     1  N   -0.741600
     2  H    0.422475
     3  H    0.427837
     4  H    0.431828
     5  C   -0.130942
     6  H    0.229439
     7  C    0.650376
     8  C   -0.047756
     9  H    0.199279
    10  H    0.183901
    11  O   -0.530252
    12  O   -0.627903
    13  H    0.442485
    14  N   -0.612300
    15  H    0.375187
    16  C   -0.052261
    17  H    0.200298
    18  C    0.646271
    19  C   -0.466202
    20  H    0.178277
    21  H    0.183123
    22  H    0.195440
    23  O   -0.560980
    24  N   -0.600771
    25  H    0.360619
    26  C   -0.085608
    27  H    0.184844
    28  C    0.648110
    29  C    0.102689
    30  H    0.161849
    31  O   -0.557261
    32  C   -0.450017
    33  H    0.153413
    34  H    0.145925
    35  H    0.180970
    36  O   -0.649933
    37  H    0.423434
    38  N   -0.609228
    39  H    0.365202
    40  C   -0.043286
    41  H    0.169616
    42  C    0.631833
    43  C   -0.097049
    44  H    0.156422
    45  O   -0.540244
    46  C   -0.461840
    47  H    0.144228
    48  H    0.184350
    49  H    0.151578
    50  C   -0.470534
    51  H    0.145334
    52  H    0.133129
    53  H    0.148920
    54  N   -0.617695
    55  H    0.372139
    56  C   -0.070510
    57  H    0.179631
    58  C    0.646193
    59  C   -0.071535
    60  H    0.146693
    61  O   -0.550556
    62  C   -0.289507
    63  H    0.174330
    64  H    0.134306
    65  C   -0.497700
    66  H    0.187886
    67  H    0.147637
    68  H    0.131981
    69  C   -0.463665
    70  H    0.152590
    71  H    0.131153
    72  H    0.165768
    73  N   -0.603807
    74  H    0.343085
    75  C   -0.107247
    76  H    0.220997
    77  C    0.625850
    78  C   -0.397924
    79  H    0.207708
    80  H    0.193836
    81  O   -0.513382
    82  C    0.584985
    83  O   -0.446276
    84  O   -0.618263
    85  N   -0.641475
    86  H    0.360664
    87  C   -0.078359
    88  H    0.192925
    89  C    0.616169
    90  C   -0.357537
    91  H    0.182814
    92  H    0.186205
    93  O   -0.521552
    94  C    0.275798
    95  C   -0.013612
    96  H    0.168583
    97  N   -0.556640
    98  H    0.461569
    99  C    0.264316
   100  H    0.197888
   101  N   -0.559193
   102  N   -0.581032
   103  H    0.336391
   104  C   -0.075384
   105  H    0.200550
   106  C    0.627624
   107  C   -0.299616
   108  H    0.134853
   109  H    0.191830
   110  O   -0.622416
   111  C   -0.068705
   112  H    0.085035
   113  C   -0.458739
   114  H    0.155429
   115  H    0.178469
   116  H    0.127555
   117  C   -0.480269
   118  H    0.153593
   119  H    0.177100
   120  H    0.146499
   121  N   -0.570240
   122  H    0.367536
   123  C   -0.098503
   124  H    0.137116
   125  C    0.583459
   126  C   -0.268335
   127  H    0.179961
   128  H    0.122639
   129  O   -0.580429
   130  C   -0.292561
   131  H    0.155776
   132  H    0.200482
   133  C   -0.168002
   134  H    0.158283
   135  H    0.161673
   136  N   -0.622398
   137  H    0.438158
   138  N   -0.761245
   139  H    0.361495
   140  H    0.374280
   141  N   -0.784963
   142  H    0.347148
   143  H    0.416824
   144  C    0.771211
   145  O   -0.606088
   146  H    0.347975
 Sum of Mulliken charges =   1.00000

 Dipole moment (field-independent basis, Debye):
    X=            -55.4166    Y=            -32.7110    Z=             -5.2756  Tot=             64.5665
 Quadrupole moment (field-independent basis, Debye-Ang):
   XX=           -259.3850   YY=           -430.8098   ZZ=           -225.6208
   XY=             41.7043   XZ=            160.9899   YZ=             95.0433

 Normal termination of Gaussian 16 at Sun Jun 12 09:17:41 2022.
