 Gaussian 16, Revision C.01,
 Gaussian 16:  ES64L-G16RevC.01  3-Jul-2019

 ----------------------------------------------------------------------
 # B3LYP/6-31G* empiricaldispersion=gd3 guess=read geom=check nosymm in
 tegral(ultrafinegrid)
 ----------------------------------------------------------------------

 ------------------------------------------------------
 Candidate Structure: Conf:978 Charge calc in gas phase
 ------------------------------------------------------
 Structure from the checkpoint file:  "conf-978.chk"
 Charge =  1 Multiplicity = 1

                          Input orientation:
 ---------------------------------------------------------------------
 Center     Atomic      Atomic             Coordinates (Angstroms)
 Number     Number       Type             X           Y           Z
 ---------------------------------------------------------------------
      1          7           0       -9.591699   -0.232523   -7.682240
      2          1           0       -9.393034   -0.634091   -8.602147
      3          1           0      -10.110558   -0.953222   -7.112655
      4          1           0      -10.101857    0.657171   -7.794911
      5          6           0       -8.356588    0.012251   -6.859354
      6          1           0       -7.506338    0.161641   -7.528440
      7          6           0       -8.233708   -1.249211   -5.972148
      8          6           0       -8.635045    1.267164   -5.999408
      9          1           0       -7.706000    1.593521   -5.520529
     10          1           0       -9.350429    1.008819   -5.211627
     11          8           0       -9.246661   -1.957164   -5.858915
     12          8           0       -9.247461    2.273354   -6.793121
     13          1           0       -8.569178    2.853244   -7.173887
     14          7           0       -7.071574   -1.404815   -5.365294
     15          1           0       -6.280829   -0.752156   -5.462232
     16          6           0       -6.771514   -2.402347   -4.339674
     17          1           0       -7.580205   -2.399767   -3.600073
     18          6           0       -5.467094   -1.867408   -3.693981
     19          6           0       -6.605769   -3.808128   -4.931105
     20          1           0       -6.375615   -4.528601   -4.140874
     21          1           0       -5.786471   -3.822032   -5.656762
     22          1           0       -7.531656   -4.117831   -5.423898
     23          8           0       -4.882368   -0.910801   -4.228074
     24          7           0       -5.059535   -2.520775   -2.612069
     25          1           0       -5.589718   -3.291547   -2.212870
     26          6           0       -3.881172   -2.168615   -1.826842
     27          1           0       -3.096999   -1.797573   -2.492802
     28          6           0       -3.456127   -3.469283   -1.129180
     29          6           0       -4.242488   -1.068395   -0.788221
     30          1           0       -4.990103   -1.493058   -0.107184
     31          8           0       -4.330434   -4.260018   -0.744049
     32          6           0       -3.026146   -0.586279   -0.001883
     33          1           0       -2.600449   -1.387836    0.609206
     34          1           0       -2.237712   -0.247524   -0.682345
     35          1           0       -3.334644    0.238542    0.648683
     36          8           0       -4.920912    0.005779   -1.441998
     37          1           0       -4.352429    0.298271   -2.173834
     38          7           0       -2.136081   -3.617856   -0.994289
     39          1           0       -1.520533   -2.906860   -1.432800
     40          6           0       -1.545378   -4.710265   -0.248707
     41          1           0       -2.378304   -5.197339    0.275915
     42          6           0       -0.670602   -4.083360    0.859376
     43          6           0       -0.861627   -5.775459   -1.154665
     44          1           0        0.154631   -5.427171   -1.374345
     45          8           0       -1.031543   -3.059380    1.443278
     46          6           0       -0.834142   -7.146921   -0.455078
     47          1           0       -1.853402   -7.543672   -0.364874
     48          1           0       -0.414223   -7.105274    0.555854
     49          1           0       -0.247246   -7.867395   -1.036111
     50          6           0       -1.588167   -5.895065   -2.501945
     51          1           0       -2.658038   -6.086117   -2.352753
     52          1           0       -1.479396   -4.977748   -3.086088
     53          1           0       -1.167988   -6.724422   -3.082974
     54          7           0        0.466674   -4.748983    1.229841
     55          1           0        0.894269   -5.335567    0.527247
     56          6           0        1.371566   -4.174874    2.227928
     57          1           0        0.729571   -3.568396    2.872118
     58          6           0        2.344225   -3.216281    1.519564
     59          6           0        2.046187   -5.265139    3.088913
     60          1           0        1.222578   -5.723550    3.655503
     61          8           0        3.544527   -3.483873    1.341292
     62          6           0        3.044233   -4.673441    4.109905
     63          1           0        3.956488   -4.384057    3.577410
     64          1           0        3.324023   -5.478972    4.801399
     65          6           0        2.724486   -6.369644    2.262217
     66          1           0        3.493522   -5.946939    1.610251
     67          1           0        2.001981   -6.918268    1.647721
     68          1           0        3.197896   -7.101909    2.926494
     69          6           0        2.520052   -3.479131    4.918103
     70          1           0        3.227166   -3.207888    5.714017
     71          1           0        2.372962   -2.591062    4.291228
     72          1           0        1.560955   -3.705266    5.399646
     73          7           0        1.779607   -2.063853    1.093067
     74          1           0        0.765743   -2.007311    1.178801
     75          6           0        2.386109   -1.294884   -0.011992
     76          1           0        2.989646   -2.002261   -0.590670
     77          6           0        3.308977   -0.256688    0.635196
     78          6           0        1.300560   -0.724961   -0.911718
     79          1           0        0.669232   -0.017396   -0.363765
     80          1           0        1.762491   -0.153542   -1.724925
     81          8           0        3.079244    0.953602    0.692911
     82          6           0        0.412119   -1.854990   -1.503877
     83          8           0       -0.681731   -1.479268   -2.013882
     84          8           0        0.819736   -3.037876   -1.379817
     85          7           0        4.400843   -0.823113    1.233833
     86          1           0        4.425116   -1.848941    1.237276
     87          6           0        5.059059   -0.101525    2.303645
     88          1           0        4.303283    0.527580    2.793411
     89          6           0        6.165301    0.835500    1.775957
     90          6           0        5.670023   -1.062373    3.335284
     91          1           0        6.591067   -1.485382    2.920033
     92          1           0        4.972418   -1.881021    3.537188
     93          8           0        7.362233    0.547049    1.872141
     94          6           0        5.963372   -0.368222    4.628820
     95          6           0        5.676216   -0.761469    5.908677
     96          1           0        5.194696   -1.654985    6.273213
     97          7           0        6.567842    0.879914    4.742770
     98          1           0        6.893143    1.536489    3.991330
     99          6           0        6.642941    1.233207    6.021628
    100          1           0        7.052818    2.160050    6.390533
    101          7           0        6.113179    0.244622    6.754079
    102          7           0        5.714172    2.026049    1.336887
    103          1           0        4.712715    2.106385    1.155131
    104          6           0        6.622229    3.117854    1.037771
    105          1           0        7.136092    2.925987    0.088441
    106          6           0        7.680508    3.210650    2.154275
    107          6           0        5.814411    4.428895    0.955024
    108          1           0        5.008556    4.278617    0.222661
    109          1           0        5.335775    4.580451    1.931174
    110          8           0        7.406253    3.025602    3.358952
    111          6           0        6.610574    5.689259    0.565800
    112          1           0        7.427082    5.821850    1.289288
    113          6           0        7.226292    5.588523   -0.838258
    114          1           0        6.448090    5.409601   -1.591230
    115          1           0        7.740048    6.519239   -1.100693
    116          1           0        7.964781    4.783862   -0.925568
    117          6           0        5.694587    6.918543    0.661659
    118          1           0        4.860166    6.839867   -0.046847
    119          1           0        6.245983    7.835447    0.426628
    120          1           0        5.271624    7.026549    1.667370
    121          7           0        8.898989    3.564810    1.748711
    122          1           0        9.108457    3.765153    0.774042
    123          6           0       10.039246    3.696930    2.638305
    124          1           0        9.763547    4.379309    3.450773
    125          6           0       11.151667    4.375639    1.803436
    126          6           0       10.485707    2.321381    3.228489
    127          1           0       11.511352    2.105652    2.913055
    128          1           0        9.850290    1.548611    2.785857
    129          8           0       12.267470    4.667379    2.447738
    130          6           0       10.403929    2.214865    4.760523
    131          1           0        9.350888    2.239683    5.066177
    132          1           0       10.808245    1.235727    5.049226
    133          6           0       11.162177    3.329887    5.516839
    134          1           0       10.552980    4.241691    5.526178
    135          1           0       11.278709    3.048182    6.577184
    136          7           0       12.416566    3.671603    4.873834
    137          1           0       12.270252    4.346354    3.428566
    138          7           0       13.728266    2.093240    6.098717
    139          1           0       14.608725    2.105325    6.599042
    140          1           0       12.940469    1.868785    6.689937
    141          7           0       14.703059    3.539757    4.574510
    142          1           0       15.390938    2.822649    4.378766
    143          1           0       14.554125    4.172154    3.796506
    144          6           0       13.541179    3.113254    5.185125
    145          8           0       10.984902    4.617094    0.622347
    146          1           0        6.033598    0.246769    7.762430
 ---------------------------------------------------------------------

 SCF Done:  E(RB3LYP) =  -3503.56125617     A.U. after    3 cycles

 Alpha  occ. eigenvalues --  -19.29248 -19.24269 -19.21720 -19.19431 -19.18549
 Alpha  occ. eigenvalues --  -19.18099 -19.18002 -19.17183 -19.16611 -19.16290
 Alpha  occ. eigenvalues --  -19.14864 -19.13391 -19.08562 -19.08466 -14.58244
 Alpha  occ. eigenvalues --  -14.54197 -14.51466 -14.46657 -14.43372 -14.42946
 Alpha  occ. eigenvalues --  -14.42031 -14.42025 -14.41148 -14.40324 -14.39228
 Alpha  occ. eigenvalues --  -14.39199 -14.38376 -14.36066 -10.41239 -10.40163
 Alpha  occ. eigenvalues --  -10.38945 -10.37820 -10.37313 -10.36553 -10.36323
 Alpha  occ. eigenvalues --  -10.35344 -10.35054 -10.35004 -10.34827 -10.33287
 Alpha  occ. eigenvalues --  -10.32774 -10.31933 -10.31595 -10.30484 -10.30267
 Alpha  occ. eigenvalues --  -10.30087 -10.30008 -10.28937 -10.28836 -10.26966
 Alpha  occ. eigenvalues --  -10.26701 -10.25978 -10.25926 -10.25867 -10.25437
 Alpha  occ. eigenvalues --  -10.25388 -10.25387 -10.25040 -10.24880 -10.24616
 Alpha  occ. eigenvalues --  -10.23369 -10.23165 -10.22602 -10.22417 -10.22304
 Alpha  occ. eigenvalues --  -10.21198 -10.20729 -10.19958 -10.19647 -10.18904
 Alpha  occ. eigenvalues --  -10.17500  -1.17646  -1.17493  -1.15923  -1.13616
 Alpha  occ. eigenvalues --   -1.11866  -1.11419  -1.09966  -1.09817  -1.08685
 Alpha  occ. eigenvalues --   -1.07781  -1.06669  -1.06232  -1.05482  -1.05103
 Alpha  occ. eigenvalues --   -1.04208  -1.03743  -1.03241  -1.01956  -0.99661
 Alpha  occ. eigenvalues --   -0.99088  -0.97843  -0.97589  -0.96355  -0.95455
 Alpha  occ. eigenvalues --   -0.95220  -0.95121  -0.93760  -0.92818  -0.91251
 Alpha  occ. eigenvalues --   -0.90750  -0.87427  -0.85886  -0.85260  -0.85122
 Alpha  occ. eigenvalues --   -0.84833  -0.82376  -0.81874  -0.80317  -0.79549
 Alpha  occ. eigenvalues --   -0.79481  -0.78738  -0.78729  -0.77892  -0.75521
 Alpha  occ. eigenvalues --   -0.74857  -0.74821  -0.74547  -0.73401  -0.73325
 Alpha  occ. eigenvalues --   -0.73259  -0.72566  -0.72064  -0.71606  -0.71029
 Alpha  occ. eigenvalues --   -0.70249  -0.68992  -0.68628  -0.68316  -0.67816
 Alpha  occ. eigenvalues --   -0.67442  -0.66636  -0.66289  -0.65425  -0.64999
 Alpha  occ. eigenvalues --   -0.64465  -0.64387  -0.63837  -0.63203  -0.63023
 Alpha  occ. eigenvalues --   -0.62802  -0.61919  -0.61692  -0.61532  -0.61131
 Alpha  occ. eigenvalues --   -0.60992  -0.60618  -0.60365  -0.60048  -0.59920
 Alpha  occ. eigenvalues --   -0.59316  -0.59142  -0.58918  -0.58016  -0.57901
 Alpha  occ. eigenvalues --   -0.57577  -0.57446  -0.56750  -0.56329  -0.56045
 Alpha  occ. eigenvalues --   -0.55884  -0.55357  -0.55260  -0.54782  -0.54248
 Alpha  occ. eigenvalues --   -0.53791  -0.53137  -0.52801  -0.52675  -0.52448
 Alpha  occ. eigenvalues --   -0.52347  -0.51991  -0.51579  -0.51461  -0.51419
 Alpha  occ. eigenvalues --   -0.51123  -0.50882  -0.50511  -0.50393  -0.50257
 Alpha  occ. eigenvalues --   -0.49724  -0.49493  -0.49390  -0.49117  -0.48742
 Alpha  occ. eigenvalues --   -0.48570  -0.47979  -0.47900  -0.47573  -0.47548
 Alpha  occ. eigenvalues --   -0.47326  -0.47179  -0.47075  -0.46856  -0.46432
 Alpha  occ. eigenvalues --   -0.46208  -0.46121  -0.45850  -0.45690  -0.45462
 Alpha  occ. eigenvalues --   -0.45458  -0.45407  -0.45173  -0.44970  -0.44555
 Alpha  occ. eigenvalues --   -0.44172  -0.43962  -0.43627  -0.43508  -0.43281
 Alpha  occ. eigenvalues --   -0.43072  -0.43039  -0.42987  -0.42555  -0.42466
 Alpha  occ. eigenvalues --   -0.42384  -0.42042  -0.41991  -0.41806  -0.41604
 Alpha  occ. eigenvalues --   -0.41562  -0.41440  -0.41165  -0.40996  -0.40934
 Alpha  occ. eigenvalues --   -0.40785  -0.40634  -0.40110  -0.39919  -0.39432
 Alpha  occ. eigenvalues --   -0.39181  -0.39063  -0.38608  -0.38465  -0.38137
 Alpha  occ. eigenvalues --   -0.37989  -0.37857  -0.37237  -0.37203  -0.36919
 Alpha  occ. eigenvalues --   -0.36671  -0.36638  -0.36352  -0.36240  -0.35709
 Alpha  occ. eigenvalues --   -0.35291  -0.35236  -0.34933  -0.34741  -0.34451
 Alpha  occ. eigenvalues --   -0.34065  -0.33852  -0.33762  -0.32794  -0.32609
 Alpha  occ. eigenvalues --   -0.32300  -0.31852  -0.31762  -0.31505  -0.30872
 Alpha  occ. eigenvalues --   -0.30725  -0.29887  -0.29097  -0.28855  -0.28426
 Alpha  occ. eigenvalues --   -0.27684  -0.27254  -0.26460  -0.24212  -0.23467
 Alpha  occ. eigenvalues --   -0.22686
 Alpha virt. eigenvalues --   -0.12431  -0.10217  -0.09042  -0.07923  -0.06046
 Alpha virt. eigenvalues --   -0.04797  -0.04602  -0.04439  -0.03712  -0.03592
 Alpha virt. eigenvalues --   -0.03550  -0.03176  -0.03113  -0.02616  -0.01767

 Mulliken charges:
               1
     1  N   -0.742435
     2  H    0.414717
     3  H    0.426263
     4  H    0.422437
     5  C   -0.143993
     6  H    0.210504
     7  C    0.652707
     8  C   -0.069762
     9  H    0.209828
    10  H    0.207971
    11  O   -0.543178
    12  O   -0.609872
    13  H    0.427572
    14  N   -0.607569
    15  H    0.372350
    16  C   -0.058495
    17  H    0.194484
    18  C    0.658090
    19  C   -0.453861
    20  H    0.183928
    21  H    0.170255
    22  H    0.178944
    23  O   -0.576179
    24  N   -0.599277
    25  H    0.353684
    26  C   -0.114072
    27  H    0.210599
    28  C    0.610121
    29  C    0.155053
    30  H    0.136792
    31  O   -0.583529
    32  C   -0.504920
    33  H    0.191789
    34  H    0.178335
    35  H    0.135595
    36  O   -0.640483
    37  H    0.395910
    38  N   -0.626772
    39  H    0.429492
    40  C   -0.034565
    41  H    0.186871
    42  C    0.635701
    43  C   -0.114316
    44  H    0.170309
    45  O   -0.542261
    46  C   -0.472269
    47  H    0.151378
    48  H    0.144995
    49  H    0.146160
    50  C   -0.454881
    51  H    0.147792
    52  H    0.165377
    53  H    0.133824
    54  N   -0.610198
    55  H    0.359567
    56  C   -0.082934
    57  H    0.185659
    58  C    0.642299
    59  C   -0.061652
    60  H    0.134285
    61  O   -0.572014
    62  C   -0.269735
    63  H    0.157985
    64  H    0.132565
    65  C   -0.485872
    66  H    0.182703
    67  H    0.146940
    68  H    0.143148
    69  C   -0.467325
    70  H    0.115567
    71  H    0.149211
    72  H    0.160595
    73  N   -0.602047
    74  H    0.381253
    75  C   -0.057215
    76  H    0.193943
    77  C    0.623210
    78  C   -0.396802
    79  H    0.164223
    80  H    0.161377
    81  O   -0.545480
    82  C    0.607495
    83  O   -0.618930
    84  O   -0.606482
    85  N   -0.629878
    86  H    0.390962
    87  C   -0.044904
    88  H    0.166594
    89  C    0.612235
    90  C   -0.388669
    91  H    0.220532
    92  H    0.199389
    93  O   -0.548886
    94  C    0.340853
    95  C   -0.017313
    96  H    0.221725
    97  N   -0.627316
    98  H    0.482432
    99  C    0.302893
   100  H    0.244066
   101  N   -0.551638
   102  N   -0.630310
   103  H    0.381376
   104  C   -0.003703
   105  H    0.171823
   106  C    0.673264
   107  C   -0.297289
   108  H    0.160004
   109  H    0.154504
   110  O   -0.630523
   111  C   -0.088908
   112  H    0.136182
   113  C   -0.452861
   114  H    0.148953
   115  H    0.162761
   116  H    0.143892
   117  C   -0.444088
   118  H    0.148341
   119  H    0.153948
   120  H    0.143400
   121  N   -0.614553
   122  H    0.377435
   123  C   -0.048177
   124  H    0.178600
   125  C    0.598203
   126  C   -0.296189
   127  H    0.164577
   128  H    0.194133
   129  O   -0.622527
   130  C   -0.269627
   131  H    0.126207
   132  H    0.138041
   133  C   -0.164156
   134  H    0.160260
   135  H    0.116524
   136  N   -0.560831
   137  H    0.463282
   138  N   -0.756407
   139  H    0.348585
   140  H    0.344402
   141  N   -0.751802
   142  H    0.341943
   143  H    0.361868
   144  C    0.676367
   145  O   -0.478124
   146  H    0.385648
 Sum of Mulliken charges =   1.00000

 Dipole moment (field-independent basis, Debye):
    X=              0.7982    Y=              6.2924    Z=              0.3072  Tot=              6.3502
 Quadrupole moment (field-independent basis, Debye-Ang):
   XX=             94.7407   YY=           -411.3092   ZZ=            -46.0727
   XY=              8.7948   XZ=            444.4905   YZ=              3.4433

 Normal termination of Gaussian 16 at Sun Jun 12 09:18:03 2022.
