 Gaussian 16, Revision C.01,
 Gaussian 16:  ES64L-G16RevC.01  3-Jul-2019

 ----------------------------------------------------------------------
 # B3LYP/6-31G* empiricaldispersion=gd3 guess=read geom=check nosymm in
 tegral(ultrafinegrid)
 ----------------------------------------------------------------------

 ------------------------------------------------------
 Candidate Structure: Conf:334 Charge calc in gas phase
 ------------------------------------------------------
 Structure from the checkpoint file:  "conf-334.chk"
 Charge =  1 Multiplicity = 1

                          Input orientation:
 ---------------------------------------------------------------------
 Center     Atomic      Atomic             Coordinates (Angstroms)
 Number     Number       Type             X           Y           Z
 ---------------------------------------------------------------------
      1          7           0       -7.796862   -4.635699   -5.579101
      2          1           0       -6.961291   -4.210695   -5.023551
      3          1           0       -8.601212   -4.016970   -5.409752
      4          1           0       -8.016426   -5.550630   -5.174305
      5          6           0       -7.578641   -4.719055   -7.076611
      6          1           0       -7.045331   -5.648809   -7.280205
      7          6           0       -6.588082   -3.586959   -7.431291
      8          6           0       -8.939890   -4.715480   -7.768779
      9          1           0       -9.476021   -5.650890   -7.555080
     10          1           0       -8.786319   -4.644403   -8.852967
     11          8           0       -5.391162   -3.813742   -7.268236
     12          8           0       -9.646624   -3.586236   -7.249318
     13          1           0      -10.548959   -3.565707   -7.605556
     14          7           0       -7.109540   -2.403685   -7.812956
     15          1           0       -8.118709   -2.287859   -7.792759
     16          6           0       -6.277799   -1.189775   -7.946751
     17          1           0       -5.313068   -1.515121   -8.346506
     18          6           0       -6.092552   -0.623421   -6.514528
     19          6           0       -6.946542   -0.183120   -8.870642
     20          1           0       -6.306652    0.695630   -8.983245
     21          1           0       -7.894270    0.160396   -8.445220
     22          1           0       -7.118754   -0.622226   -9.857538
     23          8           0       -6.718745    0.343070   -6.105228
     24          7           0       -5.247575   -1.368944   -5.744387
     25          1           0       -4.841599   -2.210937   -6.144013
     26          6           0       -5.183009   -1.232520   -4.296256
     27          1           0       -5.389022   -0.189100   -4.043855
     28          6           0       -3.769040   -1.666809   -3.890444
     29          6           0       -6.217753   -2.142025   -3.580267
     30          1           0       -6.025654   -2.079770   -2.499939
     31          8           0       -3.483259   -2.880971   -3.933050
     32          6           0       -7.664645   -1.760581   -3.853292
     33          1           0       -7.868764   -0.743770   -3.509375
     34          1           0       -7.887742   -1.785511   -4.924673
     35          1           0       -8.334829   -2.446114   -3.321388
     36          8           0       -6.022178   -3.516172   -3.986873
     37          1           0       -5.030853   -3.642334   -4.005228
     38          7           0       -2.908950   -0.704730   -3.563824
     39          1           0       -3.205082    0.263870   -3.465781
     40          6           0       -1.516818   -0.925999   -3.180069
     41          1           0       -1.433604   -1.943507   -2.784896
     42          6           0       -1.242653    0.135975   -2.097239
     43          6           0       -0.546033   -0.757301   -4.387669
     44          1           0       -0.577356    0.304604   -4.669676
     45          8           0       -1.843452    1.213784   -2.138246
     46          6           0        0.894657   -1.122165   -3.996057
     47          1           0        0.954511   -2.166452   -3.661873
     48          1           0        1.293168   -0.489691   -3.198714
     49          1           0        1.555707   -1.017092   -4.862416
     50          6           0       -1.001481   -1.595067   -5.591882
     51          1           0       -1.061357   -2.657616   -5.332540
     52          1           0       -1.984076   -1.280999   -5.958001
     53          1           0       -0.288750   -1.481305   -6.415683
     54          7           0       -0.327178   -0.182272   -1.167953
     55          1           0        0.203679   -1.046738   -1.214509
     56          6           0        0.178004    0.779985   -0.196211
     57          1           0        0.108289    1.771254   -0.652389
     58          6           0        1.645592    0.397864    0.043788
     59          6           0       -0.678627    0.760333    1.106825
     60          1           0       -1.707779    0.898566    0.745926
     61          8           0        2.044017   -0.747255   -0.177326
     62          6           0       -0.363764    1.916429    2.076891
     63          1           0        0.633392    1.767969    2.508269
     64          1           0       -1.063047    1.824289    2.918260
     65          6           0       -0.576287   -0.590698    1.828731
     66          1           0        0.425451   -0.733538    2.246721
     67          1           0       -0.792973   -1.425798    1.153648
     68          1           0       -1.295729   -0.630903    2.654265
     69          6           0       -0.506443    3.323888    1.481711
     70          1           0       -0.415214    4.086743    2.262148
     71          1           0        0.255875    3.551009    0.724661
     72          1           0       -1.481296    3.451632    0.995963
     73          7           0        2.450439    1.386548    0.498885
     74          1           0        2.017269    2.246513    0.806203
     75          6           0        3.766461    1.086129    1.040752
     76          1           0        4.333690    0.514424    0.303441
     77          6           0        3.629360    0.283329    2.346156
     78          6           0        4.525208    2.391247    1.349409
     79          1           0        4.465467    3.035923    0.462787
     80          1           0        4.051615    2.926550    2.179915
     81          8           0        2.633331    0.351523    3.060967
     82          6           0        6.032769    2.193464    1.661070
     83          8           0        6.618945    1.256999    1.052252
     84          8           0        6.542608    3.011646    2.474159
     85          7           0        4.754106   -0.417847    2.691493
     86          1           0        5.579897   -0.239682    2.110457
     87          6           0        5.059105   -0.595714    4.102272
     88          1           0        4.267693   -0.111676    4.682462
     89          6           0        6.427789    0.044173    4.319979
     90          6           0        5.117127   -2.083245    4.557202
     91          1           0        4.191540   -2.568021    4.235416
     92          1           0        5.143198   -2.109810    5.653395
     93          8           0        7.283127   -0.081265    3.446709
     94          6           0        6.285390   -2.847481    4.022119
     95          6           0        6.354076   -3.770765    3.016368
     96          1           0        5.583464   -4.179050    2.382687
     97          7           0        7.581618   -2.691036    4.497851
     98          1           0        7.978120   -1.930605    5.139381
     99          6           0        8.407046   -3.461380    3.803713
    100          1           0        9.477320   -3.501044    3.928092
    101          7           0        7.684459   -4.140599    2.901099
    102          7           0        6.698897    0.631130    5.502673
    103          1           0        5.953939    0.849752    6.148983
    104          6           0        7.984998    1.305600    5.634757
    105          1           0        8.044353    2.040225    4.824143
    106          6           0        9.132258    0.295169    5.396831
    107          6           0        8.103488    2.013101    6.988176
    108          1           0        8.070889    1.263914    7.790816
    109          1           0        9.098721    2.473404    7.027608
    110          8           0        9.044666   -0.917995    5.710277
    111          6           0        7.041922    3.107611    7.235098
    112          1           0        6.050413    2.629724    7.308397
    113          6           0        7.313889    3.787495    8.584817
    114          1           0        8.277732    4.311347    8.564445
    115          1           0        6.537891    4.525419    8.816546
    116          1           0        7.345571    3.059433    9.404283
    117          6           0        6.986444    4.138199    6.095893
    118          1           0        7.973301    4.594983    5.944866
    119          1           0        6.285133    4.942679    6.344941
    120          1           0        6.668186    3.706899    5.139821
    121          7           0       10.190592    0.862892    4.848427
    122          1           0       10.207566    1.873443    4.656597
    123          6           0       11.413981    0.290228    4.292720
    124          1           0       12.110577    0.060391    5.111206
    125          6           0       12.038330    1.474899    3.460739
    126          6           0       11.239410   -0.988284    3.460302
    127          1           0       11.037330   -1.816638    4.152773
    128          1           0       12.219729   -1.167040    3.008838
    129          8           0       12.815023    1.146256    2.525805
    130          6           0       10.156547   -1.026530    2.362788
    131          1           0       10.226243   -2.021166    1.895213
    132          1           0        9.163593   -0.959776    2.810768
    133          6           0       10.224618   -0.002064    1.211135
    134          1           0       11.262036    0.210874    0.959287
    135          1           0        9.743104   -0.436280    0.324641
    136          7           0        9.517606    1.239152    1.530895
    137          1           0        8.492106    1.154409    1.611745
    138          7           0       11.224789    2.735176    0.895577
    139          1           0       11.502185    3.701074    1.025109
    140          1           0       11.961923    2.120760    1.293621
    141          7           0        9.094230    3.494260    1.490070
    142          1           0        9.469784    4.423381    1.609062
    143          1           0        8.155933    3.311265    1.901486
    144          6           0        9.963491    2.483674    1.327554
    145          8           0       11.637834    2.624548    3.767778
    146          1           0        8.062616   -4.800093    2.234821
 ---------------------------------------------------------------------

 SCF Done:  E(RB3LYP) =  -3503.60873544     A.U. after    3 cycles

 Alpha  occ. eigenvalues --  -19.31958 -19.26996 -19.24981 -19.22005 -19.21478
 Alpha  occ. eigenvalues --  -19.18299 -19.17509 -19.17158 -19.16699 -19.16298
 Alpha  occ. eigenvalues --  -19.11484 -19.11447 -19.09679 -19.09494 -14.57900
 Alpha  occ. eigenvalues --  -14.51520 -14.49324 -14.48271 -14.45637 -14.45414
 Alpha  occ. eigenvalues --  -14.42268 -14.42249 -14.41071 -14.39932 -14.38403
 Alpha  occ. eigenvalues --  -14.38128 -14.37251 -14.36711 -10.42665 -10.40288
 Alpha  occ. eigenvalues --  -10.40012 -10.38804 -10.38587 -10.37360 -10.35468
 Alpha  occ. eigenvalues --  -10.35444 -10.34419 -10.34278 -10.34256 -10.33979
 Alpha  occ. eigenvalues --  -10.33587 -10.33210 -10.32895 -10.32874 -10.32612
 Alpha  occ. eigenvalues --  -10.30790 -10.29974 -10.29773 -10.28883 -10.28478
 Alpha  occ. eigenvalues --  -10.28317 -10.27706 -10.27625 -10.27530 -10.27248
 Alpha  occ. eigenvalues --  -10.26582 -10.24633 -10.24204 -10.23980 -10.23846
 Alpha  occ. eigenvalues --  -10.23675 -10.23552 -10.23337 -10.22349 -10.22279
 Alpha  occ. eigenvalues --  -10.22190 -10.21397 -10.21368 -10.21110 -10.20907
 Alpha  occ. eigenvalues --  -10.20375  -1.19267  -1.17197  -1.15031  -1.14976
 Alpha  occ. eigenvalues --   -1.13409  -1.12825  -1.11827  -1.10534  -1.10350
 Alpha  occ. eigenvalues --   -1.09138  -1.08038  -1.06996  -1.05438  -1.04677
 Alpha  occ. eigenvalues --   -1.03560  -1.02400  -1.02388  -1.01630  -1.01452
 Alpha  occ. eigenvalues --   -0.98853  -0.98521  -0.97635  -0.97347  -0.95875
 Alpha  occ. eigenvalues --   -0.95777  -0.93876  -0.92573  -0.92517  -0.90348
 Alpha  occ. eigenvalues --   -0.89193  -0.89080  -0.87626  -0.86979  -0.85826
 Alpha  occ. eigenvalues --   -0.85620  -0.83807  -0.82705  -0.81813  -0.81270
 Alpha  occ. eigenvalues --   -0.80518  -0.79557  -0.79464  -0.77570  -0.76164
 Alpha  occ. eigenvalues --   -0.75720  -0.75694  -0.75214  -0.74656  -0.74550
 Alpha  occ. eigenvalues --   -0.73247  -0.71998  -0.71693  -0.71558  -0.70958
 Alpha  occ. eigenvalues --   -0.70847  -0.70161  -0.69835  -0.68649  -0.68374
 Alpha  occ. eigenvalues --   -0.68309  -0.67679  -0.67242  -0.66355  -0.66179
 Alpha  occ. eigenvalues --   -0.66043  -0.65249  -0.64977  -0.64629  -0.64153
 Alpha  occ. eigenvalues --   -0.63929  -0.63014  -0.62134  -0.62035  -0.61331
 Alpha  occ. eigenvalues --   -0.60999  -0.60860  -0.60549  -0.60382  -0.60086
 Alpha  occ. eigenvalues --   -0.59586  -0.59226  -0.58912  -0.58105  -0.57802
 Alpha  occ. eigenvalues --   -0.57530  -0.56951  -0.56575  -0.56416  -0.56252
 Alpha  occ. eigenvalues --   -0.55960  -0.55306  -0.55073  -0.55001  -0.54604
 Alpha  occ. eigenvalues --   -0.54159  -0.54105  -0.53864  -0.53532  -0.53105
 Alpha  occ. eigenvalues --   -0.52979  -0.52779  -0.52521  -0.52136  -0.51770
 Alpha  occ. eigenvalues --   -0.51625  -0.51283  -0.51211  -0.51008  -0.50558
 Alpha  occ. eigenvalues --   -0.50524  -0.49911  -0.49807  -0.49698  -0.49584
 Alpha  occ. eigenvalues --   -0.49403  -0.49218  -0.49037  -0.48932  -0.48790
 Alpha  occ. eigenvalues --   -0.48314  -0.48097  -0.48072  -0.47683  -0.47462
 Alpha  occ. eigenvalues --   -0.47333  -0.47236  -0.47007  -0.46842  -0.46664
 Alpha  occ. eigenvalues --   -0.46600  -0.46336  -0.46222  -0.45964  -0.45599
 Alpha  occ. eigenvalues --   -0.45502  -0.45290  -0.45097  -0.44918  -0.44713
 Alpha  occ. eigenvalues --   -0.44585  -0.44407  -0.44283  -0.44256  -0.44112
 Alpha  occ. eigenvalues --   -0.43853  -0.43434  -0.42971  -0.42476  -0.42337
 Alpha  occ. eigenvalues --   -0.42151  -0.41973  -0.41581  -0.41461  -0.41248
 Alpha  occ. eigenvalues --   -0.41210  -0.41084  -0.41023  -0.40311  -0.40197
 Alpha  occ. eigenvalues --   -0.40150  -0.39983  -0.39897  -0.39862  -0.39593
 Alpha  occ. eigenvalues --   -0.38812  -0.38723  -0.38530  -0.37922  -0.37708
 Alpha  occ. eigenvalues --   -0.37482  -0.37407  -0.36894  -0.36721  -0.36705
 Alpha  occ. eigenvalues --   -0.36606  -0.36324  -0.36196  -0.35497  -0.34831
 Alpha  occ. eigenvalues --   -0.34770  -0.34264  -0.34170  -0.32666  -0.32410
 Alpha  occ. eigenvalues --   -0.32357  -0.31966  -0.31243  -0.30744  -0.30541
 Alpha  occ. eigenvalues --   -0.30079  -0.29663  -0.29328  -0.29090  -0.27685
 Alpha  occ. eigenvalues --   -0.27121  -0.26141  -0.25655  -0.25401  -0.24226
 Alpha  occ. eigenvalues --   -0.23705
 Alpha virt. eigenvalues --   -0.13475  -0.09674  -0.09568  -0.08205  -0.06952
 Alpha virt. eigenvalues --   -0.06357  -0.06154  -0.04483  -0.04430  -0.04251
 Alpha virt. eigenvalues --   -0.03059  -0.02698  -0.02236  -0.01700  -0.01672

 Mulliken charges:
               1
     1  N   -0.796732
     2  H    0.481608
     3  H    0.413442
     4  H    0.403173
     5  C   -0.089115
     6  H    0.233422
     7  C    0.599456
     8  C   -0.073992
     9  H    0.178082
    10  H    0.201433
    11  O   -0.507933
    12  O   -0.635202
    13  H    0.442175
    14  N   -0.596456
    15  H    0.370525
    16  C   -0.075375
    17  H    0.199614
    18  C    0.622872
    19  C   -0.462441
    20  H    0.192731
    21  H    0.176023
    22  H    0.164428
    23  O   -0.506440
    24  N   -0.626536
    25  H    0.381438
    26  C   -0.090211
    27  H    0.195490
    28  C    0.651756
    29  C    0.152590
    30  H    0.165385
    31  O   -0.578807
    32  C   -0.490300
    33  H    0.202433
    34  H    0.139585
    35  H    0.151962
    36  O   -0.709674
    37  H    0.453628
    38  N   -0.598969
    39  H    0.366030
    40  C   -0.059885
    41  H    0.175303
    42  C    0.624859
    43  C   -0.073727
    44  H    0.147754
    45  O   -0.552331
    46  C   -0.469514
    47  H    0.147180
    48  H    0.170544
    49  H    0.161201
    50  C   -0.451869
    51  H    0.162413
    52  H    0.136686
    53  H    0.155045
    54  N   -0.609187
    55  H    0.358256
    56  C   -0.079156
    57  H    0.181677
    58  C    0.646705
    59  C   -0.065249
    60  H    0.141360
    61  O   -0.559146
    62  C   -0.291084
    63  H    0.174606
    64  H    0.140589
    65  C   -0.474141
    66  H    0.190080
    67  H    0.131391
    68  H    0.141844
    69  C   -0.465149
    70  H    0.157149
    71  H    0.133210
    72  H    0.157543
    73  N   -0.615470
    74  H    0.348148
    75  C   -0.040240
    76  H    0.195562
    77  C    0.610307
    78  C   -0.383646
    79  H    0.172187
    80  H    0.156189
    81  O   -0.526826
    82  C    0.610155
    83  O   -0.595249
    84  O   -0.609874
    85  N   -0.617792
    86  H    0.392356
    87  C   -0.053495
    88  H    0.181038
    89  C    0.625390
    90  C   -0.354381
    91  H    0.193787
    92  H    0.178225
    93  O   -0.521653
    94  C    0.337685
    95  C   -0.007958
    96  H    0.209833
    97  N   -0.594582
    98  H    0.450051
    99  C    0.308837
   100  H    0.247112
   101  N   -0.552952
   102  N   -0.621162
   103  H    0.338923
   104  C   -0.053445
   105  H    0.206384
   106  C    0.671409
   107  C   -0.296481
   108  H    0.148075
   109  H    0.166295
   110  O   -0.638203
   111  C   -0.081218
   112  H    0.105482
   113  C   -0.442057
   114  H    0.152520
   115  H    0.148824
   116  H    0.142169
   117  C   -0.473181
   118  H    0.149351
   119  H    0.145270
   120  H    0.188349
   121  N   -0.604081
   122  H    0.371486
   123  C   -0.028637
   124  H    0.161476
   125  C    0.595118
   126  C   -0.273719
   127  H    0.112805
   128  H    0.172017
   129  O   -0.605145
   130  C   -0.310513
   131  H    0.094667
   132  H    0.194530
   133  C   -0.147038
   134  H    0.197743
   135  H    0.145754
   136  N   -0.623977
   137  H    0.416209
   138  N   -0.749649
   139  H    0.331133
   140  H    0.396308
   141  N   -0.806698
   142  H    0.335581
   143  H    0.421903
   144  C    0.737435
   145  O   -0.601331
   146  H    0.380521
 Sum of Mulliken charges =   1.00000

 Dipole moment (field-independent basis, Debye):
    X=            -31.3931    Y=            -25.3915    Z=            -20.0444  Tot=             45.0781
 Quadrupole moment (field-independent basis, Debye-Ang):
   XX=           -187.0172   YY=           -295.5324   ZZ=           -195.0255
   XY=             69.4774   XZ=            240.7801   YZ=             84.5134

 Normal termination of Gaussian 16 at Sun Jun 12 09:17:50 2022.
