 Gaussian 16, Revision C.01,
 Gaussian 16:  ES64L-G16RevC.01  3-Jul-2019

 ----------------------------------------------------------------------
 # B3LYP/6-31G* empiricaldispersion=gd3 guess=read geom=check nosymm in
 tegral(ultrafinegrid)
 ----------------------------------------------------------------------

 ------------------------------------------------------
 Candidate Structure: Conf:474 Charge calc in gas phase
 ------------------------------------------------------
 Structure from the checkpoint file:  "conf-474.chk"
 Charge =  1 Multiplicity = 1

                          Input orientation:
 ---------------------------------------------------------------------
 Center     Atomic      Atomic             Coordinates (Angstroms)
 Number     Number       Type             X           Y           Z
 ---------------------------------------------------------------------
      1          7           0      -10.931391   -1.986463   -2.161576
      2          1           0      -11.745347   -2.162743   -2.758171
      3          1           0      -10.171305   -2.684374   -2.405738
      4          1           0      -11.218711   -2.089105   -1.182679
      5          6           0      -10.253167   -0.667069   -2.450294
      6          1           0      -10.942214   -0.008674   -2.982040
      7          6           0       -9.024887   -1.070025   -3.284969
      8          6           0       -9.784841    0.007313   -1.123250
      9          1           0       -9.181480   -0.720608   -0.559833
     10          1           0      -10.674081    0.262884   -0.533063
     11          8           0       -8.683772   -2.259438   -3.277476
     12          8           0       -9.077912    1.175269   -1.408311
     13          1           0       -8.124256    0.920516   -1.472216
     14          7           0       -8.373101   -0.074754   -3.902314
     15          1           0       -8.670229    0.864567   -3.652830
     16          6           0       -6.952367   -0.233841   -4.218079
     17          1           0       -6.843478   -1.150995   -4.803370
     18          6           0       -6.174861   -0.389835   -2.887588
     19          6           0       -6.445263    0.974032   -5.012879
     20          1           0       -5.387119    0.849087   -5.258402
     21          1           0       -6.546317    1.895166   -4.427347
     22          1           0       -7.006923    1.082109   -5.944992
     23          8           0       -6.657286   -0.022589   -1.804975
     24          7           0       -4.961019   -0.937670   -3.008622
     25          1           0       -4.528367   -1.056714   -3.927696
     26          6           0       -3.962543   -0.950244   -1.946093
     27          1           0       -4.167883   -0.127461   -1.253239
     28          6           0       -2.610433   -0.763785   -2.667873
     29          6           0       -3.954739   -2.294179   -1.163942
     30          1           0       -3.195013   -2.209164   -0.379147
     31          8           0       -2.547113   -0.876811   -3.894492
     32          6           0       -5.306709   -2.619337   -0.531350
     33          1           0       -5.636739   -1.818102    0.137029
     34          1           0       -6.074043   -2.748046   -1.304462
     35          1           0       -5.223719   -3.552199    0.033604
     36          8           0       -3.490820   -3.352185   -1.992930
     37          1           0       -4.138877   -3.478274   -2.705477
     38          7           0       -1.568617   -0.512921   -1.860357
     39          1           0       -1.689801   -0.551922   -0.852362
     40          6           0       -0.178580   -0.704618   -2.268134
     41          1           0       -0.197098   -1.204167   -3.242930
     42          6           0        0.401867   -1.629532   -1.183829
     43          6           0        0.611868    0.629621   -2.392950
     44          1           0        0.794460    1.013849   -1.383146
     45          8           0       -0.041273   -1.596701   -0.035079
     46          6           0        1.974082    0.400452   -3.063490
     47          1           0        1.850625    0.017568   -4.086431
     48          1           0        2.602012   -0.296471   -2.500784
     49          1           0        2.520810    1.345437   -3.106044
     50          6           0       -0.199030    1.662373   -3.186019
     51          1           0       -0.432798    1.294433   -4.192836
     52          1           0       -1.143413    1.903069   -2.688068
     53          1           0        0.378732    2.587389   -3.279362
     54          7           0        1.392356   -2.474121   -1.568853
     55          1           0        1.734505   -2.413479   -2.518196
     56          6           0        2.117444   -3.318264   -0.622621
     57          1           0        1.630583   -3.132604    0.341158
     58          6           0        3.567391   -2.792503   -0.493574
     59          6           0        2.038652   -4.829322   -0.947761
     60          1           0        2.801452   -5.040416   -1.709726
     61          8           0        4.562639   -3.546452   -0.541487
     62          6           0        0.667340   -5.240174   -1.528841
     63          1           0        0.729232   -6.301336   -1.806070
     64          1           0        0.503299   -4.692991   -2.464356
     65          6           0        2.388882   -5.642061    0.309988
     66          1           0        1.629813   -5.512506    1.088964
     67          1           0        3.344875   -5.320038    0.731333
     68          1           0        2.445605   -6.712127    0.076317
     69          6           0       -0.542634   -5.024270   -0.606498
     70          1           0       -1.476181   -5.186282   -1.155233
     71          1           0       -0.530656   -5.714410    0.244560
     72          1           0       -0.578003   -4.005228   -0.209369
     73          7           0        3.646642   -1.467923   -0.356630
     74          1           0        2.829491   -0.896464   -0.070489
     75          6           0        4.905792   -0.778808   -0.139362
     76          1           0        5.577821   -1.057317   -0.959162
     77          6           0        5.509871   -1.297142    1.172593
     78          6           0        4.730213    0.777543   -0.134462
     79          1           0        5.180249    1.199934    0.773855
     80          1           0        5.266231    1.206083   -0.983247
     81          8           0        4.835444   -1.542097    2.162877
     82          6           0        3.281358    1.344121   -0.170491
     83          8           0        2.386930    0.648811    0.472835
     84          8           0        3.086602    2.404349   -0.754263
     85          7           0        6.866224   -1.521505    1.122406
     86          1           0        7.383726   -1.102471    0.358199
     87          6           0        7.637914   -1.935721    2.286846
     88          1           0        6.900017   -2.254208    3.031311
     89          6           0        8.458295   -0.783702    2.933079
     90          6           0        8.557680   -3.111277    1.922784
     91          1           0        9.243340   -3.282701    2.756093
     92          1           0        9.181423   -2.828341    1.063663
     93          8           0        9.482050   -1.029925    3.564063
     94          6           0        7.817786   -4.374897    1.615870
     95          6           0        8.064755   -5.655223    2.033856
     96          1           0        8.834959   -6.044189    2.680596
     97          7           0        6.697891   -4.459925    0.795838
     98          1           0        6.157515   -3.706889    0.335943
     99          6           0        6.276793   -5.718404    0.716866
    100          1           0        5.416086   -6.047520    0.157161
    101          7           0        7.099600   -6.467585    1.460648
    102          7           0        7.904228    0.422277    2.720679
    103          1           0        6.933250    0.453537    2.408339
    104          6           0        8.222563    1.671858    3.401395
    105          1           0        8.606863    1.455033    4.404213
    106          6           0        6.851890    2.395604    3.513273
    107          6           0        9.233917    2.526974    2.611826
    108          1           0        8.793294    2.730243    1.626052
    109          1           0        9.338193    3.499915    3.108616
    110          8           0        5.825151    1.835887    3.043361
    111          6           0       10.631544    1.905726    2.435469
    112          1           0       10.512381    0.914552    1.975617
    113          6           0       11.461987    2.780412    1.484256
    114          1           0       11.605995    3.783974    1.903965
    115          1           0       12.453745    2.344844    1.315199
    116          1           0       10.971682    2.895597    0.509624
    117          6           0       11.354228    1.718403    3.776813
    118          1           0       11.428674    2.671946    4.315658
    119          1           0       12.372957    1.346619    3.615685
    120          1           0       10.839524    0.991100    4.410546
    121          7           0        6.848335    3.588604    4.074139
    122          1           0        7.683876    4.138751    4.353060
    123          6           0        5.723997    4.519392    4.036250
    124          1           0        5.394612    4.604354    2.992234
    125          6           0        6.291471    5.915578    4.502236
    126          6           0        4.540833    4.057970    4.896491
    127          1           0        4.659787    4.425659    5.922341
    128          1           0        4.565873    2.963224    4.930087
    129          8           0        5.422060    6.787236    4.680204
    130          6           0        3.201880    4.534354    4.323131
    131          1           0        3.104695    5.609206    4.503820
    132          1           0        3.204240    4.393078    3.233130
    133          6           0        2.005351    3.763755    4.889586
    134          1           0        1.897873    3.912483    5.968394
    135          1           0        1.063109    4.086994    4.434355
    136          7           0        2.156747    2.301035    4.694525
    137          1           0        2.814959    1.876955    5.336368
    138          7           0        1.323865    2.065216    2.523121
    139          1           0        1.472438    1.689769    1.568212
    140          1           0        0.561209    2.690081    2.732482
    141          7           0        3.077306    0.732390    3.239039
    142          1           0        3.017123    0.305781    2.311105
    143          1           0        4.037042    0.892258    3.546809
    144          6           0        2.196387    1.723005    3.468183
    145          8           0        7.546041    5.940076    4.640353
    146          1           0        7.018011   -7.468101    1.585744
 ---------------------------------------------------------------------

 SCF Done:  E(RB3LYP) =  -3503.54146591     A.U. after    1 cycles

 Alpha  occ. eigenvalues --  -19.28610 -19.27141 -19.24561 -19.23100 -19.20540
 Alpha  occ. eigenvalues --  -19.20256 -19.19331 -19.19073 -19.16700 -19.15115
 Alpha  occ. eigenvalues --  -19.14328 -19.12604 -19.04570 -19.03542 -14.62067
 Alpha  occ. eigenvalues --  -14.54432 -14.52011 -14.50820 -14.47164 -14.44446
 Alpha  occ. eigenvalues --  -14.43865 -14.43558 -14.41967 -14.41767 -14.41426
 Alpha  occ. eigenvalues --  -14.39781 -14.39760 -14.36329 -10.44955 -10.41582
 Alpha  occ. eigenvalues --  -10.41083 -10.40286 -10.39095 -10.37707 -10.37252
 Alpha  occ. eigenvalues --  -10.36512 -10.36419 -10.36199 -10.36080 -10.35693
 Alpha  occ. eigenvalues --  -10.35188 -10.34052 -10.33020 -10.32610 -10.31531
 Alpha  occ. eigenvalues --  -10.31315 -10.31182 -10.30281 -10.30242 -10.30170
 Alpha  occ. eigenvalues --  -10.29831 -10.29410 -10.26991 -10.26580 -10.26227
 Alpha  occ. eigenvalues --  -10.26196 -10.24628 -10.24345 -10.24171 -10.23649
 Alpha  occ. eigenvalues --  -10.22540 -10.22500 -10.22010 -10.21847 -10.21110
 Alpha  occ. eigenvalues --  -10.21034 -10.20362 -10.20068 -10.19296 -10.19086
 Alpha  occ. eigenvalues --  -10.18592  -1.21059  -1.18003  -1.16236  -1.15944
 Alpha  occ. eigenvalues --   -1.14841  -1.12406  -1.11985  -1.11150  -1.10718
 Alpha  occ. eigenvalues --   -1.10453  -1.08484  -1.07736  -1.06871  -1.06186
 Alpha  occ. eigenvalues --   -1.05921  -1.04662  -1.03658  -1.00936  -1.00923
 Alpha  occ. eigenvalues --   -1.00343  -0.99168  -0.97753  -0.97552  -0.96609
 Alpha  occ. eigenvalues --   -0.95917  -0.93904  -0.93219  -0.93038  -0.91707
 Alpha  occ. eigenvalues --   -0.89701  -0.88965  -0.88073  -0.86754  -0.86048
 Alpha  occ. eigenvalues --   -0.85094  -0.83438  -0.83298  -0.81250  -0.81225
 Alpha  occ. eigenvalues --   -0.80966  -0.79952  -0.79266  -0.78758  -0.78228
 Alpha  occ. eigenvalues --   -0.77019  -0.76270  -0.75747  -0.75622  -0.74708
 Alpha  occ. eigenvalues --   -0.74059  -0.73709  -0.73464  -0.72941  -0.71907
 Alpha  occ. eigenvalues --   -0.71344  -0.70233  -0.69874  -0.69630  -0.69045
 Alpha  occ. eigenvalues --   -0.68729  -0.68074  -0.67832  -0.67440  -0.67082
 Alpha  occ. eigenvalues --   -0.66966  -0.66234  -0.65693  -0.65219  -0.64368
 Alpha  occ. eigenvalues --   -0.63747  -0.63601  -0.63208  -0.62891  -0.62562
 Alpha  occ. eigenvalues --   -0.62396  -0.61423  -0.61205  -0.61027  -0.60425
 Alpha  occ. eigenvalues --   -0.59506  -0.59208  -0.59139  -0.58762  -0.58700
 Alpha  occ. eigenvalues --   -0.58335  -0.58295  -0.57907  -0.57838  -0.57587
 Alpha  occ. eigenvalues --   -0.56887  -0.56821  -0.56266  -0.55634  -0.55486
 Alpha  occ. eigenvalues --   -0.55261  -0.55018  -0.54755  -0.54619  -0.54338
 Alpha  occ. eigenvalues --   -0.54005  -0.53871  -0.53327  -0.53022  -0.52606
 Alpha  occ. eigenvalues --   -0.52268  -0.52098  -0.51786  -0.51592  -0.51272
 Alpha  occ. eigenvalues --   -0.50889  -0.50701  -0.50670  -0.50021  -0.49957
 Alpha  occ. eigenvalues --   -0.49704  -0.49596  -0.49271  -0.49201  -0.48896
 Alpha  occ. eigenvalues --   -0.48606  -0.48008  -0.47874  -0.47792  -0.47440
 Alpha  occ. eigenvalues --   -0.47121  -0.47017  -0.46765  -0.46571  -0.46414
 Alpha  occ. eigenvalues --   -0.46270  -0.46120  -0.45911  -0.45769  -0.45622
 Alpha  occ. eigenvalues --   -0.45282  -0.45217  -0.44895  -0.44862  -0.44739
 Alpha  occ. eigenvalues --   -0.44666  -0.44486  -0.44324  -0.44182  -0.43987
 Alpha  occ. eigenvalues --   -0.43940  -0.43288  -0.43120  -0.43088  -0.42850
 Alpha  occ. eigenvalues --   -0.42599  -0.42317  -0.42081  -0.41558  -0.41486
 Alpha  occ. eigenvalues --   -0.41144  -0.40581  -0.40371  -0.40010  -0.39757
 Alpha  occ. eigenvalues --   -0.39732  -0.39521  -0.39003  -0.38924  -0.38764
 Alpha  occ. eigenvalues --   -0.38707  -0.38319  -0.38116  -0.38000  -0.37975
 Alpha  occ. eigenvalues --   -0.37818  -0.36883  -0.36549  -0.35719  -0.35691
 Alpha  occ. eigenvalues --   -0.35613  -0.35367  -0.35285  -0.34764  -0.34663
 Alpha  occ. eigenvalues --   -0.34431  -0.34360  -0.34265  -0.33974  -0.33573
 Alpha  occ. eigenvalues --   -0.32894  -0.32591  -0.32353  -0.32119  -0.31367
 Alpha  occ. eigenvalues --   -0.31295  -0.30463  -0.29706  -0.29382  -0.29021
 Alpha  occ. eigenvalues --   -0.28866  -0.27104  -0.26448  -0.19678  -0.19498
 Alpha  occ. eigenvalues --   -0.17979
 Alpha virt. eigenvalues --   -0.14316  -0.12777  -0.12654  -0.10092  -0.08378
 Alpha virt. eigenvalues --   -0.07680  -0.06896  -0.06089  -0.05206  -0.04850
 Alpha virt. eigenvalues --   -0.04749  -0.04276  -0.03919  -0.03491  -0.03034

 Mulliken charges:
               1
     1  N   -0.757208
     2  H    0.423963
     3  H    0.433248
     4  H    0.418890
     5  C   -0.136910
     6  H    0.227346
     7  C    0.644992
     8  C   -0.039216
     9  H    0.172825
    10  H    0.179869
    11  O   -0.533009
    12  O   -0.625582
    13  H    0.453133
    14  N   -0.569952
    15  H    0.361349
    16  C   -0.084409
    17  H    0.204883
    18  C    0.657019
    19  C   -0.479356
    20  H    0.200654
    21  H    0.176885
    22  H    0.191806
    23  O   -0.576035
    24  N   -0.610800
    25  H    0.369564
    26  C   -0.103768
    27  H    0.185805
    28  C    0.651569
    29  C    0.132760
    30  H    0.170403
    31  O   -0.548903
    32  C   -0.463931
    33  H    0.158146
    34  H    0.137779
    35  H    0.171905
    36  O   -0.609401
    37  H    0.392446
    38  N   -0.602192
    39  H    0.356230
    40  C   -0.066402
    41  H    0.169687
    42  C    0.654777
    43  C   -0.084951
    44  H    0.185506
    45  O   -0.550821
    46  C   -0.485282
    47  H    0.126234
    48  H    0.136640
    49  H    0.195917
    50  C   -0.448642
    51  H    0.145751
    52  H    0.134492
    53  H    0.170477
    54  N   -0.607944
    55  H    0.338745
    56  C   -0.071187
    57  H    0.215709
    58  C    0.633979
    59  C   -0.079718
    60  H    0.128987
    61  O   -0.612091
    62  C   -0.249407
    63  H    0.133212
    64  H    0.131679
    65  C   -0.473058
    66  H    0.163913
    67  H    0.140930
    68  H    0.139783
    69  C   -0.481399
    70  H    0.162127
    71  H    0.139370
    72  H    0.174140
    73  N   -0.612797
    74  H    0.429281
    75  C   -0.044067
    76  H    0.153278
    77  C    0.590472
    78  C   -0.434656
    79  H    0.217911
    80  H    0.173153
    81  O   -0.509663
    82  C    0.632507
    83  O   -0.672912
    84  O   -0.527895
    85  N   -0.637600
    86  H    0.342494
    87  C   -0.081688
    88  H    0.215019
    89  C    0.621527
    90  C   -0.362218
    91  H    0.219117
    92  H    0.184627
    93  O   -0.528708
    94  C    0.349484
    95  C   -0.013151
    96  H    0.221370
    97  N   -0.604276
    98  H    0.438412
    99  C    0.312525
   100  H    0.256452
   101  N   -0.553339
   102  N   -0.628426
   103  H    0.377931
   104  C   -0.062965
   105  H    0.184577
   106  C    0.621356
   107  C   -0.259622
   108  H    0.131976
   109  H    0.173039
   110  O   -0.616449
   111  C   -0.066261
   112  H    0.117217
   113  C   -0.444747
   114  H    0.155585
   115  H    0.139126
   116  H    0.133215
   117  C   -0.457982
   118  H    0.144487
   119  H    0.137504
   120  H    0.167039
   121  N   -0.609148
   122  H    0.369404
   123  C   -0.055565
   124  H    0.148686
   125  C    0.576171
   126  C   -0.251124
   127  H    0.156153
   128  H    0.089405
   129  O   -0.587681
   130  C   -0.272850
   131  H    0.200432
   132  H    0.145014
   133  C   -0.178383
   134  H    0.171863
   135  H    0.147037
   136  N   -0.577802
   137  H    0.348448
   138  N   -0.758164
   139  H    0.421909
   140  H    0.349572
   141  N   -0.786264
   142  H    0.383497
   143  H    0.388493
   144  C    0.739774
   145  O   -0.611749
   146  H    0.387663
 Sum of Mulliken charges =   1.00000

 Dipole moment (field-independent basis, Debye):
    X=            -37.6629    Y=            -36.4687    Z=            -15.8025  Tot=             54.7556
 Quadrupole moment (field-independent basis, Debye-Ang):
   XX=             64.3904   YY=           -415.2753   ZZ=           -411.3517
   XY=           -161.4641   XZ=             49.9918   YZ=            -73.2733

 Normal termination of Gaussian 16 at Sun Jun 12 09:16:20 2022.
