 Gaussian 16, Revision C.01,
 Gaussian 16:  ES64L-G16RevC.01  3-Jul-2019

 -------------------------------------------------------------------
 # B3LYP/6-31G* guess=read geom=check nosymm integral(ultrafinegrid)
 -------------------------------------------------------------------

 -----------------------------------------------------
 Candidate Structure: Conf:60 Charge calc in gas phase
 -----------------------------------------------------
 Structure from the checkpoint file:  "conf-60.chk"
 Charge =  1 Multiplicity = 1

                          Input orientation:
 ---------------------------------------------------------------------
 Center     Atomic      Atomic             Coordinates (Angstroms)
 Number     Number       Type             X           Y           Z
 ---------------------------------------------------------------------
      1          7           0       -9.632544    2.484860   -2.196083
      2          1           0      -10.256127    3.212896   -2.556646
      3          1           0      -10.086460    1.532236   -2.337755
      4          1           0       -9.470320    2.662874   -1.199461
      5          6           0       -8.355668    2.338485   -2.991869
      6          1           0       -8.235736    3.205625   -3.644087
      7          6           0       -8.576030    1.026903   -3.774738
      8          6           0       -7.121944    2.214449   -2.045210
      9          1           0       -7.312968    1.407039   -1.322444
     10          1           0       -7.012195    3.157594   -1.495307
     11          8           0       -9.525822    0.307837   -3.439644
     12          8           0       -5.966004    1.994730   -2.794459
     13          1           0       -5.840868    1.016295   -2.870696
     14          7           0       -7.681004    0.758609   -4.733817
     15          1           0       -6.874045    1.377020   -4.758113
     16          6           0       -7.442350   -0.613206   -5.184619
     17          1           0       -8.417623   -1.099839   -5.271637
     18          6           0       -6.611043   -1.342387   -4.093020
     19          6           0       -6.727526   -0.602993   -6.542177
     20          1           0       -6.565276   -1.621561   -6.903785
     21          1           0       -5.746806   -0.119686   -6.467807
     22          1           0       -7.329855   -0.068454   -7.281979
     23          8           0       -6.098125   -0.725600   -3.144475
     24          7           0       -6.490179   -2.663260   -4.255674
     25          1           0       -6.860136   -3.137274   -5.076862
     26          6           0       -5.622988   -3.522523   -3.447692
     27          1           0       -5.718725   -3.232396   -2.398122
     28          6           0       -4.169265   -3.383575   -3.945721
     29          6           0       -6.097762   -4.985122   -3.679870
     30          1           0       -5.320896   -5.650221   -3.274747
     31          8           0       -3.866080   -3.810292   -5.068555
     32          6           0       -7.427737   -5.298144   -3.008105
     33          1           0       -7.342696   -5.217777   -1.919197
     34          1           0       -8.214601   -4.616785   -3.348824
     35          1           0       -7.729525   -6.318537   -3.260076
     36          8           0       -6.248021   -5.190939   -5.080387
     37          1           0       -5.366018   -4.990829   -5.464272
     38          7           0       -3.311512   -2.788814   -3.102039
     39          1           0       -3.597204   -2.529981   -2.162520
     40          6           0       -1.877833   -2.647171   -3.343630
     41          1           0       -1.604445   -3.371899   -4.116784
     42          6           0       -1.218891   -2.981589   -1.988361
     43          6           0       -1.486443   -1.211516   -3.819801
     44          1           0       -1.577074   -0.550842   -2.945852
     45          8           0       -1.800914   -2.685645   -0.942256
     46          6           0       -0.034929   -1.166449   -4.323936
     47          1           0        0.091024   -1.809721   -5.204728
     48          1           0        0.696224   -1.478685   -3.573601
     49          1           0        0.226093   -0.146494   -4.625094
     50          6           0       -2.440665   -0.697027   -4.908606
     51          1           0       -2.458157   -1.372698   -5.771325
     52          1           0       -3.463229   -0.596220   -4.530145
     53          1           0       -2.109689    0.288761   -5.254093
     54          7           0       -0.022698   -3.606926   -2.043916
     55          1           0        0.472295   -3.661604   -2.929826
     56          6           0        0.860081   -3.766403   -0.888517
     57          1           0        0.393372   -3.240773   -0.049671
     58          6           0        2.181518   -3.083557   -1.307385
     59          6           0        1.061529   -5.265940   -0.515697
     60          1           0        1.546242   -5.742630   -1.381021
     61          8           0        2.531172   -3.111070   -2.490622
     62          6           0       -0.298635   -5.956197   -0.284408
     63          1           0       -0.951246   -5.737692   -1.136673
     64          1           0       -0.782245   -5.507768    0.595274
     65          6           0        1.987076   -5.416913    0.702393
     66          1           0        1.537685   -4.956454    1.593190
     67          1           0        2.965865   -4.955894    0.544178
     68          1           0        2.157685   -6.472878    0.930911
     69          6           0       -0.213952   -7.477610   -0.111247
     70          1           0       -1.217050   -7.912604   -0.037370
     71          1           0        0.287543   -7.946562   -0.966916
     72          1           0        0.332043   -7.765835    0.793242
     73          7           0        2.878283   -2.459468   -0.337124
     74          1           0        2.612216   -2.546594    0.636801
     75          6           0        4.151485   -1.789247   -0.578568
     76          1           0        4.643734   -2.291896   -1.416058
     77          6           0        4.999128   -1.963774    0.692952
     78          6           0        3.933330   -0.299928   -0.961816
     79          1           0        3.147458   -0.275900   -1.722807
     80          1           0        3.537688    0.247988   -0.096403
     81          8           0        4.483459   -2.365182    1.758708
     82          6           0        5.132172    0.516232   -1.537544
     83          8           0        4.861301    1.626341   -1.992778
     84          8           0        6.308031   -0.022522   -1.478160
     85          7           0        6.284928   -1.622673    0.536800
     86          1           0        6.465095   -1.127003   -0.385806
     87          6           0        7.175910   -1.471922    1.671485
     88          1           0        6.578195   -1.062037    2.498412
     89          6           0        8.286022   -0.410574    1.481340
     90          6           0        7.772777   -2.831593    2.162524
     91          1           0        8.862261   -2.796207    2.104059
     92          1           0        7.421663   -3.618660    1.486600
     93          8           0        9.277832   -0.477199    2.232413
     94          6           0        7.382657   -3.128567    3.573616
     95          6           0        8.101934   -3.243102    4.735805
     96          1           0        9.176599   -3.210961    4.850967
     97          7           0        6.060361   -3.229828    3.962502
     98          1           0        5.284506   -3.068038    3.306277
     99          6           0        6.030705   -3.384009    5.308736
    100          1           0        5.113374   -3.492966    5.870935
    101          7           0        7.256726   -3.398467    5.821983
    102          7           0        8.065093    0.598210    0.622457
    103          1           0        7.313115    0.533134   -0.084534
    104          6           0        9.004911    1.723902    0.438235
    105          1           0       10.022693    1.316186    0.464788
    106          6           0        8.864434    2.713922    1.625999
    107          6           0        8.719179    2.426561   -0.894900
    108          1           0        7.652528    2.676480   -0.926631
    109          1           0        9.253383    3.384321   -0.889817
    110          8           0        8.316169    3.802745    1.544273
    111          6           0        9.099028    1.625739   -2.157544
    112          1           0        8.696996    0.610964   -2.055098
    113          6           0        8.410028    2.251561   -3.378971
    114          1           0        8.714150    3.299082   -3.512273
    115          1           0        8.673069    1.710352   -4.296023
    116          1           0        7.322185    2.215659   -3.258145
    117          6           0       10.620251    1.540474   -2.352276
    118          1           0       11.055554    2.539389   -2.490596
    119          1           0       10.866583    0.946849   -3.240569
    120          1           0       11.127970    1.072823   -1.498721
    121          7           0        9.424067    2.249864    2.795505
    122          1           0        9.658524    1.254313    2.807456
    123          6           0        9.171078    2.953394    4.042885
    124          1           0        9.086529    4.011161    3.769392
    125          6           0       10.393472    2.817155    4.946265
    126          6           0        7.863128    2.524316    4.734705
    127          1           0        7.054287    2.812291    4.057079
    128          1           0        7.733460    3.129955    5.641530
    129          8           0       10.443572    2.199185    6.001729
    130          6           0        7.780591    1.015935    5.072193
    131          1           0        6.961814    0.543772    4.517477
    132          1           0        8.686894    0.495626    4.749133
    133          6           0        7.574696    0.758916    6.572533
    134          1           0        8.205226    1.421831    7.168285
    135          1           0        6.539948    0.962208    6.867612
    136          7           0        7.870328   -0.622105    6.962069
    137          1           0        7.235641   -1.357581    6.655400
    138          7           0       10.079204   -0.226816    7.601916
    139          1           0       10.935347   -0.582293    8.001031
    140          1           0       10.138177    0.664142    7.107887
    141          7           0        9.144929   -2.363917    7.763197
    142          1           0       10.067903   -2.766002    7.852200
    143          1           0        8.413599   -2.986850    7.386316
    144          6           0        9.045590   -1.063613    7.416604
    145          8           0       11.455233    3.469749    4.461081
    146          1           0       12.196805    3.326791    5.079863
 ---------------------------------------------------------------------

 SCF Done:  E(RB3LYP) =  -3503.38724536     A.U. after    2 cycles

 Alpha  occ. eigenvalues --  -19.27669 -19.26962 -19.26347 -19.23472 -19.22409
 Alpha  occ. eigenvalues --  -19.21098 -19.19152 -19.17328 -19.17270 -19.16419
 Alpha  occ. eigenvalues --  -19.15784 -19.15320 -19.10490 -19.08636 -14.60992
 Alpha  occ. eigenvalues --  -14.49887 -14.46451 -14.46167 -14.46151 -14.45294
 Alpha  occ. eigenvalues --  -14.43991 -14.43238 -14.41257 -14.40146 -14.39458
 Alpha  occ. eigenvalues --  -14.39364 -14.39214 -14.38502 -10.44073 -10.42534
 Alpha  occ. eigenvalues --  -10.40697 -10.40102 -10.39960 -10.38315 -10.36338
 Alpha  occ. eigenvalues --  -10.35504 -10.34435 -10.33551 -10.33232 -10.32983
 Alpha  occ. eigenvalues --  -10.32092 -10.31790 -10.31754 -10.30778 -10.30722
 Alpha  occ. eigenvalues --  -10.29419 -10.29217 -10.29144 -10.28543 -10.27903
 Alpha  occ. eigenvalues --  -10.27888 -10.27610 -10.26643 -10.26195 -10.25866
 Alpha  occ. eigenvalues --  -10.25651 -10.25224 -10.25158 -10.24711 -10.24554
 Alpha  occ. eigenvalues --  -10.24146 -10.22953 -10.22351 -10.22064 -10.21940
 Alpha  occ. eigenvalues --  -10.21643 -10.20529 -10.19321 -10.18980 -10.18293
 Alpha  occ. eigenvalues --  -10.16489  -1.20105  -1.18379  -1.15135  -1.14930
 Alpha  occ. eigenvalues --   -1.13895  -1.11305  -1.11089  -1.09285  -1.09157
 Alpha  occ. eigenvalues --   -1.08541  -1.08438  -1.07948  -1.07494  -1.07267
 Alpha  occ. eigenvalues --   -1.06947  -1.06789  -1.02729  -1.02607  -1.00456
 Alpha  occ. eigenvalues --   -0.99522  -0.99008  -0.97754  -0.97237  -0.96667
 Alpha  occ. eigenvalues --   -0.96456  -0.95266  -0.93886  -0.93165  -0.92244
 Alpha  occ. eigenvalues --   -0.88695  -0.86610  -0.86430  -0.85414  -0.84642
 Alpha  occ. eigenvalues --   -0.84464  -0.82553  -0.81434  -0.80928  -0.80398
 Alpha  occ. eigenvalues --   -0.79924  -0.78893  -0.77721  -0.76913  -0.76774
 Alpha  occ. eigenvalues --   -0.75827  -0.75780  -0.74837  -0.74062  -0.73315
 Alpha  occ. eigenvalues --   -0.73006  -0.72889  -0.72323  -0.71593  -0.69971
 Alpha  occ. eigenvalues --   -0.69693  -0.69378  -0.68585  -0.67989  -0.67902
 Alpha  occ. eigenvalues --   -0.67617  -0.67341  -0.66868  -0.66313  -0.65871
 Alpha  occ. eigenvalues --   -0.65393  -0.64895  -0.64803  -0.64418  -0.63941
 Alpha  occ. eigenvalues --   -0.63406  -0.62879  -0.62504  -0.62206  -0.62068
 Alpha  occ. eigenvalues --   -0.61660  -0.61369  -0.61059  -0.60295  -0.59931
 Alpha  occ. eigenvalues --   -0.59673  -0.59608  -0.59042  -0.58884  -0.58696
 Alpha  occ. eigenvalues --   -0.58296  -0.57855  -0.57103  -0.56516  -0.56196
 Alpha  occ. eigenvalues --   -0.55607  -0.55460  -0.55109  -0.54551  -0.54197
 Alpha  occ. eigenvalues --   -0.53968  -0.53746  -0.53513  -0.53318  -0.53099
 Alpha  occ. eigenvalues --   -0.52981  -0.52481  -0.52264  -0.52160  -0.51899
 Alpha  occ. eigenvalues --   -0.51767  -0.51310  -0.51140  -0.50774  -0.50654
 Alpha  occ. eigenvalues --   -0.50417  -0.50191  -0.49643  -0.49601  -0.49379
 Alpha  occ. eigenvalues --   -0.49298  -0.49134  -0.48721  -0.48564  -0.48428
 Alpha  occ. eigenvalues --   -0.47859  -0.47627  -0.47518  -0.47325  -0.47208
 Alpha  occ. eigenvalues --   -0.46768  -0.46469  -0.46341  -0.46172  -0.46095
 Alpha  occ. eigenvalues --   -0.45845  -0.45511  -0.45408  -0.45348  -0.45115
 Alpha  occ. eigenvalues --   -0.45088  -0.44668  -0.44561  -0.44475  -0.44226
 Alpha  occ. eigenvalues --   -0.43968  -0.43842  -0.43621  -0.43164  -0.42914
 Alpha  occ. eigenvalues --   -0.42843  -0.42577  -0.42339  -0.42221  -0.42175
 Alpha  occ. eigenvalues --   -0.41980  -0.41574  -0.41462  -0.41384  -0.40935
 Alpha  occ. eigenvalues --   -0.40805  -0.40629  -0.40315  -0.40275  -0.39856
 Alpha  occ. eigenvalues --   -0.39761  -0.39694  -0.39559  -0.39157  -0.39142
 Alpha  occ. eigenvalues --   -0.38925  -0.38600  -0.38282  -0.38154  -0.37462
 Alpha  occ. eigenvalues --   -0.37350  -0.37286  -0.37061  -0.36900  -0.36690
 Alpha  occ. eigenvalues --   -0.36595  -0.35982  -0.35738  -0.35621  -0.35047
 Alpha  occ. eigenvalues --   -0.34529  -0.34285  -0.33088  -0.33054  -0.32828
 Alpha  occ. eigenvalues --   -0.32645  -0.32094  -0.31783  -0.31443  -0.31159
 Alpha  occ. eigenvalues --   -0.30950  -0.30648  -0.30342  -0.29603  -0.29512
 Alpha  occ. eigenvalues --   -0.29081  -0.28353  -0.27513  -0.25406  -0.25002
 Alpha  occ. eigenvalues --   -0.22651
 Alpha virt. eigenvalues --   -0.13176  -0.11973  -0.09004  -0.07496  -0.06873
 Alpha virt. eigenvalues --   -0.06730  -0.05542  -0.03980  -0.03972  -0.03363
 Alpha virt. eigenvalues --   -0.02965  -0.02513  -0.02338  -0.02304  -0.01542

 Mulliken charges:
               1
     1  N   -0.760754
     2  H    0.421958
     3  H    0.434958
     4  H    0.417130
     5  C   -0.134284
     6  H    0.227619
     7  C    0.640001
     8  C   -0.039200
     9  H    0.170430
    10  H    0.179439
    11  O   -0.528914
    12  O   -0.626185
    13  H    0.458176
    14  N   -0.566755
    15  H    0.361087
    16  C   -0.098990
    17  H    0.211894
    18  C    0.669116
    19  C   -0.470130
    20  H    0.191935
    21  H    0.181360
    22  H    0.188216
    23  O   -0.579865
    24  N   -0.585603
    25  H    0.361035
    26  C   -0.085798
    27  H    0.170396
    28  C    0.648342
    29  C    0.107616
    30  H    0.152235
    31  O   -0.560397
    32  C   -0.450196
    33  H    0.151476
    34  H    0.147853
    35  H    0.182906
    36  O   -0.646353
    37  H    0.426816
    38  N   -0.598440
    39  H    0.356690
    40  C   -0.055478
    41  H    0.178285
    42  C    0.615685
    43  C   -0.075167
    44  H    0.142782
    45  O   -0.549091
    46  C   -0.478243
    47  H    0.149650
    48  H    0.179191
    49  H    0.162669
    50  C   -0.461194
    51  H    0.164260
    52  H    0.129696
    53  H    0.150661
    54  N   -0.600246
    55  H    0.357633
    56  C   -0.070780
    57  H    0.171527
    58  C    0.626116
    59  C   -0.069516
    60  H    0.138118
    61  O   -0.547178
    62  C   -0.249037
    63  H    0.140188
    64  H    0.135645
    65  C   -0.476965
    66  H    0.137786
    67  H    0.162777
    68  H    0.159024
    69  C   -0.450828
    70  H    0.144819
    71  H    0.147489
    72  H    0.148741
    73  N   -0.605139
    74  H    0.346399
    75  C   -0.065343
    76  H    0.203321
    77  C    0.609180
    78  C   -0.365407
    79  H    0.177912
    80  H    0.148049
    81  O   -0.598498
    82  C    0.606674
    83  O   -0.535313
    84  O   -0.637651
    85  N   -0.640156
    86  H    0.407085
    87  C   -0.031174
    88  H    0.177393
    89  C    0.598913
    90  C   -0.344083
    91  H    0.192758
    92  H    0.178198
    93  O   -0.583451
    94  C    0.309801
    95  C   -0.075181
    96  H    0.133056
    97  N   -0.600424
    98  H    0.396909
    99  C    0.200778
   100  H    0.171344
   101  N   -0.518244
   102  N   -0.640563
   103  H    0.409740
   104  C   -0.062957
   105  H    0.170404
   106  C    0.616411
   107  C   -0.295502
   108  H    0.186276
   109  H    0.146976
   110  O   -0.507792
   111  C   -0.069663
   112  H    0.149197
   113  C   -0.461360
   114  H    0.123062
   115  H    0.127436
   116  H    0.193990
   117  C   -0.448640
   118  H    0.135266
   119  H    0.142175
   120  H    0.127370
   121  N   -0.638078
   122  H    0.382908
   123  C   -0.042913
   124  H    0.212553
   125  C    0.586865
   126  C   -0.278131
   127  H    0.184731
   128  H    0.147058
   129  O   -0.508667
   130  C   -0.272742
   131  H    0.158814
   132  H    0.164562
   133  C   -0.181756
   134  H    0.182920
   135  H    0.179561
   136  N   -0.592398
   137  H    0.376273
   138  N   -0.795669
   139  H    0.359888
   140  H    0.436283
   141  N   -0.769499
   142  H    0.350644
   143  H    0.401230
   144  C    0.778060
   145  O   -0.526678
   146  H    0.418807
 Sum of Mulliken charges =   1.00000

 Dipole moment (field-independent basis, Debye):
    X=            -21.6128    Y=              1.8762    Z=             10.6970  Tot=             24.1880
 Quadrupole moment (field-independent basis, Debye-Ang):
   XX=             89.2676   YY=           -387.1903   ZZ=           -261.8415
   XY=           -115.9199   XZ=            292.1486   YZ=            -25.1299

 Normal termination of Gaussian 16 at Sun Jun 19 12:04:25 2022.
