 Gaussian 16, Revision C.01,
 Gaussian 16:  ES64L-G16RevC.01  3-Jul-2019

 -------------------------------------------------------------------
 # B3LYP/6-31G* guess=read geom=check nosymm integral(ultrafinegrid)
 -------------------------------------------------------------------

 ------------------------------------------------------
 Candidate Structure: Conf:333 Charge calc in gas phase
 ------------------------------------------------------
 Structure from the checkpoint file:  "conf-333.chk"
 Charge =  1 Multiplicity = 1

                          Input orientation:
 ---------------------------------------------------------------------
 Center     Atomic      Atomic             Coordinates (Angstroms)
 Number     Number       Type             X           Y           Z
 ---------------------------------------------------------------------
      1          7           0       -8.312362    1.983946   -1.603460
      2          1           0       -9.308008    2.211831   -1.542899
      3          1           0       -8.043549    1.320881   -0.806776
      4          1           0       -7.773227    2.853619   -1.543275
      5          6           0       -7.950708    1.147062   -2.809229
      6          1           0       -8.801757    1.109757   -3.492090
      7          6           0       -7.625533   -0.229576   -2.189207
      8          6           0       -6.707828    1.744818   -3.539410
      9          1           0       -5.905697    1.890139   -2.800911
     10          1           0       -6.990788    2.722324   -3.951145
     11          8           0       -7.536936   -0.294454   -0.955208
     12          8           0       -6.312064    0.908639   -4.582313
     13          1           0       -5.624270    0.298563   -4.202327
     14          7           0       -7.423981   -1.237203   -3.047620
     15          1           0       -7.361446   -0.951495   -4.022168
     16          6           0       -6.551923   -2.356102   -2.669385
     17          1           0       -6.872914   -2.702176   -1.683634
     18          6           0       -5.098963   -1.810012   -2.567513
     19          6           0       -6.666426   -3.487247   -3.696116
     20          1           0       -6.014651   -4.318906   -3.415146
     21          1           0       -6.357851   -3.145919   -4.691221
     22          1           0       -7.695530   -3.854249   -3.752343
     23          8           0       -4.789265   -0.719130   -3.081369
     24          7           0       -4.255247   -2.593072   -1.906170
     25          1           0       -4.543101   -3.508344   -1.566496
     26          6           0       -2.820354   -2.384930   -1.766251
     27          1           0       -2.467231   -1.666302   -2.511487
     28          6           0       -2.186689   -3.776635   -1.920436
     29          6           0       -2.451999   -1.849050   -0.340963
     30          1           0       -1.368709   -1.687396   -0.354958
     31          8           0       -2.875483   -4.792061   -1.789986
     32          6           0       -3.139534   -0.526712   -0.028875
     33          1           0       -2.853057    0.226400   -0.768446
     34          1           0       -4.229155   -0.643848   -0.021164
     35          1           0       -2.830358   -0.190472    0.965978
     36          8           0       -2.800823   -2.795680    0.657329
     37          1           0       -2.068811   -3.439666    0.723745
     38          7           0       -0.845853   -3.765222   -2.094218
     39          1           0       -0.357570   -2.851139   -2.186054
     40          6           0       -0.029847   -4.891534   -1.652453
     41          1           0       -0.730788   -5.697943   -1.413255
     42          6           0        0.557214   -4.444658   -0.284320
     43          6           0        0.950262   -5.403056   -2.733387
     44          1           0        1.717614   -4.633002   -2.912799
     45          8           0       -0.191072   -4.280053    0.680735
     46          6           0        1.630176   -6.710146   -2.288127
     47          1           0        0.883856   -7.505670   -2.171550
     48          1           0        2.158827   -6.614724   -1.333490
     49          1           0        2.353598   -7.044235   -3.039995
     50          6           0        0.215877   -5.619710   -4.065593
     51          1           0       -0.603422   -6.338908   -3.944646
     52          1           0       -0.209046   -4.686247   -4.442551
     53          1           0        0.905542   -6.015247   -4.819759
     54          7           0        1.892868   -4.173433   -0.212629
     55          1           0        2.453258   -4.300888   -1.043294
     56          6           0        2.550905   -3.695245    1.002614
     57          1           0        1.734043   -3.597098    1.725507
     58          6           0        3.122327   -2.262507    0.813492
     59          6           0        3.563064   -4.748055    1.535700
     60          1           0        3.036116   -5.706295    1.424566
     61          8           0        4.098269   -1.851657    1.472694
     62          6           0        3.876200   -4.594679    3.040614
     63          1           0        4.265578   -3.588693    3.227678
     64          1           0        4.685367   -5.298077    3.282592
     65          6           0        4.845378   -4.827000    0.691204
     66          1           0        5.439892   -3.913480    0.782976
     67          1           0        4.625751   -4.980559   -0.373114
     68          1           0        5.463618   -5.672363    1.013413
     69          6           0        2.689806   -4.873431    3.972141
     70          1           0        2.997588   -4.811054    5.022432
     71          1           0        1.871197   -4.159196    3.832013
     72          1           0        2.282322   -5.877661    3.805784
     73          7           0        2.436348   -1.512926   -0.051702
     74          1           0        1.719191   -1.916925   -0.685239
     75          6           0        2.674513   -0.123510   -0.450099
     76          1           0        3.378851   -0.116655   -1.295818
     77          6           0        3.273968    0.675273    0.714111
     78          6           0        1.334775    0.507496   -0.893600
     79          1           0        0.750819    0.720270    0.008896
     80          1           0        1.531907    1.472567   -1.372240
     81          8           0        2.612496    1.000062    1.699763
     82          6           0        0.421866   -0.327073   -1.842720
     83          8           0       -0.571580    0.244350   -2.302294
     84          8           0        0.752164   -1.560798   -2.012585
     85          7           0        4.586223    1.035134    0.582597
     86          1           0        5.093212    0.631972   -0.193817
     87          6           0        5.365827    1.319210    1.790215
     88          1           0        4.803347    0.856838    2.609471
     89          6           0        5.408828    2.831217    2.129988
     90          6           0        6.782762    0.696288    1.720434
     91          1           0        7.521470    1.501766    1.707796
     92          1           0        6.892771    0.136864    0.782480
     93          8           0        6.469593    3.460598    2.223860
     94          6           0        7.061723   -0.208450    2.879503
     95          6           0        7.982719   -0.147351    3.896093
     96          1           0        8.770852    0.580620    4.031698
     97          7           0        6.298469   -1.328732    3.155471
     98          1           0        5.497491   -1.653970    2.597490
     99          6           0        6.764650   -1.876614    4.300767
    100          1           0        6.336395   -2.765973    4.741324
    101          7           0        7.789403   -1.188131    4.785958
    102          7           0        4.191235    3.361680    2.373803
    103          1           0        3.386579    2.732566    2.323733
    104          6           0        3.985511    4.760477    2.774917
    105          1           0        4.725047    5.357046    2.232182
    106          6           0        4.277515    4.855485    4.293492
    107          6           0        2.560857    5.201085    2.430226
    108          1           0        2.375209    4.951154    1.376778
    109          1           0        1.868021    4.605111    3.036294
    110          8           0        3.402373    4.820678    5.147784
    111          6           0        2.264059    6.696782    2.661696
    112          1           0        2.497971    6.925003    3.709784
    113          6           0        3.106474    7.614840    1.762158
    114          1           0        2.924103    7.401008    0.700704
    115          1           0        2.850900    8.666303    1.936322
    116          1           0        4.182208    7.510092    1.944214
    117          6           0        0.765939    6.963225    2.450739
    118          1           0        0.466922    6.738069    1.418469
    119          1           0        0.523163    8.014238    2.644995
    120          1           0        0.154024    6.347234    3.119709
    121          7           0        5.618724    4.917770    4.581642
    122          1           0        6.242376    4.702169    3.802899
    123          6           0        6.095732    4.589949    5.919095
    124          1           0        5.234000    4.732391    6.581813
    125          6           0        7.185551    5.573340    6.347661
    126          6           0        6.576920    3.129828    5.952904
    127          1           0        7.430817    3.036517    5.270929
    128          1           0        5.765373    2.525954    5.529530
    129          8           0        8.315689    5.266598    6.669312
    130          6           0        6.964443    2.557118    7.324261
    131          1           0        7.781546    3.142068    7.755805
    132          1           0        6.106498    2.605191    8.010462
    133          6           0        7.402720    1.105530    7.130311
    134          1           0        6.591184    0.512429    6.693520
    135          1           0        8.243168    1.069042    6.432985
    136          7           0        7.850438    0.480697    8.383415
    137          1           0        7.447757    0.820811    9.247160
    138          7           0        8.897970   -1.331173    7.361118
    139          1           0        9.603507   -2.051836    7.434777
    140          1           0        8.441263   -1.231652    6.406722
    141          7           0        9.027287   -1.037050    9.668173
    142          1           0        9.542430   -1.900167    9.760499
    143          1           0        9.144636   -0.364140   10.412249
    144          6           0        8.592982   -0.631149    8.447789
    145          8           0        6.744344    6.844671    6.339639
    146          1           0        7.496002    7.402950    6.616042
 ---------------------------------------------------------------------

 SCF Done:  E(RB3LYP) =  -3503.38303073     A.U. after    2 cycles

 Alpha  occ. eigenvalues --  -19.25567 -19.24967 -19.23249 -19.20369 -19.18989
 Alpha  occ. eigenvalues --  -19.18218 -19.17795 -19.17330 -19.16959 -19.16304
 Alpha  occ. eigenvalues --  -19.15185 -19.14721 -19.11700 -19.10071 -14.58199
 Alpha  occ. eigenvalues --  -14.49528 -14.49320 -14.47483 -14.46722 -14.45220
 Alpha  occ. eigenvalues --  -14.42212 -14.41719 -14.41490 -14.41308 -14.40885
 Alpha  occ. eigenvalues --  -14.40717 -14.39393 -14.37320 -10.45318 -10.41178
 Alpha  occ. eigenvalues --  -10.38264 -10.37959 -10.35734 -10.35368 -10.34822
 Alpha  occ. eigenvalues --  -10.34581 -10.34142 -10.33717 -10.33537 -10.32401
 Alpha  occ. eigenvalues --  -10.31982 -10.31917 -10.31448 -10.29936 -10.29929
 Alpha  occ. eigenvalues --  -10.29229 -10.29170 -10.28353 -10.28276 -10.28083
 Alpha  occ. eigenvalues --  -10.27457 -10.27377 -10.26720 -10.26526 -10.26335
 Alpha  occ. eigenvalues --  -10.26121 -10.26047 -10.25843 -10.24450 -10.23691
 Alpha  occ. eigenvalues --  -10.23144 -10.22906 -10.22846 -10.22567 -10.22106
 Alpha  occ. eigenvalues --  -10.21814 -10.21387 -10.21276 -10.21051 -10.20635
 Alpha  occ. eigenvalues --  -10.19413  -1.17373  -1.16728  -1.13710  -1.12064
 Alpha  occ. eigenvalues --   -1.11596  -1.10130  -1.09981  -1.09460  -1.08774
 Alpha  occ. eigenvalues --   -1.08557  -1.08394  -1.07884  -1.07687  -1.06413
 Alpha  occ. eigenvalues --   -1.04073  -1.03638  -1.03264  -1.02869  -1.01373
 Alpha  occ. eigenvalues --   -0.98900  -0.98246  -0.98152  -0.98117  -0.97535
 Alpha  occ. eigenvalues --   -0.96417  -0.95364  -0.94558  -0.94386  -0.89210
 Alpha  occ. eigenvalues --   -0.88581  -0.86331  -0.85899  -0.85348  -0.85219
 Alpha  occ. eigenvalues --   -0.84063  -0.83092  -0.82091  -0.80354  -0.80024
 Alpha  occ. eigenvalues --   -0.78817  -0.78272  -0.77514  -0.77319  -0.76165
 Alpha  occ. eigenvalues --   -0.74966  -0.74803  -0.73410  -0.73129  -0.72216
 Alpha  occ. eigenvalues --   -0.72066  -0.72021  -0.71908  -0.71642  -0.70233
 Alpha  occ. eigenvalues --   -0.70032  -0.69798  -0.69014  -0.68960  -0.68430
 Alpha  occ. eigenvalues --   -0.67825  -0.67245  -0.66373  -0.65913  -0.65476
 Alpha  occ. eigenvalues --   -0.64861  -0.64149  -0.64114  -0.63551  -0.63536
 Alpha  occ. eigenvalues --   -0.62928  -0.62543  -0.62315  -0.62031  -0.61801
 Alpha  occ. eigenvalues --   -0.61532  -0.61405  -0.60767  -0.60147  -0.60010
 Alpha  occ. eigenvalues --   -0.59457  -0.59122  -0.58934  -0.57995  -0.57874
 Alpha  occ. eigenvalues --   -0.57180  -0.56935  -0.56693  -0.55668  -0.55377
 Alpha  occ. eigenvalues --   -0.55287  -0.54707  -0.54523  -0.54331  -0.54200
 Alpha  occ. eigenvalues --   -0.53903  -0.53595  -0.53108  -0.53008  -0.52708
 Alpha  occ. eigenvalues --   -0.52609  -0.52311  -0.51566  -0.51261  -0.50958
 Alpha  occ. eigenvalues --   -0.50912  -0.50768  -0.50516  -0.50319  -0.50028
 Alpha  occ. eigenvalues --   -0.49680  -0.49183  -0.48971  -0.48894  -0.48843
 Alpha  occ. eigenvalues --   -0.48584  -0.48366  -0.47964  -0.47798  -0.47549
 Alpha  occ. eigenvalues --   -0.47366  -0.47280  -0.47163  -0.46827  -0.46739
 Alpha  occ. eigenvalues --   -0.46571  -0.46445  -0.46383  -0.46025  -0.45980
 Alpha  occ. eigenvalues --   -0.45761  -0.45361  -0.45305  -0.44950  -0.44771
 Alpha  occ. eigenvalues --   -0.44697  -0.44349  -0.44086  -0.44026  -0.43548
 Alpha  occ. eigenvalues --   -0.43458  -0.43322  -0.43160  -0.42916  -0.42629
 Alpha  occ. eigenvalues --   -0.42550  -0.42398  -0.42338  -0.42215  -0.41955
 Alpha  occ. eigenvalues --   -0.41774  -0.41403  -0.41347  -0.41285  -0.41249
 Alpha  occ. eigenvalues --   -0.40706  -0.40651  -0.40155  -0.40153  -0.40081
 Alpha  occ. eigenvalues --   -0.39909  -0.39504  -0.39362  -0.39066  -0.38292
 Alpha  occ. eigenvalues --   -0.38131  -0.38060  -0.37960  -0.37790  -0.37736
 Alpha  occ. eigenvalues --   -0.37531  -0.37417  -0.37126  -0.37054  -0.36941
 Alpha  occ. eigenvalues --   -0.36604  -0.36507  -0.36484  -0.36320  -0.35787
 Alpha  occ. eigenvalues --   -0.34293  -0.34226  -0.34079  -0.33070  -0.32908
 Alpha  occ. eigenvalues --   -0.32545  -0.32114  -0.31974  -0.31001  -0.30761
 Alpha  occ. eigenvalues --   -0.30640  -0.30068  -0.29651  -0.29332  -0.29189
 Alpha  occ. eigenvalues --   -0.29078  -0.27706  -0.27470  -0.26540  -0.26256
 Alpha  occ. eigenvalues --   -0.24290
 Alpha virt. eigenvalues --   -0.10439  -0.09514  -0.09506  -0.06008  -0.05811
 Alpha virt. eigenvalues --   -0.05248  -0.04755  -0.04572  -0.04327  -0.04248
 Alpha virt. eigenvalues --   -0.03573  -0.02913  -0.02621  -0.02066  -0.01706

 Mulliken charges:
               1
     1  N   -0.763284
     2  H    0.415099
     3  H    0.435589
     4  H    0.413776
     5  C   -0.133863
     6  H    0.220334
     7  C    0.644263
     8  C   -0.036647
     9  H    0.178968
    10  H    0.168508
    11  O   -0.530361
    12  O   -0.629738
    13  H    0.457391
    14  N   -0.568513
    15  H    0.356492
    16  C   -0.093811
    17  H    0.206678
    18  C    0.654268
    19  C   -0.470163
    20  H    0.199066
    21  H    0.168854
    22  H    0.177830
    23  O   -0.585571
    24  N   -0.568220
    25  H    0.364223
    26  C   -0.104011
    27  H    0.216311
    28  C    0.599913
    29  C    0.135469
    30  H    0.147420
    31  O   -0.552689
    32  C   -0.462428
    33  H    0.177474
    34  H    0.129396
    35  H    0.149135
    36  O   -0.667041
    37  H    0.434892
    38  N   -0.641826
    39  H    0.413879
    40  C   -0.042220
    41  H    0.191616
    42  C    0.612168
    43  C   -0.116661
    44  H    0.129478
    45  O   -0.536997
    46  C   -0.460293
    47  H    0.156866
    48  H    0.139610
    49  H    0.152516
    50  C   -0.443479
    51  H    0.153000
    52  H    0.168046
    53  H    0.141813
    54  N   -0.630855
    55  H    0.345728
    56  C   -0.068306
    57  H    0.216616
    58  C    0.627273
    59  C   -0.059839
    60  H    0.142930
    61  O   -0.604506
    62  C   -0.269297
    63  H    0.137600
    64  H    0.127568
    65  C   -0.472401
    66  H    0.157424
    67  H    0.134354
    68  H    0.149355
    69  C   -0.455068
    70  H    0.136739
    71  H    0.163373
    72  H    0.154429
    73  N   -0.631505
    74  H    0.417664
    75  C   -0.019195
    76  H    0.144961
    77  C    0.637697
    78  C   -0.402388
    79  H    0.188350
    80  H    0.159463
    81  O   -0.539052
    82  C    0.619562
    83  O   -0.553358
    84  O   -0.654342
    85  N   -0.594742
    86  H    0.334554
    87  C   -0.060034
    88  H    0.195350
    89  C    0.625589
    90  C   -0.387386
    91  H    0.208874
    92  H    0.162720
    93  O   -0.553830
    94  C    0.302790
    95  C   -0.065753
    96  H    0.149543
    97  N   -0.631420
    98  H    0.438946
    99  C    0.227535
   100  H    0.175118
   101  N   -0.519258
   102  N   -0.623851
   103  H    0.386016
   104  C   -0.059454
   105  H    0.175305
   106  C    0.623752
   107  C   -0.276642
   108  H    0.141559
   109  H    0.161771
   110  O   -0.518045
   111  C   -0.081663
   112  H    0.151254
   113  C   -0.451310
   114  H    0.141900
   115  H    0.148979
   116  H    0.143170
   117  C   -0.445958
   118  H    0.138819
   119  H    0.144275
   120  H    0.147921
   121  N   -0.613569
   122  H    0.371342
   123  C   -0.058019
   124  H    0.204836
   125  C    0.588295
   126  C   -0.268319
   127  H    0.162088
   128  H    0.158161
   129  O   -0.472703
   130  C   -0.314663
   131  H    0.189715
   132  H    0.148896
   133  C   -0.128381
   134  H    0.187629
   135  H    0.185870
   136  N   -0.615505
   137  H    0.356528
   138  N   -0.797767
   139  H    0.356119
   140  H    0.444795
   141  N   -0.768661
   142  H    0.371076
   143  H    0.372568
   144  C    0.808622
   145  O   -0.546424
   146  H    0.417580
 Sum of Mulliken charges =   1.00000

 Dipole moment (field-independent basis, Debye):
    X=              4.9348    Y=              2.9420    Z=             18.8909  Tot=             19.7452
 Quadrupole moment (field-independent basis, Debye-Ang):
   XX=             50.4526   YY=           -372.0035   ZZ=           -180.1965
   XY=            -86.6430   XZ=            286.2086   YZ=            -16.6094

 Normal termination of Gaussian 16 at Sun Jun 19 12:04:42 2022.
