 Gaussian 16, Revision C.01,
 Gaussian 16:  ES64L-G16RevC.01  3-Jul-2019

 -------------------------------------------------------------------
 # B3LYP/6-31G* guess=read geom=check nosymm integral(ultrafinegrid)
 -------------------------------------------------------------------

 ------------------------------------------------------
 Candidate Structure: Conf:291 Charge calc in gas phase
 ------------------------------------------------------
 Structure from the checkpoint file:  "conf-291.chk"
 Charge =  1 Multiplicity = 1

                          Input orientation:
 ---------------------------------------------------------------------
 Center     Atomic      Atomic             Coordinates (Angstroms)
 Number     Number       Type             X           Y           Z
 ---------------------------------------------------------------------
      1          7           0       -8.285147   -4.552473   -7.925846
      2          1           0       -7.900520   -4.773179   -8.850214
      3          1           0       -7.651724   -4.951323   -7.208567
      4          1           0       -9.237667   -4.936416   -7.836684
      5          6           0       -8.329670   -3.078284   -7.646131
      6          1           0       -8.717395   -2.550333   -8.520828
      7          6           0       -6.894704   -2.691294   -7.282965
      8          6           0       -9.283174   -2.884304   -6.468566
      9          1           0       -9.368265   -1.817481   -6.229267
     10          1           0       -8.882742   -3.409537   -5.590076
     11          8           0       -6.249023   -3.527958   -6.634742
     12          8           0      -10.514295   -3.454226   -6.900135
     13          1           0      -11.123932   -3.514267   -6.148381
     14          7           0       -6.440482   -1.488927   -7.656999
     15          1           0       -7.027586   -0.883523   -8.217656
     16          6           0       -5.032444   -1.077562   -7.474485
     17          1           0       -4.442456   -1.999554   -7.525580
     18          6           0       -4.817142   -0.447768   -6.076051
     19          6           0       -4.633515   -0.113213   -8.584204
     20          1           0       -3.607581    0.223818   -8.429712
     21          1           0       -5.272996    0.775036   -8.576920
     22          1           0       -4.704142   -0.603294   -9.560452
     23          8           0       -4.419911    0.708887   -5.958469
     24          7           0       -5.088443   -1.251853   -5.023760
     25          1           0       -5.363667   -2.221235   -5.157862
     26          6           0       -4.939428   -0.796999   -3.643228
     27          1           0       -5.159933    0.276066   -3.623576
     28          6           0       -3.486787   -1.020548   -3.157806
     29          6           0       -5.918316   -1.554943   -2.731671
     30          1           0       -5.693161   -1.257303   -1.700056
     31          8           0       -3.241618   -1.791544   -2.223435
     32          6           0       -7.378638   -1.259107   -3.038627
     33          1           0       -7.601851   -0.196302   -2.899507
     34          1           0       -7.618634   -1.527708   -4.074484
     35          1           0       -8.021364   -1.843937   -2.374520
     36          8           0       -5.711559   -2.956786   -2.886370
     37          1           0       -4.824952   -3.107653   -2.505590
     38          7           0       -2.548424   -0.355181   -3.861836
     39          1           0       -2.863054    0.387072   -4.482553
     40          6           0       -1.138085   -0.327393   -3.464107
     41          1           0       -0.967065   -1.225739   -2.864784
     42          6           0       -0.903986    0.931340   -2.614778
     43          6           0       -0.216001   -0.360693   -4.705890
     44          1           0       -0.599831    0.390027   -5.410148
     45          8           0       -0.951746    2.045556   -3.118521
     46          6           0        1.237771    0.004403   -4.357622
     47          1           0        1.580211   -0.510184   -3.451475
     48          1           0        1.381345    1.080093   -4.217287
     49          1           0        1.909726   -0.290619   -5.168994
     50          6           0       -0.298732   -1.746865   -5.362408
     51          1           0        0.136129   -2.507829   -4.702781
     52          1           0       -1.332296   -2.041004   -5.584438
     53          1           0        0.268004   -1.757615   -6.299463
     54          7           0       -0.705263    0.711750   -1.274069
     55          1           0       -0.490608   -0.239830   -1.003925
     56          6           0       -0.030595    1.727009   -0.467706
     57          1           0       -0.308990    2.681750   -0.916909
     58          6           0        1.488416    1.489160   -0.590285
     59          6           0       -0.512711    1.718328    1.006642
     60          1           0       -1.600238    1.871991    0.953122
     61          8           0        1.940567    0.353145   -0.452871
     62          6           0        0.090987    2.884731    1.818547
     63          1           0        1.185778    2.804972    1.811053
     64          1           0       -0.220496    2.750378    2.864511
     65          6           0       -0.252561    0.388963    1.732417
     66          1           0        0.817690    0.236393    1.899784
     67          1           0       -0.622974   -0.473159    1.169497
     68          1           0       -0.758920    0.392010    2.705301
     69          6           0       -0.321056    4.288736    1.366588
     70          1           0        0.125887    5.050703    2.013647
     71          1           0        0.003029    4.513759    0.345252
     72          1           0       -1.410448    4.411296    1.399374
     73          7           0        2.234032    2.586191   -0.870048
     74          1           0        1.793921    3.492503   -0.783083
     75          6           0        3.689072    2.600276   -0.808252
     76          1           0        4.018963    1.563747   -0.704492
     77          6           0        4.109111    3.428209    0.403097
     78          6           0        4.291801    3.176570   -2.101738
     79          1           0        3.995344    4.222888   -2.231415
     80          1           0        5.385273    3.110268   -2.047251
     81          8           0        3.434881    4.356441    0.857802
     82          6           0        3.802185    2.298208   -3.307784
     83          8           0        4.177869    1.103725   -3.258955
     84          8           0        3.089824    2.883533   -4.155564
     85          7           0        5.317457    3.097830    0.946397
     86          1           0        5.927701    2.416270    0.510879
     87          6           0        5.882680    3.866539    2.023913
     88          1           0        5.756154    4.937856    1.815787
     89          6           0        7.382050    3.528362    2.095928
     90          6           0        5.154821    3.635091    3.384193
     91          1           0        4.100882    3.859244    3.204434
     92          1           0        5.528914    4.393868    4.087769
     93          8           0        7.933640    2.759296    1.321338
     94          6           0        5.259849    2.282356    4.015728
     95          6           0        4.331444    1.300994    4.272123
     96          1           0        3.272684    1.323724    4.049222
     97          7           0        6.452101    1.755602    4.490764
     98          1           0        7.354448    2.201175    4.394765
     99          6           0        6.183043    0.512753    4.994948
    100          1           0        6.956119   -0.120905    5.409905
    101          7           0        4.908344    0.209936    4.893511
    102          7           0        8.017406    4.054019    3.184572
    103          1           0        7.554645    4.738182    3.771090
    104          6           0        9.437382    3.881760    3.478259
    105          1           0        9.737264    2.917729    3.058250
    106          6           0        9.432990    3.793003    5.005894
    107          6           0       10.319166    4.995615    2.895777
    108          1           0       10.162232    4.997501    1.809914
    109          1           0        9.949218    5.954803    3.278661
    110          8           0        8.824511    4.607294    5.693521
    111          6           0       11.825527    4.877116    3.205981
    112          1           0       11.950541    4.896595    4.298713
    113          6           0       12.438371    3.574441    2.670371
    114          1           0       12.279235    3.483669    1.589098
    115          1           0       13.518401    3.553094    2.850560
    116          1           0       12.016914    2.678148    3.142087
    117          6           0       12.560433    6.092474    2.622785
    118          1           0       12.462721    6.117867    1.530928
    119          1           0       13.628372    6.060132    2.863513
    120          1           0       12.155005    7.029926    3.018911
    121          7           0       10.041423    2.685058    5.524627
    122          1           0       10.637130    2.132215    4.923223
    123          6           0       10.001325    2.397757    6.944196
    124          1           0        9.524010    3.272117    7.403487
    125          6           0       11.369324    2.268975    7.603399
    126          6           0        9.145932    1.138910    7.201424
    127          1           0        9.162372    0.914820    8.272507
    128          1           0        9.613084    0.286599    6.689658
    129          8           0       11.533238    1.818704    8.712739
    130          6           0        7.718359    1.305251    6.670592
    131          1           0        7.239938    2.182648    7.125305
    132          1           0        7.757232    1.482535    5.589897
    133          6           0        6.857599    0.060418    6.880797
    134          1           0        7.341010   -0.791860    6.390077
    135          1           0        6.747576   -0.178405    7.948096
    136          7           0        5.549730    0.263767    6.235907
    137          1           0        5.204112    1.216342    6.249018
    138          7           0        4.886485   -1.963415    6.410585
    139          1           0        4.124552   -2.624229    6.481365
    140          1           0        5.680603   -2.163625    7.002577
    141          7           0        3.402639   -0.357450    5.598216
    142          1           0        2.843831   -1.109411    5.212182
    143          1           0        3.353931    0.487645    5.039519
    144          6           0        4.617359   -0.684596    6.097526
    145          8           0       12.368621    2.741808    6.828229
    146          1           0       13.190502    2.646975    7.345840
 ---------------------------------------------------------------------

 SCF Done:  E(RB3LYP) =  -3502.47033514     A.U. after    3 cycles

 Alpha  occ. eigenvalues --  -19.30242 -19.28314 -19.26114 -19.22371 -19.21042
 Alpha  occ. eigenvalues --  -19.19393 -19.19328 -19.19051 -19.16374 -19.14355
 Alpha  occ. eigenvalues --  -19.12431 -19.11454 -19.00866 -19.00641 -14.61411
 Alpha  occ. eigenvalues --  -14.57312 -14.50250 -14.49954 -14.46422 -14.46100
 Alpha  occ. eigenvalues --  -14.44357 -14.44095 -14.43042 -14.41213 -14.39537
 Alpha  occ. eigenvalues --  -14.39369 -14.36942 -14.35973 -10.46710 -10.43310
 Alpha  occ. eigenvalues --  -10.41324 -10.40763 -10.39340 -10.37984 -10.37230
 Alpha  occ. eigenvalues --  -10.36513 -10.36354 -10.34053 -10.33535 -10.33305
 Alpha  occ. eigenvalues --  -10.33256 -10.33193 -10.32081 -10.31372 -10.30931
 Alpha  occ. eigenvalues --  -10.30382 -10.30237 -10.29668 -10.29546 -10.29376
 Alpha  occ. eigenvalues --  -10.28776 -10.28694 -10.28320 -10.26682 -10.25352
 Alpha  occ. eigenvalues --  -10.25257 -10.24537 -10.24534 -10.23959 -10.23649
 Alpha  occ. eigenvalues --  -10.22627 -10.22553 -10.21948 -10.21007 -10.20343
 Alpha  occ. eigenvalues --  -10.19938 -10.19669 -10.19488 -10.18709 -10.14918
 Alpha  occ. eigenvalues --  -10.14078  -1.34962  -1.19472  -1.19159  -1.17385
 Alpha  occ. eigenvalues --   -1.14712  -1.13324  -1.12667  -1.11433  -1.11127
 Alpha  occ. eigenvalues --   -1.10170  -1.09725  -1.08451  -1.06652  -1.06509
 Alpha  occ. eigenvalues --   -1.06229  -1.06088  -1.04543  -1.03169  -1.02663
 Alpha  occ. eigenvalues --   -1.00700  -0.99289  -0.98650  -0.96476  -0.95877
 Alpha  occ. eigenvalues --   -0.94074  -0.93800  -0.93365  -0.93293  -0.92327
 Alpha  occ. eigenvalues --   -0.89605  -0.89166  -0.87561  -0.87220  -0.85418
 Alpha  occ. eigenvalues --   -0.85354  -0.84410  -0.83662  -0.83350  -0.82408
 Alpha  occ. eigenvalues --   -0.81429  -0.81140  -0.80476  -0.78295  -0.77887
 Alpha  occ. eigenvalues --   -0.76893  -0.75895  -0.75644  -0.75002  -0.74584
 Alpha  occ. eigenvalues --   -0.74243  -0.74175  -0.73977  -0.73150  -0.72982
 Alpha  occ. eigenvalues --   -0.72747  -0.72569  -0.70655  -0.70394  -0.69536
 Alpha  occ. eigenvalues --   -0.69143  -0.68992  -0.68124  -0.67839  -0.67354
 Alpha  occ. eigenvalues --   -0.66561  -0.66516  -0.65716  -0.65420  -0.65084
 Alpha  occ. eigenvalues --   -0.65020  -0.64042  -0.63437  -0.63102  -0.62879
 Alpha  occ. eigenvalues --   -0.62591  -0.62350  -0.62223  -0.61732  -0.61128
 Alpha  occ. eigenvalues --   -0.60776  -0.60114  -0.59821  -0.59694  -0.58534
 Alpha  occ. eigenvalues --   -0.58328  -0.58254  -0.57881  -0.57691  -0.57287
 Alpha  occ. eigenvalues --   -0.57009  -0.56650  -0.56477  -0.56335  -0.56146
 Alpha  occ. eigenvalues --   -0.55392  -0.54804  -0.54344  -0.53981  -0.53882
 Alpha  occ. eigenvalues --   -0.53509  -0.53293  -0.52986  -0.52695  -0.52371
 Alpha  occ. eigenvalues --   -0.52238  -0.51666  -0.51250  -0.51087  -0.50447
 Alpha  occ. eigenvalues --   -0.50291  -0.50093  -0.49821  -0.49718  -0.49544
 Alpha  occ. eigenvalues --   -0.49175  -0.49085  -0.48960  -0.48567  -0.48383
 Alpha  occ. eigenvalues --   -0.47943  -0.47828  -0.47638  -0.47257  -0.47101
 Alpha  occ. eigenvalues --   -0.46911  -0.46395  -0.46271  -0.46240  -0.45950
 Alpha  occ. eigenvalues --   -0.45660  -0.45401  -0.45257  -0.45218  -0.45107
 Alpha  occ. eigenvalues --   -0.44814  -0.44738  -0.44597  -0.44464  -0.44241
 Alpha  occ. eigenvalues --   -0.43766  -0.43718  -0.43603  -0.43416  -0.43247
 Alpha  occ. eigenvalues --   -0.43068  -0.42898  -0.42418  -0.42330  -0.42170
 Alpha  occ. eigenvalues --   -0.41981  -0.41749  -0.41041  -0.40725  -0.40634
 Alpha  occ. eigenvalues --   -0.40591  -0.40195  -0.39768  -0.39734  -0.39617
 Alpha  occ. eigenvalues --   -0.39295  -0.39075  -0.38879  -0.38661  -0.38645
 Alpha  occ. eigenvalues --   -0.37999  -0.37694  -0.37564  -0.37405  -0.37276
 Alpha  occ. eigenvalues --   -0.36600  -0.35715  -0.35236  -0.35140  -0.34778
 Alpha  occ. eigenvalues --   -0.34538  -0.34481  -0.34360  -0.34148  -0.34013
 Alpha  occ. eigenvalues --   -0.33202  -0.32912  -0.32894  -0.32706  -0.32371
 Alpha  occ. eigenvalues --   -0.32116  -0.30547  -0.30124  -0.29595  -0.29410
 Alpha  occ. eigenvalues --   -0.29128  -0.28925  -0.27984  -0.27551  -0.25765
 Alpha  occ. eigenvalues --   -0.25155  -0.24498  -0.22604  -0.16424  -0.15419
 Alpha  occ. eigenvalues --   -0.14670
 Alpha virt. eigenvalues --   -0.13819  -0.11324  -0.10355  -0.09418  -0.07821
 Alpha virt. eigenvalues --   -0.07763  -0.06972  -0.06180  -0.05255  -0.04977
 Alpha virt. eigenvalues --   -0.04754  -0.04175  -0.03997  -0.03165  -0.03002

 Mulliken charges:
               1
     1  N   -0.722076
     2  H    0.420702
     3  H    0.428545
     4  H    0.426689
     5  C   -0.140117
     6  H    0.217600
     7  C    0.643062
     8  C   -0.049381
     9  H    0.200846
    10  H    0.193792
    11  O   -0.538767
    12  O   -0.629319
    13  H    0.436279
    14  N   -0.590243
    15  H    0.351882
    16  C   -0.084507
    17  H    0.206837
    18  C    0.638413
    19  C   -0.469127
    20  H    0.218377
    21  H    0.173802
    22  H    0.152205
    23  O   -0.515192
    24  N   -0.618505
    25  H    0.372054
    26  C   -0.083369
    27  H    0.187664
    28  C    0.632469
    29  C    0.120643
    30  H    0.156957
    31  O   -0.551105
    32  C   -0.453234
    33  H    0.157540
    34  H    0.108294
    35  H    0.163940
    36  O   -0.659925
    37  H    0.420465
    38  N   -0.609154
    39  H    0.372834
    40  C   -0.064241
    41  H    0.158412
    42  C    0.635787
    43  C   -0.074005
    44  H    0.133414
    45  O   -0.516502
    46  C   -0.477598
    47  H    0.150277
    48  H    0.228767
    49  H    0.147951
    50  C   -0.446470
    51  H    0.144107
    52  H    0.108560
    53  H    0.147103
    54  N   -0.605685
    55  H    0.340397
    56  C   -0.078037
    57  H    0.179014
    58  C    0.638788
    59  C   -0.069752
    60  H    0.131195
    61  O   -0.552899
    62  C   -0.271310
    63  H    0.142381
    64  H    0.115322
    65  C   -0.456579
    66  H    0.145651
    67  H    0.146774
    68  H    0.123541
    69  C   -0.445604
    70  H    0.147247
    71  H    0.158089
    72  H    0.140458
    73  N   -0.570381
    74  H    0.344376
    75  C   -0.091114
    76  H    0.191637
    77  C    0.625891
    78  C   -0.328890
    79  H    0.125338
    80  H    0.118515
    81  O   -0.561131
    82  C    0.582071
    83  O   -0.606967
    84  O   -0.592169
    85  N   -0.623984
    86  H    0.366118
    87  C   -0.020594
    88  H    0.203208
    89  C    0.589251
    90  C   -0.393765
    91  H    0.222004
    92  H    0.156728
    93  O   -0.500347
    94  C    0.342891
    95  C   -0.153230
    96  H    0.245215
    97  N   -0.688428
    98  H    0.405849
    99  C    0.273207
   100  H    0.154160
   101  N   -0.483994
   102  N   -0.655805
   103  H    0.355261
   104  C   -0.047130
   105  H    0.173739
   106  C    0.594500
   107  C   -0.256986
   108  H    0.171085
   109  H    0.153523
   110  O   -0.524775
   111  C   -0.092651
   112  H    0.136477
   113  C   -0.447368
   114  H    0.165767
   115  H    0.158910
   116  H    0.112276
   117  C   -0.446305
   118  H    0.155148
   119  H    0.152262
   120  H    0.152101
   121  N   -0.612073
   122  H    0.353411
   123  C   -0.073074
   124  H    0.231501
   125  C    0.595178
   126  C   -0.265245
   127  H    0.190224
   128  H    0.143438
   129  O   -0.445941
   130  C   -0.263834
   131  H    0.185653
   132  H    0.137624
   133  C   -0.370547
   134  H    0.242421
   135  H    0.172193
   136  N   -0.361534
   137  H    0.386109
   138  N   -0.766137
   139  H    0.382571
   140  H    0.375652
   141  N   -0.739630
   142  H    0.336268
   143  H    0.311283
   144  C    0.754702
   145  O   -0.562977
   146  H    0.428847
 Sum of Mulliken charges =   1.00000

 Dipole moment (field-independent basis, Debye):
    X=            -15.7862    Y=            -18.6018    Z=              4.7853  Tot=             24.8622
 Quadrupole moment (field-independent basis, Debye-Ang):
   XX=            116.3182   YY=           -354.8506   ZZ=            -59.3153
   XY=            149.9434   XZ=            481.4539   YZ=            143.7255

 Normal termination of Gaussian 16 at Sun Jun 19 12:05:12 2022.
