 Gaussian 16, Revision C.01,
 Gaussian 16:  ES64L-G16RevC.01  3-Jul-2019

 -------------------------------------------------------------------
 # B3LYP/6-31G* guess=read geom=check nosymm integral(ultrafinegrid)
 -------------------------------------------------------------------

 ------------------------------------------------------
 Candidate Structure: Conf:474 Charge calc in gas phase
 ------------------------------------------------------
 Structure from the checkpoint file:  "conf-474.chk"
 Charge =  1 Multiplicity = 1

                          Input orientation:
 ---------------------------------------------------------------------
 Center     Atomic      Atomic             Coordinates (Angstroms)
 Number     Number       Type             X           Y           Z
 ---------------------------------------------------------------------
      1          7           0      -10.882625   -2.840584   -2.770890
      2          1           0      -11.730523   -3.222044   -3.199611
      3          1           0      -10.164638   -3.596166   -2.731776
      4          1           0      -11.100533   -2.452589   -1.834921
      5          6           0      -10.239582   -1.739315   -3.571203
      6          1           0      -11.021680   -1.202779   -4.114207
      7          6           0       -9.207255   -2.433996   -4.473267
      8          6           0       -9.527398   -0.827366   -2.524498
      9          1           0       -9.213733    0.106765   -2.996281
     10          1           0       -8.628722   -1.330718   -2.151753
     11          8           0       -8.801233   -3.545326   -4.116804
     12          8           0      -10.409156   -0.639690   -1.423615
     13          1           0      -10.888416    0.198676   -1.514814
     14          7           0       -8.750245   -1.743016   -5.531996
     15          1           0       -9.039941   -0.771794   -5.590358
     16          6           0       -7.353756   -1.958798   -5.979410
     17          1           0       -7.230049   -3.030253   -6.150962
     18          6           0       -6.493126   -1.473094   -4.784612
     19          6           0       -7.081747   -1.163885   -7.254095
     20          1           0       -6.059151   -1.347733   -7.596243
     21          1           0       -7.182997   -0.089198   -7.066845
     22          1           0       -7.769513   -1.458987   -8.052131
     23          8           0       -6.807114   -0.426210   -4.216415
     24          7           0       -5.502150   -2.294044   -4.388850
     25          1           0       -5.175835   -3.072242   -4.957033
     26          6           0       -4.720059   -2.061413   -3.183686
     27          1           0       -4.760105   -0.993325   -2.955596
     28          6           0       -3.295685   -2.549574   -3.501117
     29          6           0       -5.321426   -2.878625   -1.982410
     30          1           0       -4.971297   -3.916522   -2.086099
     31          8           0       -3.142832   -3.475252   -4.300805
     32          6           0       -4.898569   -2.320017   -0.631092
     33          1           0       -3.811146   -2.321542   -0.510238
     34          1           0       -5.262969   -1.292874   -0.515261
     35          1           0       -5.330639   -2.927139    0.169553
     36          8           0       -6.750490   -2.868346   -2.016230
     37          1           0       -7.029172   -3.358944   -2.807181
     38          7           0       -2.299280   -1.921239   -2.848342
     39          1           0       -2.511997   -1.248197   -2.118172
     40          6           0       -0.911900   -2.380887   -2.823587
     41          1           0       -0.885732   -3.368362   -3.295312
     42          6           0       -0.546655   -2.463032   -1.328873
     43          6           0        0.021264   -1.406273   -3.601123
     44          1           0       -0.090074   -0.422117   -3.124485
     45          8           0       -1.040599   -1.650090   -0.537804
     46          6           0        1.498615   -1.817216   -3.505464
     47          1           0        1.656633   -2.833258   -3.892956
     48          1           0        1.879633   -1.771330   -2.481515
     49          1           0        2.112329   -1.143054   -4.111673
     50          6           0       -0.417976   -1.293244   -5.067802
     51          1           0       -0.328996   -2.257923   -5.581956
     52          1           0       -1.455646   -0.958240   -5.158083
     53          1           0        0.215226   -0.571165   -5.594532
     54          7           0        0.299089   -3.447893   -0.959530
     55          1           0        0.739197   -4.001922   -1.682176
     56          6           0        0.836424   -3.560017    0.405662
     57          1           0        0.070184   -3.111378    1.042460
     58          6           0        2.115147   -2.689582    0.534054
     59          6           0        1.006908   -5.037538    0.824691
     60          1           0       -0.011599   -5.455742    0.805450
     61          8           0        3.248945   -3.158612    0.562201
     62          6           0        1.533343   -5.168433    2.272150
     63          1           0        2.591058   -4.886382    2.288066
     64          1           0        1.486225   -6.234079    2.534150
     65          6           0        1.876310   -5.865136   -0.138248
     66          1           0        2.881449   -5.443696   -0.210453
     67          1           0        1.445522   -5.927033   -1.146972
     68          1           0        1.955465   -6.896058    0.225157
     69          6           0        0.771740   -4.353239    3.326261
     70          1           0        1.089775   -4.645895    4.333502
     71          1           0        0.962385   -3.278169    3.233386
     72          1           0       -0.311962   -4.521645    3.264629
     73          7           0        1.852122   -1.355798    0.565617
     74          1           0        0.887017   -1.067241    0.676613
     75          6           0        2.879336   -0.377153    0.881708
     76          1           0        3.773225   -0.607796    0.298219
     77          6           0        3.234839   -0.442540    2.386447
     78          6           0        2.397549    1.044913    0.507247
     79          1           0        2.271953    1.084294   -0.581283
     80          1           0        1.435182    1.254119    0.987433
     81          8           0        2.463023   -0.887408    3.233240
     82          6           0        3.450274    2.089290    0.966534
     83          8           0        3.076271    2.897855    1.864780
     84          8           0        4.608112    1.947136    0.495972
     85          7           0        4.456978    0.088532    2.688545
     86          1           0        4.910980    0.592830    1.921055
     87          6           0        4.714965    0.585321    4.040442
     88          1           0        3.781826    1.009574    4.432551
     89          6           0        5.783597    1.697442    3.954862
     90          6           0        5.169708   -0.550408    4.972073
     91          1           0        6.155687   -0.893774    4.638807
     92          1           0        4.456332   -1.371366    4.848135
     93          8           0        6.943530    1.498223    4.343477
     94          6           0        5.230082   -0.146515    6.414329
     95          6           0        5.511169    1.034308    7.060517
     96          1           0        5.739342    1.995782    6.623941
     97          7           0        4.999944   -1.047375    7.441249
     98          1           0        4.740307   -2.016291    7.314133
     99          6           0        5.152656   -0.411140    8.629803
    100          1           0        5.027183   -0.898750    9.586097
    101          7           0        5.463729    0.859958    8.435225
    102          7           0        5.355007    2.870261    3.456109
    103          1           0        4.445760    2.925828    2.943129
    104          6           0        6.322514    3.910579    3.128247
    105          1           0        6.966532    3.547789    2.316020
    106          6           0        7.188454    4.229478    4.356776
    107          6           0        5.556551    5.167067    2.669910
    108          1           0        4.824169    4.844126    1.920218
    109          1           0        4.989331    5.532288    3.535206
    110          8           0        6.715856    4.566012    5.443123
    111          6           0        6.420919    6.307771    2.100044
    112          1           0        7.184043    6.577938    2.846112
    113          6           0        7.143287    5.910935    0.802357
    114          1           0        6.425086    5.573586    0.044928
    115          1           0        7.696971    6.762605    0.388846
    116          1           0        7.862838    5.099415    0.956736
    117          6           0        5.543046    7.547150    1.865939
    118          1           0        4.757462    7.334339    1.129786
    119          1           0        6.136985    8.387677    1.487107
    120          1           0        5.052110    7.869810    2.791874
    121          7           0        8.537071    4.199210    4.141381
    122          1           0        8.906542    3.740142    3.318468
    123          6           0        9.457081    4.411285    5.236556
    124          1           0        9.189912    5.353281    5.729307
    125          6           0       10.855583    4.542981    4.656779
    126          6           0        9.388128    3.278302    6.302932
    127          1           0        9.919988    2.390130    5.940043
    128          1           0        8.331555    3.012657    6.369620
    129          8           0       11.186227    4.194719    3.546383
    130          6           0        9.905861    3.699220    7.683520
    131          1           0       10.999752    3.758002    7.697210
    132          1           0        9.551230    4.718964    7.895699
    133          6           0        9.473270    2.752022    8.815393
    134          1           0        9.825012    1.737002    8.610841
    135          1           0        9.920657    3.055403    9.769581
    136          7           0        8.019088    2.646174    9.001587
    137          1           0        7.527404    1.846841    8.609358
    138          7           0        7.776079    4.670619   10.130996
    139          1           0        7.170469    5.335535   10.589677
    140          1           0        8.614462    5.048034    9.715262
    141          7           0        5.965856    3.222907    9.876484
    142          1           0        5.311056    3.961845   10.090030
    143          1           0        5.603162    2.331377    9.464989
    144          6           0        7.245733    3.524967    9.644528
    145          8           0       11.725365    5.069550    5.552886
    146          1           0       12.595829    5.087508    5.110209
 ---------------------------------------------------------------------

 SCF Done:  E(RB3LYP) =  -3503.35202752     A.U. after    3 cycles

 Alpha  occ. eigenvalues --  -19.30185 -19.27535 -19.25097 -19.22790 -19.20942
 Alpha  occ. eigenvalues --  -19.19268 -19.18788 -19.17567 -19.13722 -19.13674
 Alpha  occ. eigenvalues --  -19.12654 -19.12536 -19.07239 -19.06531 -14.60129
 Alpha  occ. eigenvalues --  -14.50042 -14.47087 -14.46190 -14.45367 -14.45027
 Alpha  occ. eigenvalues --  -14.44485 -14.42891 -14.41892 -14.39023 -14.38493
 Alpha  occ. eigenvalues --  -14.37410 -14.35719 -14.35088 -10.44295 -10.42510
 Alpha  occ. eigenvalues --  -10.40922 -10.38393 -10.38061 -10.37188 -10.36096
 Alpha  occ. eigenvalues --  -10.34781 -10.34524 -10.32040 -10.31295 -10.31004
 Alpha  occ. eigenvalues --  -10.30782 -10.30715 -10.30466 -10.29276 -10.29148
 Alpha  occ. eigenvalues --  -10.29019 -10.28563 -10.28452 -10.27068 -10.26644
 Alpha  occ. eigenvalues --  -10.26073 -10.25327 -10.24820 -10.24802 -10.24704
 Alpha  occ. eigenvalues --  -10.24377 -10.24048 -10.23829 -10.23809 -10.22805
 Alpha  occ. eigenvalues --  -10.22252 -10.22123 -10.22004 -10.20471 -10.20461
 Alpha  occ. eigenvalues --  -10.19957 -10.19670 -10.18574 -10.18344 -10.18281
 Alpha  occ. eigenvalues --  -10.18098  -1.19927  -1.17508  -1.15860  -1.13919
 Alpha  occ. eigenvalues --   -1.13103  -1.11085  -1.10851  -1.09936  -1.09233
 Alpha  occ. eigenvalues --   -1.07398  -1.06956  -1.06452  -1.05683  -1.05552
 Alpha  occ. eigenvalues --   -1.04195  -1.03665  -1.01387  -1.00561  -1.00203
 Alpha  occ. eigenvalues --   -0.99363  -0.98919  -0.97938  -0.95396  -0.93847
 Alpha  occ. eigenvalues --   -0.93318  -0.93072  -0.92398  -0.92165  -0.91089
 Alpha  occ. eigenvalues --   -0.88089  -0.86434  -0.86420  -0.84646  -0.83953
 Alpha  occ. eigenvalues --   -0.82961  -0.81992  -0.80941  -0.80170  -0.79534
 Alpha  occ. eigenvalues --   -0.78931  -0.77590  -0.76463  -0.75850  -0.75605
 Alpha  occ. eigenvalues --   -0.74996  -0.74594  -0.74255  -0.73718  -0.73315
 Alpha  occ. eigenvalues --   -0.72838  -0.72821  -0.72303  -0.69191  -0.69049
 Alpha  occ. eigenvalues --   -0.68980  -0.68462  -0.67885  -0.67405  -0.67379
 Alpha  occ. eigenvalues --   -0.67221  -0.66881  -0.66285  -0.66206  -0.65338
 Alpha  occ. eigenvalues --   -0.64964  -0.64280  -0.64121  -0.63717  -0.63392
 Alpha  occ. eigenvalues --   -0.62891  -0.62701  -0.62069  -0.61625  -0.61091
 Alpha  occ. eigenvalues --   -0.60408  -0.59994  -0.59755  -0.59658  -0.59264
 Alpha  occ. eigenvalues --   -0.58644  -0.58399  -0.58101  -0.58037  -0.57720
 Alpha  occ. eigenvalues --   -0.56399  -0.56308  -0.56176  -0.56082  -0.55565
 Alpha  occ. eigenvalues --   -0.54816  -0.54514  -0.53991  -0.53908  -0.53746
 Alpha  occ. eigenvalues --   -0.53458  -0.53284  -0.52782  -0.51940  -0.51832
 Alpha  occ. eigenvalues --   -0.51683  -0.51292  -0.51040  -0.50994  -0.50492
 Alpha  occ. eigenvalues --   -0.50367  -0.50263  -0.50023  -0.49782  -0.49611
 Alpha  occ. eigenvalues --   -0.49340  -0.48973  -0.48682  -0.48383  -0.48327
 Alpha  occ. eigenvalues --   -0.48016  -0.47889  -0.47569  -0.47358  -0.47290
 Alpha  occ. eigenvalues --   -0.47139  -0.46805  -0.46610  -0.46277  -0.46246
 Alpha  occ. eigenvalues --   -0.46065  -0.45924  -0.45361  -0.45204  -0.44849
 Alpha  occ. eigenvalues --   -0.44805  -0.44679  -0.44366  -0.44346  -0.44164
 Alpha  occ. eigenvalues --   -0.44038  -0.43858  -0.43690  -0.43611  -0.43421
 Alpha  occ. eigenvalues --   -0.43043  -0.42857  -0.42701  -0.42653  -0.42018
 Alpha  occ. eigenvalues --   -0.41831  -0.41742  -0.41350  -0.41046  -0.40840
 Alpha  occ. eigenvalues --   -0.40757  -0.40667  -0.40217  -0.40037  -0.39879
 Alpha  occ. eigenvalues --   -0.39669  -0.39418  -0.39332  -0.39189  -0.38930
 Alpha  occ. eigenvalues --   -0.38502  -0.38393  -0.38180  -0.38104  -0.37935
 Alpha  occ. eigenvalues --   -0.37713  -0.37150  -0.37028  -0.36659  -0.36455
 Alpha  occ. eigenvalues --   -0.36323  -0.35883  -0.35594  -0.35537  -0.35379
 Alpha  occ. eigenvalues --   -0.35282  -0.34921  -0.34782  -0.34469  -0.34110
 Alpha  occ. eigenvalues --   -0.33715  -0.33457  -0.33235  -0.33077  -0.33037
 Alpha  occ. eigenvalues --   -0.32798  -0.32312  -0.31779  -0.30892  -0.28576
 Alpha  occ. eigenvalues --   -0.28229  -0.27913  -0.27523  -0.27033  -0.26476
 Alpha  occ. eigenvalues --   -0.26241  -0.25454  -0.25239  -0.22990  -0.21532
 Alpha  occ. eigenvalues --   -0.20772
 Alpha virt. eigenvalues --   -0.14107  -0.10565  -0.07654  -0.06916  -0.05889
 Alpha virt. eigenvalues --   -0.05607  -0.05175  -0.04286  -0.03814  -0.03588
 Alpha virt. eigenvalues --   -0.03466  -0.02656  -0.01744  -0.00653  -0.00449

 Mulliken charges:
               1
     1  N   -0.737353
     2  H    0.417274
     3  H    0.429020
     4  H    0.431464
     5  C   -0.153505
     6  H    0.206670
     7  C    0.656585
     8  C   -0.090229
     9  H    0.210501
    10  H    0.249417
    11  O   -0.533422
    12  O   -0.615700
    13  H    0.429873
    14  N   -0.559790
    15  H    0.350842
    16  C   -0.072819
    17  H    0.191838
    18  C    0.618144
    19  C   -0.474544
    20  H    0.192576
    21  H    0.177982
    22  H    0.182330
    23  O   -0.547808
    24  N   -0.619165
    25  H    0.360153
    26  C   -0.063737
    27  H    0.185704
    28  C    0.618220
    29  C    0.128258
    30  H    0.144000
    31  O   -0.542870
    32  C   -0.475930
    33  H    0.180041
    34  H    0.160391
    35  H    0.169949
    36  O   -0.648558
    37  H    0.413958
    38  N   -0.599316
    39  H    0.357608
    40  C   -0.071278
    41  H    0.174409
    42  C    0.640185
    43  C   -0.069912
    44  H    0.148234
    45  O   -0.562784
    46  C   -0.480343
    47  H    0.137138
    48  H    0.182180
    49  H    0.167044
    50  C   -0.445296
    51  H    0.152710
    52  H    0.143656
    53  H    0.156213
    54  N   -0.607066
    55  H    0.345302
    56  C   -0.083979
    57  H    0.185696
    58  C    0.638387
    59  C   -0.071407
    60  H    0.119232
    61  O   -0.528012
    62  C   -0.262708
    63  H    0.174481
    64  H    0.124753
    65  C   -0.479984
    66  H    0.197746
    67  H    0.115303
    68  H    0.147754
    69  C   -0.473583
    70  H    0.138095
    71  H    0.186923
    72  H    0.128464
    73  N   -0.608238
    74  H    0.353092
    75  C   -0.060405
    76  H    0.189248
    77  C    0.619161
    78  C   -0.329802
    79  H    0.141734
    80  H    0.138987
    81  O   -0.554854
    82  C    0.551967
    83  O   -0.599398
    84  O   -0.598670
    85  N   -0.631516
    86  H    0.378997
    87  C   -0.019254
    88  H    0.174838
    89  C    0.585389
    90  C   -0.345679
    91  H    0.186500
    92  H    0.174456
    93  O   -0.579963
    94  C    0.346748
    95  C   -0.085654
    96  H    0.198854
    97  N   -0.608978
    98  H    0.350883
    99  C    0.227733
   100  H    0.173157
   101  N   -0.539211
   102  N   -0.642283
   103  H    0.418511
   104  C   -0.012701
   105  H    0.155591
   106  C    0.660539
   107  C   -0.306813
   108  H    0.190157
   109  H    0.148035
   110  O   -0.578416
   111  C   -0.078202
   112  H    0.116858
   113  C   -0.444175
   114  H    0.159491
   115  H    0.133856
   116  H    0.137029
   117  C   -0.441193
   118  H    0.147810
   119  H    0.133640
   120  H    0.136694
   121  N   -0.613056
   122  H    0.354289
   123  C   -0.014246
   124  H    0.178510
   125  C    0.577614
   126  C   -0.284061
   127  H    0.158423
   128  H    0.205070
   129  O   -0.451762
   130  C   -0.278758
   131  H    0.175324
   132  H    0.131964
   133  C   -0.178273
   134  H    0.188209
   135  H    0.174934
   136  N   -0.600339
   137  H    0.393917
   138  N   -0.757041
   139  H    0.367611
   140  H    0.378547
   141  N   -0.785779
   142  H    0.354187
   143  H    0.422498
   144  C    0.798458
   145  O   -0.574988
   146  H    0.418595
 Sum of Mulliken charges =   1.00000

 Dipole moment (field-independent basis, Debye):
    X=            -28.7626    Y=             -4.2324    Z=              7.5661  Tot=             30.0407
 Quadrupole moment (field-independent basis, Debye-Ang):
   XX=            190.1845   YY=           -356.8742   ZZ=            -78.9078
   XY=            141.8462   XZ=            352.6316   YZ=            105.2442

 Normal termination of Gaussian 16 at Sun Jun 19 12:05:04 2022.
