 Gaussian 16, Revision C.01,
 Gaussian 16:  ES64L-G16RevC.01  3-Jul-2019

 -------------------------------------------------------------------
 # B3LYP/6-31G* guess=read geom=check nosymm integral(ultrafinegrid)
 -------------------------------------------------------------------

 ------------------------------------------------------
 Candidate Structure: Conf:123 Charge calc in gas phase
 ------------------------------------------------------
 Structure from the checkpoint file:  "conf-123.chk"
 Charge =  1 Multiplicity = 1

                          Input orientation:
 ---------------------------------------------------------------------
 Center     Atomic      Atomic             Coordinates (Angstroms)
 Number     Number       Type             X           Y           Z
 ---------------------------------------------------------------------
      1          7           0        1.435082    2.550018   -6.301601
      2          1           0        2.015091    1.703569   -6.397634
      3          1           0        1.449620    3.023498   -7.211051
      4          1           0        1.747630    3.200253   -5.445507
      5          6           0        0.042795    2.110258   -5.999867
      6          1           0       -0.143259    2.368527   -4.953470
      7          6           0       -0.014206    0.574677   -6.176413
      8          6           0       -0.940326    2.891833   -6.877411
      9          1           0       -0.973684    3.935492   -6.531613
     10          1           0       -1.944085    2.460126   -6.765976
     11          8           0        0.898387   -0.013842   -6.750397
     12          8           0       -0.460380    2.800285   -8.210476
     13          1           0       -0.996580    3.372100   -8.780627
     14          7           0       -1.107394    0.023642   -5.613855
     15          1           0       -1.703774    0.598518   -5.018608
     16          6           0       -1.410979   -1.395737   -5.446891
     17          1           0       -1.830176   -1.794729   -6.381489
     18          6           0       -2.508622   -1.420297   -4.353603
     19          6           0       -0.196087   -2.247382   -5.038794
     20          1           0       -0.488040   -3.295999   -4.929220
     21          1           0        0.213034   -1.900932   -4.084502
     22          1           0        0.581320   -2.175393   -5.799716
     23          8           0       -2.877871   -0.368025   -3.815316
     24          7           0       -2.984108   -2.625254   -3.986970
     25          1           0       -2.846269   -3.424493   -4.596901
     26          6           0       -4.081216   -2.775518   -3.022138
     27          1           0       -4.764554   -1.926585   -3.161092
     28          6           0       -3.569440   -2.748550   -1.551406
     29          6           0       -4.813066   -4.118357   -3.305736
     30          1           0       -4.243242   -4.915832   -2.823213
     31          8           0       -3.833961   -3.660111   -0.769461
     32          6           0       -6.237807   -4.120044   -2.766440
     33          1           0       -6.236495   -3.950366   -1.686889
     34          1           0       -6.839603   -3.333266   -3.242759
     35          1           0       -6.710517   -5.085896   -2.967956
     36          8           0       -4.768221   -4.432272   -4.701543
     37          1           0       -5.444408   -3.900135   -5.152937
     38          7           0       -2.822288   -1.671705   -1.208547
     39          1           0       -2.678663   -0.905353   -1.864764
     40          6           0       -2.190144   -1.556570    0.097683
     41          1           0       -2.940269   -1.767780    0.871026
     42          6           0       -1.705802   -0.105910    0.223828
     43          6           0       -1.033566   -2.601230    0.271071
     44          1           0       -1.518039   -3.556640    0.044016
     45          8           0       -1.509757    0.604834   -0.759491
     46          6           0        0.117309   -2.382665   -0.719237
     47          1           0        0.667185   -1.459876   -0.504071
     48          1           0       -0.253189   -2.331772   -1.747732
     49          1           0        0.826822   -3.215994   -0.663223
     50          6           0       -0.513836   -2.688733    1.714341
     51          1           0        0.092856   -1.812655    1.974073
     52          1           0       -1.332774   -2.789306    2.439437
     53          1           0        0.123317   -3.573269    1.824931
     54          7           0       -1.482175    0.352992    1.489376
     55          1           0       -1.527387   -0.302136    2.256917
     56          6           0       -0.785646    1.616308    1.706971
     57          1           0       -1.393736    2.417921    1.268975
     58          6           0        0.576178    1.560037    0.978151
     59          6           0       -0.605253    1.894247    3.221414
     60          1           0       -0.048185    1.036212    3.632899
     61          8           0        1.330991    0.585680    1.117881
     62          6           0       -1.973319    1.978067    3.935423
     63          1           0       -2.606413    1.137240    3.627146
     64          1           0       -2.491646    2.883186    3.588938
     65          6           0        0.231915    3.163756    3.451708
     66          1           0       -0.288601    4.047626    3.060850
     67          1           0        1.213761    3.115675    2.971410
     68          1           0        0.394469    3.329941    4.520070
     69          6           0       -1.886675    1.988957    5.466227
     70          1           0       -2.889437    1.990430    5.905919
     71          1           0       -1.363071    1.100579    5.841750
     72          1           0       -1.362622    2.871520    5.846368
     73          7           0        0.871284    2.619450    0.203370
     74          1           0        0.150461    3.317751    0.085127
     75          6           0        1.990515    2.672419   -0.730489
     76          1           0        2.057636    1.697330   -1.227929
     77          6           0        3.335413    2.879963    0.000471
     78          6           0        1.713421    3.762720   -1.797787
     79          1           0        0.633451    3.902446   -1.904312
     80          1           0        2.127307    4.728501   -1.481336
     81          8           0        3.414161    2.968473    1.242119
     82          6           0        2.258804    3.425634   -3.202738
     83          8           0        1.566876    3.901993   -4.160558
     84          8           0        3.288347    2.724900   -3.315478
     85          7           0        4.396412    2.952331   -0.813517
     86          1           0        4.202169    2.840940   -1.828190
     87          6           0        5.778404    2.972924   -0.339297
     88          1           0        5.802246    2.390331    0.591071
     89          6           0        6.309989    4.375663    0.077658
     90          6           0        6.704073    2.296730   -1.356968
     91          1           0        7.719131    2.656861   -1.158252
     92          1           0        6.451402    2.652706   -2.366412
     93          8           0        7.451169    4.731726   -0.196549
     94          6           0        6.643075    0.800004   -1.274815
     95          6           0        5.790487   -0.083818   -0.649025
     96          1           0        4.891902    0.143172   -0.090852
     97          7           0        7.588137   -0.011961   -1.874976
     98          1           0        8.375460    0.303023   -2.424925
     99          6           0        7.268424   -1.310546   -1.585180
    100          1           0        7.858618   -2.144180   -1.941881
    101          7           0        6.187999   -1.390554   -0.842216
    102          7           0        5.451162    5.100636    0.848837
    103          1           0        4.603241    4.637281    1.172221
    104          6           0        5.913785    6.214132    1.691942
    105          1           0        6.964695    6.372560    1.442087
    106          6           0        5.759134    5.677623    3.125523
    107          6           0        5.100022    7.499673    1.485928
    108          1           0        4.073034    7.307133    1.819861
    109          1           0        5.506521    8.264990    2.163734
    110          8           0        4.645314    5.436746    3.587313
    111          6           0        5.091525    8.047442    0.046126
    112          1           0        4.672464    7.265348   -0.603122
    113          6           0        4.170141    9.273940   -0.035975
    114          1           0        4.548812   10.093857    0.587800
    115          1           0        4.102232    9.645726   -1.064682
    116          1           0        3.154530    9.038891    0.304883
    117          6           0        6.499993    8.383576   -0.468593
    118          1           0        6.992598    9.116536    0.184495
    119          1           0        6.448527    8.821531   -1.472061
    120          1           0        7.138821    7.496232   -0.531284
    121          7           0        6.909888    5.353045    3.783094
    122          1           0        7.810917    5.675575    3.451787
    123          6           0        6.869072    4.662265    5.058601
    124          1           0        5.896940    4.880964    5.509323
    125          6           0        7.976259    5.209550    5.946911
    126          6           0        7.017251    3.112649    4.925642
    127          1           0        6.673896    2.663418    5.865180
    128          1           0        8.079696    2.853587    4.817893
    129          8           0        8.894976    5.894640    5.557596
    130          6           0        6.250730    2.556384    3.717484
    131          1           0        5.210815    2.898982    3.741169
    132          1           0        6.691293    2.989410    2.814088
    133          6           0        6.308419    1.027513    3.558242
    134          1           0        6.209213    0.748037    2.504065
    135          1           0        7.273671    0.634953    3.893302
    136          7           0        5.274406    0.278175    4.290668
    137          1           0        5.487718   -0.072182    5.214291
    138          7           0        3.567974    0.653645    2.752126
    139          1           0        2.697047    0.384160    2.279052
    140          1           0        3.918803    1.552394    2.415361
    141          7           0        3.297126   -0.922856    4.432072
    142          1           0        2.370298   -1.107972    4.073129
    143          1           0        3.758144   -1.707270    4.872701
    144          6           0        4.050008    0.016774    3.804090
    145          8           0        7.835690    4.795015    7.222234
    146          1           0        8.591894    5.156883    7.723647
 ---------------------------------------------------------------------

 SCF Done:  E(RB3LYP) =  -3503.41170716     A.U. after    2 cycles

 Alpha  occ. eigenvalues --  -19.27704 -19.24857 -19.22090 -19.22071 -19.21229
 Alpha  occ. eigenvalues --  -19.20971 -19.20894 -19.20500 -19.19699 -19.18671
 Alpha  occ. eigenvalues --  -19.18618 -19.17907 -19.17482 -19.16981 -14.49601
 Alpha  occ. eigenvalues --  -14.49367 -14.48749 -14.46993 -14.45332 -14.45040
 Alpha  occ. eigenvalues --  -14.44535 -14.44295 -14.44157 -14.43685 -14.43420
 Alpha  occ. eigenvalues --  -14.42248 -14.41674 -14.36957 -10.45186 -10.40115
 Alpha  occ. eigenvalues --  -10.37949 -10.37789 -10.37673 -10.37380 -10.36610
 Alpha  occ. eigenvalues --  -10.35853 -10.35706 -10.35341 -10.35216 -10.33888
 Alpha  occ. eigenvalues --  -10.33596 -10.33297 -10.32297 -10.32041 -10.32002
 Alpha  occ. eigenvalues --  -10.31935 -10.31447 -10.30739 -10.30518 -10.30270
 Alpha  occ. eigenvalues --  -10.29689 -10.29533 -10.28410 -10.28381 -10.28323
 Alpha  occ. eigenvalues --  -10.28100 -10.26978 -10.26891 -10.26112 -10.26095
 Alpha  occ. eigenvalues --  -10.25590 -10.25458 -10.25062 -10.25027 -10.24719
 Alpha  occ. eigenvalues --  -10.23969 -10.23931 -10.23779 -10.23276 -10.22055
 Alpha  occ. eigenvalues --  -10.21654  -1.18636  -1.13744  -1.13224  -1.13049
 Alpha  occ. eigenvalues --   -1.12688  -1.12084  -1.11784  -1.11405  -1.10964
 Alpha  occ. eigenvalues --   -1.10570  -1.10121  -1.09826  -1.09693  -1.09193
 Alpha  occ. eigenvalues --   -1.07095  -1.04381  -1.03350  -1.01884  -1.01660
 Alpha  occ. eigenvalues --   -1.01174  -1.01160  -1.00735  -1.00582  -1.00376
 Alpha  occ. eigenvalues --   -1.00125  -0.98645  -0.98375  -0.92840  -0.89571
 Alpha  occ. eigenvalues --   -0.89321  -0.87676  -0.87416  -0.86670  -0.86192
 Alpha  occ. eigenvalues --   -0.85102  -0.84695  -0.84648  -0.82777  -0.81840
 Alpha  occ. eigenvalues --   -0.81116  -0.79435  -0.79227  -0.78546  -0.77819
 Alpha  occ. eigenvalues --   -0.76108  -0.75503  -0.75263  -0.75134  -0.74775
 Alpha  occ. eigenvalues --   -0.73162  -0.72755  -0.72240  -0.71817  -0.71217
 Alpha  occ. eigenvalues --   -0.71094  -0.70221  -0.69390  -0.68692  -0.67838
 Alpha  occ. eigenvalues --   -0.67364  -0.67318  -0.67254  -0.66841  -0.66521
 Alpha  occ. eigenvalues --   -0.66420  -0.66107  -0.65756  -0.65176  -0.64898
 Alpha  occ. eigenvalues --   -0.64776  -0.64385  -0.64113  -0.62789  -0.62459
 Alpha  occ. eigenvalues --   -0.62104  -0.61578  -0.61432  -0.61210  -0.60745
 Alpha  occ. eigenvalues --   -0.60372  -0.59497  -0.59390  -0.58989  -0.58562
 Alpha  occ. eigenvalues --   -0.58299  -0.58071  -0.57576  -0.56971  -0.56808
 Alpha  occ. eigenvalues --   -0.56696  -0.56170  -0.55996  -0.55327  -0.54913
 Alpha  occ. eigenvalues --   -0.54847  -0.54591  -0.54485  -0.54249  -0.54181
 Alpha  occ. eigenvalues --   -0.54101  -0.53753  -0.53313  -0.53086  -0.52742
 Alpha  occ. eigenvalues --   -0.52402  -0.52079  -0.51944  -0.51653  -0.51408
 Alpha  occ. eigenvalues --   -0.51223  -0.51134  -0.51045  -0.50834  -0.50686
 Alpha  occ. eigenvalues --   -0.50437  -0.50329  -0.50267  -0.50037  -0.49818
 Alpha  occ. eigenvalues --   -0.49309  -0.49109  -0.49016  -0.48781  -0.48709
 Alpha  occ. eigenvalues --   -0.48541  -0.48527  -0.47916  -0.47884  -0.47751
 Alpha  occ. eigenvalues --   -0.47453  -0.47281  -0.46974  -0.46905  -0.46688
 Alpha  occ. eigenvalues --   -0.46554  -0.46517  -0.46203  -0.46075  -0.45825
 Alpha  occ. eigenvalues --   -0.45630  -0.45411  -0.45267  -0.45205  -0.44984
 Alpha  occ. eigenvalues --   -0.44759  -0.44657  -0.44629  -0.44571  -0.44337
 Alpha  occ. eigenvalues --   -0.44096  -0.43914  -0.43766  -0.43690  -0.43661
 Alpha  occ. eigenvalues --   -0.43293  -0.43262  -0.43191  -0.42964  -0.42841
 Alpha  occ. eigenvalues --   -0.42722  -0.42311  -0.41086  -0.41065  -0.40737
 Alpha  occ. eigenvalues --   -0.40554  -0.40362  -0.40135  -0.40002  -0.39970
 Alpha  occ. eigenvalues --   -0.39815  -0.39124  -0.38102  -0.37653  -0.37574
 Alpha  occ. eigenvalues --   -0.37397  -0.37316  -0.36162  -0.35878  -0.35838
 Alpha  occ. eigenvalues --   -0.35754  -0.35639  -0.35015  -0.34636  -0.34558
 Alpha  occ. eigenvalues --   -0.34390  -0.33836  -0.33824  -0.33672  -0.33653
 Alpha  occ. eigenvalues --   -0.33131  -0.33042  -0.32937  -0.32566  -0.32052
 Alpha  occ. eigenvalues --   -0.31644  -0.31245  -0.31188  -0.30850  -0.30464
 Alpha  occ. eigenvalues --   -0.28226
 Alpha virt. eigenvalues --   -0.09914  -0.07710  -0.07152  -0.07045  -0.06908
 Alpha virt. eigenvalues --   -0.06345  -0.06278  -0.06239  -0.05736  -0.04113
 Alpha virt. eigenvalues --   -0.03618  -0.03321  -0.03076  -0.02833  -0.02335

 Mulliken charges:
               1
     1  N   -0.777137
     2  H    0.400911
     3  H    0.392962
     4  H    0.444211
     5  C   -0.100481
     6  H    0.213165
     7  C    0.633769
     8  C   -0.055240
     9  H    0.169272
    10  H    0.166472
    11  O   -0.519014
    12  O   -0.617568
    13  H    0.421661
    14  N   -0.638075
    15  H    0.368231
    16  C   -0.020565
    17  H    0.183720
    18  C    0.612945
    19  C   -0.468997
    20  H    0.155210
    21  H    0.173139
    22  H    0.211948
    23  O   -0.550139
    24  N   -0.608751
    25  H    0.360387
    26  C   -0.086420
    27  H    0.178226
    28  C    0.637856
    29  C    0.120908
    30  H    0.180062
    31  O   -0.529819
    32  C   -0.483226
    33  H    0.189232
    34  H    0.134918
    35  H    0.174725
    36  O   -0.632090
    37  H    0.394863
    38  N   -0.655749
    39  H    0.399703
    40  C   -0.035211
    41  H    0.167279
    42  C    0.631837
    43  C   -0.076240
    44  H    0.180692
    45  O   -0.543789
    46  C   -0.478556
    47  H    0.170134
    48  H    0.152022
    49  H    0.150626
    50  C   -0.488156
    51  H    0.136601
    52  H    0.143827
    53  H    0.158435
    54  N   -0.619814
    55  H    0.337547
    56  C   -0.013065
    57  H    0.157997
    58  C    0.663986
    59  C   -0.110270
    60  H    0.109386
    61  O   -0.592645
    62  C   -0.258972
    63  H    0.140911
    64  H    0.147333
    65  C   -0.485960
    66  H    0.148489
    67  H    0.184919
    68  H    0.163903
    69  C   -0.450907
    70  H    0.163655
    71  H    0.137051
    72  H    0.159210
    73  N   -0.585008
    74  H    0.348117
    75  C   -0.029587
    76  H    0.211292
    77  C    0.604725
    78  C   -0.416071
    79  H    0.170628
    80  H    0.188201
    81  O   -0.593784
    82  C    0.628473
    83  O   -0.627662
    84  O   -0.564867
    85  N   -0.603934
    86  H    0.414281
    87  C   -0.076373
    88  H    0.169315
    89  C    0.616541
    90  C   -0.384467
    91  H    0.197107
    92  H    0.185444
    93  O   -0.516478
    94  C    0.335105
    95  C   -0.098620
    96  H    0.124801
    97  N   -0.609880
    98  H    0.340076
    99  C    0.209931
   100  H    0.164532
   101  N   -0.435342
   102  N   -0.626385
   103  H    0.378269
   104  C   -0.059006
   105  H    0.179624
   106  C    0.616648
   107  C   -0.259999
   108  H    0.153320
   109  H    0.140750
   110  O   -0.534783
   111  C   -0.069516
   112  H    0.127462
   113  C   -0.443296
   114  H    0.145534
   115  H    0.147082
   116  H    0.137453
   117  C   -0.466397
   118  H    0.138817
   119  H    0.147254
   120  H    0.169456
   121  N   -0.612705
   122  H    0.355852
   123  C   -0.034851
   124  H    0.211822
   125  C    0.580787
   126  C   -0.282190
   127  H    0.157619
   128  H    0.154606
   129  O   -0.453820
   130  C   -0.291566
   131  H    0.190014
   132  H    0.172282
   133  C   -0.189136
   134  H    0.203218
   135  H    0.181733
   136  N   -0.593151
   137  H    0.357566
   138  N   -0.813050
   139  H    0.417300
   140  H    0.430380
   141  N   -0.761558
   142  H    0.376615
   143  H    0.368440
   144  C    0.796325
   145  O   -0.564258
   146  H    0.425469
 Sum of Mulliken charges =   1.00000

 Dipole moment (field-independent basis, Debye):
    X=              9.2324    Y=              4.6472    Z=              2.7166  Tot=             10.6871
 Quadrupole moment (field-independent basis, Debye-Ang):
   XX=           -293.4090   YY=           -393.5095   ZZ=           -246.3556
   XY=              5.8500   XZ=             90.8568   YZ=            -17.9566

 Normal termination of Gaussian 16 at Sun Jun 19 12:04:53 2022.
