 Gaussian 16, Revision C.01,
 Gaussian 16:  ES64L-G16RevC.01  3-Jul-2019

 -------------------------------------------------------------------
 # B3LYP/6-31G* guess=read geom=check nosymm integral(ultrafinegrid)
 -------------------------------------------------------------------

 ------------------------------------------------------
 Candidate Structure: Conf:242 Charge calc in gas phase
 ------------------------------------------------------
 Structure from the checkpoint file:  "conf-242.chk"
 Charge =  1 Multiplicity = 1

                          Input orientation:
 ---------------------------------------------------------------------
 Center     Atomic      Atomic             Coordinates (Angstroms)
 Number     Number       Type             X           Y           Z
 ---------------------------------------------------------------------
      1          7           0      -10.325451   -3.141476   -8.943884
      2          1           0      -10.322477   -2.449582   -9.698532
      3          1           0       -9.511947   -3.791413   -9.089846
      4          1           0      -11.239747   -3.622891   -8.919335
      5          6           0      -10.061859   -2.547051   -7.587010
      6          1           0      -10.377189   -1.501205   -7.595573
      7          6           0       -8.537313   -2.728607   -7.380308
      8          6           0      -10.886255   -3.382909   -6.573838
      9          1           0      -10.926175   -2.860591   -5.613098
     10          1           0      -10.393785   -4.348461   -6.419012
     11          8           0       -7.969897   -3.564160   -8.096676
     12          8           0      -12.169996   -3.658081   -7.112064
     13          1           0      -12.816111   -3.006645   -6.796314
     14          7           0       -7.987221   -2.005573   -6.413718
     15          1           0       -8.514108   -1.345819   -5.832750
     16          6           0       -6.592429   -2.102980   -5.978124
     17          1           0       -6.340881   -3.160029   -5.836805
     18          6           0       -6.572800   -1.365917   -4.616580
     19          6           0       -5.621844   -1.470796   -6.989886
     20          1           0       -4.591142   -1.534920   -6.628000
     21          1           0       -5.864139   -0.414743   -7.145993
     22          1           0       -5.682584   -1.998586   -7.945157
     23          8           0       -7.553668   -0.702055   -4.268439
     24          7           0       -5.445970   -1.515864   -3.898241
     25          1           0       -4.605673   -1.887712   -4.347688
     26          6           0       -5.083026   -0.654170   -2.773864
     27          1           0       -5.668701    0.269790   -2.831072
     28          6           0       -3.575247   -0.360200   -2.972737
     29          6           0       -5.333476   -1.338788   -1.401195
     30          1           0       -4.962279   -0.660732   -0.624526
     31          8           0       -2.931383   -0.987317   -3.817564
     32          6           0       -6.809067   -1.634824   -1.138732
     33          1           0       -7.417143   -0.725639   -1.184693
     34          1           0       -7.206743   -2.338167   -1.880097
     35          1           0       -6.916153   -2.083609   -0.146874
     36          8           0       -4.526875   -2.501030   -1.275289
     37          1           0       -4.870721   -3.163866   -1.896378
     38          7           0       -3.069073    0.602951   -2.180801
     39          1           0       -3.618602    0.957133   -1.399542
     40          6           0       -1.639756    0.815778   -1.973410
     41          1           0       -1.115154   -0.091907   -2.290394
     42          6           0       -1.475598    1.018761   -0.450717
     43          6           0       -1.068698    2.025533   -2.769977
     44          1           0       -0.015134    2.112272   -2.467452
     45          8           0       -2.449712    1.310978    0.248480
     46          6           0       -1.103092    1.762923   -4.281607
     47          1           0       -2.133499    1.684085   -4.645110
     48          1           0       -0.588545    0.832517   -4.543418
     49          1           0       -0.619256    2.586427   -4.818815
     50          6           0       -1.773892    3.342829   -2.416479
     51          1           0       -2.829735    3.311112   -2.710223
     52          1           0       -1.730685    3.561917   -1.344610
     53          1           0       -1.305809    4.177141   -2.949614
     54          7           0       -0.221001    0.871284    0.020284
     55          1           0        0.557103    0.749022   -0.620690
     56          6           0        0.189054    1.237529    1.373671
     57          1           0       -0.611219    1.853198    1.797930
     58          6           0        1.478332    2.059134    1.183638
     59          6           0        0.426410   -0.000241    2.297274
     60          1           0        1.309893   -0.529332    1.916211
     61          8           0        2.239861    1.814201    0.241972
     62          6           0       -0.772825   -0.969368    2.235054
     63          1           0       -0.939637   -1.250693    1.189330
     64          1           0       -1.683588   -0.446826    2.559079
     65          6           0        0.728106    0.435737    3.739920
     66          1           0       -0.133530    0.952752    4.186157
     67          1           0        1.599347    1.093690    3.805740
     68          1           0        0.952241   -0.437464    4.356989
     69          6           0       -0.579187   -2.248418    3.060510
     70          1           0       -1.370157   -2.972595    2.834565
     71          1           0        0.387249   -2.717693    2.842227
     72          1           0       -0.612434   -2.054619    4.137619
     73          7           0        1.712338    3.047844    2.076811
     74          1           0        1.098852    3.146502    2.874392
     75          6           0        2.953100    3.827591    2.061371
     76          1           0        3.185153    4.045728    1.017582
     77          6           0        4.104452    3.006220    2.679335
     78          6           0        2.788241    5.133359    2.831369
     79          1           0        1.966115    5.722543    2.407821
     80          1           0        2.538135    4.924953    3.877594
     81          8           0        4.256045    2.913239    3.895614
     82          6           0        4.075444    5.983496    2.806184
     83          8           0        4.064545    7.012604    3.550666
     84          8           0        5.020838    5.609449    2.069551
     85          7           0        4.921293    2.402378    1.772205
     86          1           0        4.626733    2.403380    0.803386
     87          6           0        6.123745    1.688519    2.148416
     88          1           0        6.060355    1.540943    3.232549
     89          6           0        7.413995    2.505486    1.911997
     90          6           0        6.246180    0.318762    1.459423
     91          1           0        7.258083   -0.049273    1.663031
     92          1           0        6.189532    0.463203    0.368884
     93          8           0        8.513811    1.934125    1.958944
     94          6           0        5.208745   -0.664974    1.905661
     95          6           0        4.258731   -0.662327    2.900533
     96          1           0        4.048726    0.126427    3.610043
     97          7           0        5.059051   -1.897305    1.291973
     98          1           0        5.613163   -2.247126    0.523082
     99          6           0        4.049697   -2.561131    1.932214
    100          1           0        3.736358   -3.555622    1.643329
    101          7           0        3.540890   -1.843002    2.908411
    102          7           0        7.281928    3.831523    1.698130
    103          1           0        6.370728    4.299243    1.770435
    104          6           0        8.451846    4.666786    1.393025
    105          1           0        9.159253    4.014974    0.869386
    106          6           0        9.142702    5.106331    2.706803
    107          6           0        8.037915    5.839721    0.496017
    108          1           0        7.468034    5.411810   -0.340138
    109          1           0        7.333994    6.470879    1.048661
    110          8           0        9.177726    6.286241    3.094283
    111          6           0        9.190696    6.692828   -0.072432
    112          1           0        9.776850    7.078115    0.770784
    113          6           0       10.127888    5.886674   -0.985796
    114          1           0        9.577716    5.458427   -1.834302
    115          1           0       10.916586    6.529033   -1.394123
    116          1           0       10.623326    5.062553   -0.459520
    117          6           0        8.610272    7.897614   -0.828877
    118          1           0        8.003616    7.571476   -1.683938
    119          1           0        9.408698    8.541944   -1.214632
    120          1           0        7.970054    8.506687   -0.180205
    121          7           0        9.689582    4.085204    3.402959
    122          1           0        9.640939    3.154033    2.979969
    123          6           0       10.406887    4.247743    4.651134
    124          1           0       10.522429    5.319440    4.831721
    125          6           0       11.810659    3.657369    4.501003
    126          6           0        9.701682    3.567142    5.854540
    127          1           0       10.356503    3.676947    6.727409
    128          1           0        9.641133    2.492134    5.641678
    129          8           0       12.156386    2.890089    3.634746
    130          6           0        8.291274    4.068400    6.213328
    131          1           0        7.603256    3.925294    5.371375
    132          1           0        7.925915    3.420201    7.019801
    133          6           0        8.206118    5.534813    6.701021
    134          1           0        7.413657    5.643402    7.447351
    135          1           0        9.129759    5.818727    7.218659
    136          7           0        7.981209    6.520149    5.646434
    137          1           0        8.724227    6.618118    4.954100
    138          7           0        5.623939    6.608156    5.804516
    139          1           0        4.774036    6.720240    5.233064
    140          1           0        5.606957    5.930864    6.549855
    141          7           0        6.704795    7.571391    4.019610
    142          1           0        5.761325    7.575696    3.581843
    143          1           0        7.512199    7.510910    3.405906
    144          6           0        6.771775    6.866896    5.153664
    145          8           0       12.621858    4.079224    5.497844
    146          1           0       13.484285    3.642299    5.361102
 ---------------------------------------------------------------------

 SCF Done:  E(RB3LYP) =  -3503.40891874     A.U. after    1 cycles

 Alpha  occ. eigenvalues --  -19.31651 -19.27086 -19.24866 -19.22688 -19.21315
 Alpha  occ. eigenvalues --  -19.19247 -19.19166 -19.17824 -19.17442 -19.17010
 Alpha  occ. eigenvalues --  -19.16002 -19.15332 -19.12078 -19.11908 -14.60566
 Alpha  occ. eigenvalues --  -14.49961 -14.45404 -14.42471 -14.42437 -14.41704
 Alpha  occ. eigenvalues --  -14.41447 -14.41279 -14.40814 -14.40625 -14.39875
 Alpha  occ. eigenvalues --  -14.39742 -14.38473 -14.34438 -10.44226 -10.41590
 Alpha  occ. eigenvalues --  -10.40398 -10.39496 -10.37163 -10.37091 -10.36207
 Alpha  occ. eigenvalues --  -10.35264 -10.34418 -10.34289 -10.33903 -10.32962
 Alpha  occ. eigenvalues --  -10.32428 -10.31395 -10.31204 -10.30310 -10.29504
 Alpha  occ. eigenvalues --  -10.29091 -10.28962 -10.28618 -10.27956 -10.27866
 Alpha  occ. eigenvalues --  -10.27344 -10.27159 -10.26982 -10.25344 -10.25216
 Alpha  occ. eigenvalues --  -10.25126 -10.24780 -10.24575 -10.24345 -10.22958
 Alpha  occ. eigenvalues --  -10.22465 -10.22447 -10.22430 -10.21695 -10.21685
 Alpha  occ. eigenvalues --  -10.21448 -10.21105 -10.20809 -10.20228 -10.20050
 Alpha  occ. eigenvalues --  -10.19935  -1.20109  -1.18577  -1.15724  -1.14652
 Alpha  occ. eigenvalues --   -1.14129  -1.11186  -1.09437  -1.09186  -1.08917
 Alpha  occ. eigenvalues --   -1.08610  -1.07727  -1.06987  -1.06835  -1.06504
 Alpha  occ. eigenvalues --   -1.06037  -1.04971  -1.04417  -1.01954  -0.99238
 Alpha  occ. eigenvalues --   -0.97949  -0.97890  -0.97467  -0.97162  -0.96604
 Alpha  occ. eigenvalues --   -0.95781  -0.95393  -0.93331  -0.93052  -0.90150
 Alpha  occ. eigenvalues --   -0.88644  -0.86576  -0.85686  -0.84762  -0.84157
 Alpha  occ. eigenvalues --   -0.84063  -0.83459  -0.81458  -0.81178  -0.80973
 Alpha  occ. eigenvalues --   -0.79504  -0.78340  -0.78137  -0.77285  -0.76206
 Alpha  occ. eigenvalues --   -0.75794  -0.75002  -0.74405  -0.74265  -0.73527
 Alpha  occ. eigenvalues --   -0.73449  -0.71633  -0.71075  -0.70985  -0.69705
 Alpha  occ. eigenvalues --   -0.69612  -0.68844  -0.68516  -0.68210  -0.67472
 Alpha  occ. eigenvalues --   -0.66965  -0.66563  -0.66192  -0.65533  -0.65233
 Alpha  occ. eigenvalues --   -0.64702  -0.64649  -0.63658  -0.63551  -0.63378
 Alpha  occ. eigenvalues --   -0.62973  -0.62556  -0.62492  -0.62388  -0.61542
 Alpha  occ. eigenvalues --   -0.61466  -0.60420  -0.60051  -0.59462  -0.59213
 Alpha  occ. eigenvalues --   -0.58893  -0.58832  -0.58424  -0.57941  -0.57160
 Alpha  occ. eigenvalues --   -0.57089  -0.56655  -0.55873  -0.55433  -0.55150
 Alpha  occ. eigenvalues --   -0.54951  -0.54283  -0.54042  -0.53949  -0.53796
 Alpha  occ. eigenvalues --   -0.53633  -0.53274  -0.52994  -0.52872  -0.52619
 Alpha  occ. eigenvalues --   -0.52369  -0.52236  -0.52017  -0.51913  -0.51346
 Alpha  occ. eigenvalues --   -0.51077  -0.50875  -0.50631  -0.50325  -0.50099
 Alpha  occ. eigenvalues --   -0.50020  -0.49949  -0.49848  -0.49497  -0.49223
 Alpha  occ. eigenvalues --   -0.48953  -0.48684  -0.48470  -0.48213  -0.47929
 Alpha  occ. eigenvalues --   -0.47512  -0.47430  -0.47325  -0.47121  -0.46862
 Alpha  occ. eigenvalues --   -0.46682  -0.46541  -0.46349  -0.46055  -0.45792
 Alpha  occ. eigenvalues --   -0.45693  -0.45454  -0.45380  -0.45193  -0.44867
 Alpha  occ. eigenvalues --   -0.44732  -0.44647  -0.44383  -0.44227  -0.44026
 Alpha  occ. eigenvalues --   -0.43821  -0.43730  -0.43652  -0.43525  -0.43452
 Alpha  occ. eigenvalues --   -0.43407  -0.43127  -0.42727  -0.42618  -0.42160
 Alpha  occ. eigenvalues --   -0.41767  -0.41394  -0.41299  -0.41200  -0.41047
 Alpha  occ. eigenvalues --   -0.40770  -0.40666  -0.40587  -0.40542  -0.40303
 Alpha  occ. eigenvalues --   -0.40040  -0.39716  -0.39651  -0.39435  -0.39360
 Alpha  occ. eigenvalues --   -0.38947  -0.38846  -0.38772  -0.38607  -0.37844
 Alpha  occ. eigenvalues --   -0.36887  -0.36847  -0.36763  -0.36333  -0.35869
 Alpha  occ. eigenvalues --   -0.35719  -0.35598  -0.35459  -0.35264  -0.34184
 Alpha  occ. eigenvalues --   -0.33162  -0.33109  -0.32516  -0.32456  -0.32345
 Alpha  occ. eigenvalues --   -0.32147  -0.32097  -0.31648  -0.31102  -0.30898
 Alpha  occ. eigenvalues --   -0.30745  -0.30710  -0.29965  -0.29908  -0.29046
 Alpha  occ. eigenvalues --   -0.28335  -0.28048  -0.27710  -0.26634  -0.26131
 Alpha  occ. eigenvalues --   -0.25357
 Alpha virt. eigenvalues --   -0.13115  -0.11376  -0.08311  -0.06798  -0.05946
 Alpha virt. eigenvalues --   -0.04908  -0.04435  -0.03966  -0.03606  -0.03499
 Alpha virt. eigenvalues --   -0.02556  -0.02323  -0.02306  -0.01849  -0.01208

 Mulliken charges:
               1
     1  N   -0.742324
     2  H    0.418304
     3  H    0.429131
     4  H    0.427799
     5  C   -0.143188
     6  H    0.213021
     7  C    0.653629
     8  C   -0.065519
     9  H    0.204492
    10  H    0.208635
    11  O   -0.533284
    12  O   -0.609367
    13  H    0.432790
    14  N   -0.613075
    15  H    0.371236
    16  C   -0.053748
    17  H    0.196301
    18  C    0.619590
    19  C   -0.463317
    20  H    0.193322
    21  H    0.171225
    22  H    0.188926
    23  O   -0.541230
    24  N   -0.624696
    25  H    0.368605
    26  C   -0.093030
    27  H    0.183498
    28  C    0.644011
    29  C    0.127959
    30  H    0.169089
    31  O   -0.550104
    32  C   -0.458797
    33  H    0.160511
    34  H    0.133543
    35  H    0.175227
    36  O   -0.609956
    37  H    0.389682
    38  N   -0.606626
    39  H    0.360990
    40  C   -0.067068
    41  H    0.179774
    42  C    0.630926
    43  C   -0.079650
    44  H    0.142910
    45  O   -0.554038
    46  C   -0.440696
    47  H    0.145091
    48  H    0.154630
    49  H    0.148676
    50  C   -0.460193
    51  H    0.144157
    52  H    0.163100
    53  H    0.154919
    54  N   -0.606897
    55  H    0.353641
    56  C   -0.063156
    57  H    0.168986
    58  C    0.631926
    59  C   -0.077985
    60  H    0.162095
    61  O   -0.560620
    62  C   -0.251868
    63  H    0.135677
    64  H    0.139267
    65  C   -0.488551
    66  H    0.130974
    67  H    0.157615
    68  H    0.184028
    69  C   -0.455578
    70  H    0.139082
    71  H    0.162397
    72  H    0.148084
    73  N   -0.606910
    74  H    0.341724
    75  C   -0.030527
    76  H    0.174210
    77  C    0.651861
    78  C   -0.389815
    79  H    0.166373
    80  H    0.162947
    81  O   -0.558866
    82  C    0.627480
    83  O   -0.627632
    84  O   -0.585961
    85  N   -0.609797
    86  H    0.351506
    87  C   -0.059967
    88  H    0.208353
    89  C    0.627784
    90  C   -0.374114
    91  H    0.201664
    92  H    0.147417
    93  O   -0.566292
    94  C    0.347897
    95  C   -0.097349
    96  H    0.157319
    97  N   -0.613759
    98  H    0.332400
    99  C    0.206377
   100  H    0.154888
   101  N   -0.440118
   102  N   -0.654720
   103  H    0.425996
   104  C   -0.071497
   105  H    0.186680
   106  C    0.639997
   107  C   -0.277906
   108  H    0.137599
   109  H    0.169351
   110  O   -0.577915
   111  C   -0.084544
   112  H    0.147540
   113  C   -0.451695
   114  H    0.138627
   115  H    0.147781
   116  H    0.144502
   117  C   -0.443317
   118  H    0.138706
   119  H    0.143416
   120  H    0.145564
   121  N   -0.593341
   122  H    0.394254
   123  C   -0.063234
   124  H    0.184710
   125  C    0.586852
   126  C   -0.282464
   127  H    0.168577
   128  H    0.165302
   129  O   -0.444235
   130  C   -0.273710
   131  H    0.174586
   132  H    0.158332
   133  C   -0.177872
   134  H    0.161549
   135  H    0.176324
   136  N   -0.609666
   137  H    0.383416
   138  N   -0.774233
   139  H    0.405283
   140  H    0.348374
   141  N   -0.781626
   142  H    0.400378
   143  H    0.376543
   144  C    0.752890
   145  O   -0.566034
   146  H    0.420878
 Sum of Mulliken charges =   1.00000

 Dipole moment (field-independent basis, Debye):
    X=            -32.9444    Y=             -8.2970    Z=            -27.5631  Tot=             43.7481
 Quadrupole moment (field-independent basis, Debye-Ang):
   XX=            123.2262   YY=           -399.7332   ZZ=           -106.2127
   XY=            133.5567   XZ=            393.6560   YZ=            107.1667

 Normal termination of Gaussian 16 at Sun Jun 19 12:03:56 2022.
