 Gaussian 16, Revision C.01,
 Gaussian 16:  ES64L-G16RevC.01  3-Jul-2019

 -------------------------------------------------------------------
 # B3LYP/6-31G* guess=read geom=check nosymm integral(ultrafinegrid)
 -------------------------------------------------------------------

 ------------------------------------------------------
 Candidate Structure: Conf:256 Charge calc in gas phase
 ------------------------------------------------------
 Structure from the checkpoint file:  "conf-256.chk"
 Charge =  1 Multiplicity = 1

                          Input orientation:
 ---------------------------------------------------------------------
 Center     Atomic      Atomic             Coordinates (Angstroms)
 Number     Number       Type             X           Y           Z
 ---------------------------------------------------------------------
      1          7           0       -0.935923    4.496815   -4.469410
      2          1           0        0.042167    4.552952   -3.993900
      3          1           0       -0.937512    4.643003   -5.490424
      4          1           0       -1.524838    5.196829   -3.990384
      5          6           0       -1.542877    3.164196   -4.192020
      6          1           0       -0.813708    2.576908   -3.632046
      7          6           0       -1.874886    2.510506   -5.537068
      8          6           0       -2.812861    3.381398   -3.307200
      9          1           0       -2.993093    2.463518   -2.733620
     10          1           0       -3.685913    3.571116   -3.940045
     11          8           0       -1.856663    3.173564   -6.576508
     12          8           0       -2.650174    4.516822   -2.488031
     13          1           0       -1.849227    4.351275   -1.929536
     14          7           0       -2.209924    1.210324   -5.449304
     15          1           0       -2.256239    0.782428   -4.526667
     16          6           0       -2.804504    0.448377   -6.558201
     17          1           0       -3.637968    1.037800   -6.963412
     18          6           0       -3.413290   -0.784157   -5.862781
     19          6           0       -1.800701    0.173727   -7.681480
     20          1           0       -2.284898   -0.340242   -8.520395
     21          1           0       -0.959076   -0.430546   -7.327378
     22          1           0       -1.414365    1.124137   -8.055345
     23          8           0       -4.055468   -0.624131   -4.818313
     24          7           0       -3.121282   -2.008363   -6.346626
     25          1           0       -2.737327   -2.122244   -7.275948
     26          6           0       -3.544119   -3.235007   -5.664486
     27          1           0       -4.542835   -3.052751   -5.246436
     28          6           0       -2.577224   -3.576999   -4.486772
     29          6           0       -3.582335   -4.407205   -6.685098
     30          1           0       -2.568522   -4.805043   -6.776809
     31          8           0       -2.100194   -4.701672   -4.354030
     32          6           0       -4.519205   -5.522779   -6.237120
     33          1           0       -4.206580   -5.915197   -5.265980
     34          1           0       -5.551496   -5.156342   -6.149228
     35          1           0       -4.503592   -6.337616   -6.967081
     36          8           0       -3.901521   -3.930849   -7.994318
     37          1           0       -4.851800   -3.729210   -8.018962
     38          7           0       -2.290129   -2.533366   -3.668367
     39          1           0       -2.826547   -1.674079   -3.765685
     40          6           0       -1.272614   -2.567993   -2.629993
     41          1           0       -1.510051   -3.366803   -1.913874
     42          6           0       -1.322729   -1.203891   -1.918407
     43          6           0        0.152412   -2.868123   -3.209949
     44          1           0       -0.000354   -3.757684   -3.828425
     45          8           0       -1.669465   -0.172789   -2.502546
     46          6           0        0.682871   -1.739397   -4.103326
     47          1           0        0.922574   -0.839301   -3.525019
     48          1           0       -0.047717   -1.459961   -4.869181
     49          1           0        1.597844   -2.061388   -4.613111
     50          6           0        1.161537   -3.242567   -2.113943
     51          1           0        1.422239   -2.392364   -1.473218
     52          1           0        0.779995   -4.055493   -1.481485
     53          1           0        2.089468   -3.601719   -2.573691
     54          7           0       -0.947271   -1.221718   -0.612952
     55          1           0       -0.557192   -2.079480   -0.245396
     56          6           0       -0.734066   -0.015637    0.183725
     57          1           0       -1.397481    0.749712   -0.228096
     58          6           0        0.732177    0.422500    0.023338
     59          6           0       -1.081405   -0.263240    1.676354
     60          1           0       -0.437582   -1.091537    2.014909
     61          8           0        1.653197   -0.404038    0.167134
     62          6           0       -2.555055   -0.694802    1.829288
     63          1           0       -2.780660   -1.474682    1.092215
     64          1           0       -3.199584    0.158952    1.576041
     65          6           0       -0.751971    0.974282    2.528002
     66          1           0       -1.362222    1.832461    2.218375
     67          1           0        0.299411    1.268781    2.456479
     68          1           0       -0.967883    0.781358    3.582648
     69          6           0       -2.917326   -1.215646    3.225021
     70          1           0       -3.956927   -1.559521    3.247939
     71          1           0       -2.281806   -2.063720    3.510143
     72          1           0       -2.811164   -0.445917    3.996192
     73          7           0        0.927438    1.709567   -0.276301
     74          1           0        0.142333    2.341874   -0.468292
     75          6           0        2.235944    2.281188   -0.550190
     76          1           0        2.672100    1.767180   -1.417906
     77          6           0        3.170668    2.116646    0.662413
     78          6           0        2.087179    3.791717   -0.866963
     79          1           0        1.846546    4.313079    0.065653
     80          1           0        3.036123    4.168244   -1.255320
     81          8           0        2.802858    2.307219    1.813588
     82          6           0        0.959767    4.065907   -1.878221
     83          8           0       -0.219092    3.848340   -1.452141
     84          8           0        1.282536    4.445097   -3.034675
     85          7           0        4.453153    1.773412    0.340500
     86          1           0        4.754293    1.715767   -0.627082
     87          6           0        5.526637    1.794995    1.308968
     88          1           0        5.269502    2.498135    2.107390
     89          6           0        6.820527    2.164035    0.558466
     90          6           0        5.854283    0.394993    1.904734
     91          1           0        6.669347    0.522233    2.626146
     92          1           0        6.275876   -0.188969    1.072996
     93          8           0        6.914596    1.943787   -0.652762
     94          6           0        4.825270   -0.457908    2.575929
     95          6           0        5.011830   -1.220921    3.707438
     96          1           0        5.804249   -1.129283    4.439489
     97          7           0        3.686340   -0.975032    1.990199
     98          1           0        3.151692   -0.604714    1.195174
     99          6           0        3.258106   -2.000374    2.765216
    100          1           0        2.362024   -2.559076    2.533804
    101          7           0        4.051478   -2.205398    3.809852
    102          7           0        7.867454    2.563864    1.317732
    103          1           0        7.735070    2.696408    2.312801
    104          6           0        9.253443    2.547286    0.818014
    105          1           0        9.196518    2.830777   -0.235552
    106          6           0        9.786668    1.091366    0.926863
    107          6           0       10.114479    3.537335    1.606183
    108          1           0        9.580149    4.496599    1.632545
    109          1           0       10.196183    3.174137    2.638385
    110          8           0       10.540104    0.726474    1.823229
    111          6           0       11.535218    3.762890    1.047110
    112          1           0       12.030737    2.785049    0.989920
    113          6           0       11.524722    4.390829   -0.355460
    114          1           0       11.014003    5.362475   -0.348568
    115          1           0       12.548188    4.558840   -0.708377
    116          1           0       11.027929    3.756999   -1.099468
    117          6           0       12.337900    4.635653    2.023707
    118          1           0       11.880888    5.627528    2.134628
    119          1           0       13.362703    4.781752    1.665246
    120          1           0       12.392707    4.176862    3.017596
    121          7           0        9.298011    0.238307   -0.024120
    122          1           0        8.679156    0.620700   -0.732619
    123          6           0        9.756535   -1.136947   -0.147502
    124          1           0       10.712624   -1.185119    0.391398
    125          6           0       10.071914   -1.509554   -1.600777
    126          6           0        8.789838   -2.179754    0.466694
    127          1           0        9.016716   -3.146321    0.003173
    128          1           0        7.766683   -1.915049    0.167678
    129          8           0       10.145060   -2.650501   -1.999329
    130          6           0        8.894353   -2.261641    1.999910
    131          1           0        9.812533   -2.790879    2.287347
    132          1           0        8.994688   -1.254620    2.417743
    133          6           0        7.683313   -2.896176    2.686482
    134          1           0        7.791895   -2.835771    3.774984
    135          1           0        6.777119   -2.349174    2.413850
    136          7           0        7.508420   -4.318254    2.336463
    137          1           0        8.058242   -4.686401    1.570921
    138          7           0        5.667406   -4.716632    3.724066
    139          1           0        5.170376   -5.390788    4.290707
    140          1           0        5.239276   -3.774208    3.709942
    141          7           0        6.777309   -6.478231    2.706256
    142          1           0        6.038032   -7.123426    2.943104
    143          1           0        7.652422   -6.870644    2.390560
    144          6           0        6.640794   -5.151011    2.920890
    145          8           0       10.289801   -0.434175   -2.382281
    146          1           0       10.514271   -0.774749   -3.269947
 ---------------------------------------------------------------------

 SCF Done:  E(RB3LYP) =  -3503.42189504     A.U. after    1 cycles

 Alpha  occ. eigenvalues --  -19.28697 -19.22888 -19.21829 -19.21116 -19.20371
 Alpha  occ. eigenvalues --  -19.20099 -19.19888 -19.19842 -19.19453 -19.18962
 Alpha  occ. eigenvalues --  -19.18677 -19.17579 -19.17047 -19.16824 -14.51739
 Alpha  occ. eigenvalues --  -14.51650 -14.50305 -14.47475 -14.46325 -14.46220
 Alpha  occ. eigenvalues --  -14.44701 -14.43997 -14.43931 -14.43561 -14.43146
 Alpha  occ. eigenvalues --  -14.42879 -14.41152 -14.40828 -10.47755 -10.41209
 Alpha  occ. eigenvalues --  -10.38739 -10.37370 -10.36719 -10.36357 -10.36322
 Alpha  occ. eigenvalues --  -10.36256 -10.36099 -10.34884 -10.34789 -10.34685
 Alpha  occ. eigenvalues --  -10.33490 -10.32923 -10.32648 -10.31822 -10.31197
 Alpha  occ. eigenvalues --  -10.31057 -10.30804 -10.30737 -10.30398 -10.30341
 Alpha  occ. eigenvalues --  -10.30117 -10.30034 -10.29946 -10.29917 -10.29688
 Alpha  occ. eigenvalues --  -10.29394 -10.28578 -10.26350 -10.25809 -10.25718
 Alpha  occ. eigenvalues --  -10.25544 -10.25212 -10.24718 -10.24157 -10.24081
 Alpha  occ. eigenvalues --  -10.23510 -10.23294 -10.23100 -10.23064 -10.23061
 Alpha  occ. eigenvalues --  -10.22859  -1.19649  -1.16006  -1.13830  -1.12105
 Alpha  occ. eigenvalues --   -1.11829  -1.11620  -1.11280  -1.10924  -1.10579
 Alpha  occ. eigenvalues --   -1.10462  -1.10111  -1.09665  -1.09231  -1.08361
 Alpha  occ. eigenvalues --   -1.08085  -1.05523  -1.03788  -1.02769  -1.02365
 Alpha  occ. eigenvalues --   -1.01230  -1.01188  -1.00586  -1.00326  -0.99751
 Alpha  occ. eigenvalues --   -0.99587  -0.99483  -0.97969  -0.95334  -0.91054
 Alpha  occ. eigenvalues --   -0.89262  -0.88141  -0.87742  -0.86505  -0.86084
 Alpha  occ. eigenvalues --   -0.85578  -0.84993  -0.83213  -0.83176  -0.81176
 Alpha  occ. eigenvalues --   -0.80752  -0.80612  -0.79817  -0.78473  -0.77900
 Alpha  occ. eigenvalues --   -0.76602  -0.75817  -0.74994  -0.74749  -0.74138
 Alpha  occ. eigenvalues --   -0.73520  -0.73310  -0.73026  -0.72402  -0.72368
 Alpha  occ. eigenvalues --   -0.70464  -0.70311  -0.69625  -0.68949  -0.68908
 Alpha  occ. eigenvalues --   -0.68533  -0.68186  -0.67718  -0.67244  -0.66934
 Alpha  occ. eigenvalues --   -0.66446  -0.66104  -0.65862  -0.65791  -0.65113
 Alpha  occ. eigenvalues --   -0.64859  -0.64489  -0.63959  -0.63468  -0.63094
 Alpha  occ. eigenvalues --   -0.62690  -0.62209  -0.61790  -0.61550  -0.60834
 Alpha  occ. eigenvalues --   -0.60641  -0.60251  -0.59997  -0.59211  -0.58337
 Alpha  occ. eigenvalues --   -0.58232  -0.57888  -0.57767  -0.57198  -0.56767
 Alpha  occ. eigenvalues --   -0.56630  -0.56544  -0.56087  -0.55850  -0.55707
 Alpha  occ. eigenvalues --   -0.54902  -0.54801  -0.54579  -0.54385  -0.54277
 Alpha  occ. eigenvalues --   -0.54210  -0.53642  -0.53333  -0.53116  -0.52502
 Alpha  occ. eigenvalues --   -0.52329  -0.52233  -0.52132  -0.51909  -0.51560
 Alpha  occ. eigenvalues --   -0.51300  -0.50807  -0.50644  -0.50570  -0.50483
 Alpha  occ. eigenvalues --   -0.50102  -0.49992  -0.49880  -0.49483  -0.49372
 Alpha  occ. eigenvalues --   -0.49288  -0.49025  -0.48975  -0.48910  -0.48690
 Alpha  occ. eigenvalues --   -0.48609  -0.48439  -0.48222  -0.48044  -0.47815
 Alpha  occ. eigenvalues --   -0.47654  -0.47195  -0.46992  -0.46932  -0.46746
 Alpha  occ. eigenvalues --   -0.46593  -0.46521  -0.46383  -0.46073  -0.45899
 Alpha  occ. eigenvalues --   -0.45719  -0.45691  -0.45323  -0.45234  -0.45180
 Alpha  occ. eigenvalues --   -0.45054  -0.44679  -0.44439  -0.44378  -0.44234
 Alpha  occ. eigenvalues --   -0.44060  -0.43887  -0.43851  -0.43820  -0.43589
 Alpha  occ. eigenvalues --   -0.43397  -0.43182  -0.42567  -0.42518  -0.42479
 Alpha  occ. eigenvalues --   -0.42054  -0.41933  -0.41797  -0.40650  -0.40353
 Alpha  occ. eigenvalues --   -0.40223  -0.39938  -0.39737  -0.39481  -0.39252
 Alpha  occ. eigenvalues --   -0.38844  -0.38827  -0.38755  -0.38615  -0.38435
 Alpha  occ. eigenvalues --   -0.38317  -0.37538  -0.37365  -0.36999  -0.36499
 Alpha  occ. eigenvalues --   -0.35868  -0.35052  -0.34890  -0.34585  -0.34297
 Alpha  occ. eigenvalues --   -0.33816  -0.33803  -0.33682  -0.33559  -0.33064
 Alpha  occ. eigenvalues --   -0.32957  -0.32941  -0.32819  -0.32295  -0.32192
 Alpha  occ. eigenvalues --   -0.32086  -0.31134  -0.30908  -0.30845  -0.30719
 Alpha  occ. eigenvalues --   -0.30212
 Alpha virt. eigenvalues --   -0.12134  -0.08797  -0.08236  -0.07885  -0.06626
 Alpha virt. eigenvalues --   -0.06383  -0.06243  -0.06031  -0.05552  -0.05226
 Alpha virt. eigenvalues --   -0.05116  -0.04058  -0.03885  -0.03225  -0.02888

 Mulliken charges:
               1
     1  N   -0.786262
     2  H    0.435946
     3  H    0.394061
     4  H    0.393629
     5  C   -0.119311
     6  H    0.211737
     7  C    0.618541
     8  C   -0.051022
     9  H    0.175960
    10  H    0.169657
    11  O   -0.536625
    12  O   -0.645337
    13  H    0.441418
    14  N   -0.636563
    15  H    0.396451
    16  C    0.006084
    17  H    0.193880
    18  C    0.560249
    19  C   -0.488030
    20  H    0.159518
    21  H    0.162520
    22  H    0.203316
    23  O   -0.537572
    24  N   -0.600751
    25  H    0.361498
    26  C   -0.088577
    27  H    0.186497
    28  C    0.631762
    29  C    0.123744
    30  H    0.172122
    31  O   -0.528688
    32  C   -0.480386
    33  H    0.185786
    34  H    0.136569
    35  H    0.170978
    36  O   -0.629221
    37  H    0.394459
    38  N   -0.667735
    39  H    0.400457
    40  C   -0.006506
    41  H    0.157010
    42  C    0.619483
    43  C   -0.087226
    44  H    0.184272
    45  O   -0.553773
    46  C   -0.459845
    47  H    0.146411
    48  H    0.152141
    49  H    0.147500
    50  C   -0.492424
    51  H    0.168896
    52  H    0.135498
    53  H    0.148963
    54  N   -0.599686
    55  H    0.340066
    56  C   -0.061645
    57  H    0.180499
    58  C    0.658698
    59  C   -0.093051
    60  H    0.118357
    61  O   -0.603254
    62  C   -0.253621
    63  H    0.140279
    64  H    0.144232
    65  C   -0.487019
    66  H    0.151715
    67  H    0.189410
    68  H    0.159819
    69  C   -0.450198
    70  H    0.157007
    71  H    0.136718
    72  H    0.157157
    73  N   -0.607309
    74  H    0.393931
    75  C   -0.043260
    76  H    0.159537
    77  C    0.621331
    78  C   -0.363040
    79  H    0.190016
    80  H    0.168665
    81  O   -0.516373
    82  C    0.608722
    83  O   -0.616100
    84  O   -0.585620
    85  N   -0.621408
    86  H    0.355742
    87  C   -0.036644
    88  H    0.190790
    89  C    0.620335
    90  C   -0.372334
    91  H    0.155725
    92  H    0.167514
    93  O   -0.545291
    94  C    0.359433
    95  C   -0.107443
    96  H    0.140981
    97  N   -0.614733
    98  H    0.418811
    99  C    0.199906
   100  H    0.170352
   101  N   -0.482266
   102  N   -0.603928
   103  H    0.343359
   104  C   -0.067053
   105  H    0.192961
   106  C    0.624344
   107  C   -0.274428
   108  H    0.147000
   109  H    0.151780
   110  O   -0.524978
   111  C   -0.083541
   112  H    0.149519
   113  C   -0.453732
   114  H    0.148009
   115  H    0.157346
   116  H    0.140445
   117  C   -0.447423
   118  H    0.144766
   119  H    0.153563
   120  H    0.149516
   121  N   -0.619165
   122  H    0.368407
   123  C   -0.051488
   124  H    0.219712
   125  C    0.584214
   126  C   -0.284038
   127  H    0.169320
   128  H    0.153718
   129  O   -0.457123
   130  C   -0.322589
   131  H    0.167112
   132  H    0.199546
   133  C   -0.155173
   134  H    0.185125
   135  H    0.199129
   136  N   -0.609663
   137  H    0.363488
   138  N   -0.778400
   139  H    0.369330
   140  H    0.429509
   141  N   -0.766895
   142  H    0.378821
   143  H    0.379268
   144  C    0.812051
   145  O   -0.555688
   146  H    0.427329
 Sum of Mulliken charges =   1.00000

 Dipole moment (field-independent basis, Debye):
    X=             25.4976    Y=            -15.4708    Z=              2.5099  Tot=             29.9295
 Quadrupole moment (field-independent basis, Debye-Ang):
   XX=           -182.1055   YY=           -307.1996   ZZ=           -354.2200
   XY=            -76.6011   XZ=             72.6495   YZ=            -49.5279

 Normal termination of Gaussian 16 at Sun Jun 19 12:04:04 2022.
