 Gaussian 16, Revision C.01,
 Gaussian 16:  ES64L-G16RevC.01  3-Jul-2019

 -------------------------------------------------------------------
 # B3LYP/6-31G* guess=read geom=check nosymm integral(ultrafinegrid)
 -------------------------------------------------------------------

 ------------------------------------------------------
 Candidate Structure: Conf:112 Charge calc in gas phase
 ------------------------------------------------------
 Structure from the checkpoint file:  "conf-112.chk"
 Charge =  1 Multiplicity = 1

                          Input orientation:
 ---------------------------------------------------------------------
 Center     Atomic      Atomic             Coordinates (Angstroms)
 Number     Number       Type             X           Y           Z
 ---------------------------------------------------------------------
      1          7           0      -10.570779   -1.745170   -6.314751
      2          1           0      -10.383249   -2.710925   -5.958206
      3          1           0      -10.219366   -1.081071   -5.592975
      4          1           0      -11.558320   -1.582922   -6.521434
      5          6           0       -9.633320   -1.563830   -7.479876
      6          1           0      -10.184171   -1.684033   -8.417196
      7          6           0       -8.594686   -2.699897   -7.274233
      8          6           0       -9.031039   -0.137637   -7.322918
      9          1           0       -9.790858    0.600112   -7.605528
     10          1           0       -8.162874   -0.012138   -7.972475
     11          8           0       -8.773405   -3.489075   -6.346280
     12          8           0       -8.708431    0.067813   -5.966211
     13          1           0       -7.767176   -0.175076   -5.801014
     14          7           0       -7.533471   -2.720755   -8.108401
     15          1           0       -7.441511   -1.913230   -8.715738
     16          6           0       -6.227784   -3.144421   -7.568017
     17          1           0       -6.401425   -4.037798   -6.964778
     18          6           0       -5.756682   -1.966055   -6.676075
     19          6           0       -5.242275   -3.436932   -8.700923
     20          1           0       -4.280229   -3.757901   -8.290930
     21          1           0       -5.066290   -2.541258   -9.307375
     22          1           0       -5.626895   -4.231763   -9.346140
     23          8           0       -6.117045   -0.814082   -6.957738
     24          7           0       -4.983521   -2.273329   -5.630137
     25          1           0       -4.668543   -3.222110   -5.439550
     26          6           0       -4.455019   -1.281773   -4.702983
     27          1           0       -4.315046   -0.342927   -5.246651
     28          6           0       -3.116356   -1.876395   -4.205706
     29          6           0       -5.422217   -1.044078   -3.513646
     30          1           0       -5.432286   -1.963705   -2.909612
     31          8           0       -2.999504   -3.101259   -4.136430
     32          6           0       -5.023058    0.151706   -2.651014
     33          1           0       -4.032932    0.038511   -2.201062
     34          1           0       -5.031464    1.071088   -3.247490
     35          1           0       -5.738677    0.276390   -1.828946
     36          8           0       -6.734342   -0.841789   -4.069755
     37          1           0       -7.316110   -0.607774   -3.329462
     38          7           0       -2.154524   -0.991226   -3.889250
     39          1           0       -2.363454    0.002332   -3.836631
     40          6           0       -0.908411   -1.346997   -3.210198
     41          1           0       -1.012519   -2.375412   -2.849999
     42          6           0       -0.812297   -0.350541   -2.032315
     43          6           0        0.320344   -1.260284   -4.166550
     44          1           0        0.450947   -0.198972   -4.422842
     45          8           0       -1.341014    0.761736   -2.133336
     46          6           0        1.607031   -1.763857   -3.493258
     47          1           0        1.509905   -2.817541   -3.199741
     48          1           0        1.884263   -1.191483   -2.604484
     49          1           0        2.444528   -1.699345   -4.195606
     50          6           0        0.062981   -2.043484   -5.462907
     51          1           0       -0.127362   -3.102518   -5.252641
     52          1           0       -0.795048   -1.648265   -6.014729
     53          1           0        0.939492   -1.980480   -6.116823
     54          7           0       -0.163698   -0.778187   -0.930691
     55          1           0        0.363843   -1.646563   -0.949326
     56          6           0        0.197450    0.093424    0.187940
     57          1           0        0.003488    1.123621   -0.125749
     58          6           0        1.704873   -0.154402    0.409991
     59          6           0       -0.630190   -0.225147    1.469857
     60          1           0       -0.374751   -1.255833    1.758270
     61          8           0        2.162626   -1.289784    0.249514
     62          6           0       -2.143494   -0.169525    1.175885
     63          1           0       -2.352023   -0.794003    0.299697
     64          1           0       -2.417015    0.857187    0.894911
     65          6           0       -0.240831    0.713227    2.623515
     66          1           0       -0.479531    1.756800    2.377637
     67          1           0        0.825381    0.661304    2.860087
     68          1           0       -0.788093    0.457199    3.535143
     69          6           0       -3.028696   -0.645398    2.334529
     70          1           0       -4.081721   -0.668249    2.030924
     71          1           0       -2.754342   -1.658766    2.653124
     72          1           0       -2.958155    0.008937    3.209489
     73          7           0        2.445532    0.914094    0.757207
     74          1           0        2.015833    1.809058    0.971820
     75          6           0        3.860499    0.830713    1.107503
     76          1           0        4.025349   -0.073821    1.702215
     77          6           0        4.140234    2.066023    1.989142
     78          6           0        4.754849    0.736070   -0.153388
     79          1           0        4.261031    0.065982   -0.862421
     80          1           0        4.830362    1.713450   -0.646795
     81          8           0        3.257022    2.928849    2.161290
     82          6           0        6.178498    0.180026    0.058241
     83          8           0        6.843722   -0.128408   -0.933262
     84          8           0        6.577250    0.073533    1.289253
     85          7           0        5.362001    2.135613    2.536780
     86          1           0        6.046952    1.406752    2.264017
     87          6           0        5.740890    3.292991    3.315707
     88          1           0        5.384857    4.183480    2.786863
     89          6           0        7.260474    3.385805    3.434586
     90          6           0        5.104061    3.314050    4.760958
     91          1           0        5.873797    3.138377    5.519608
     92          1           0        4.399384    2.477038    4.816974
     93          8           0        8.025726    2.444286    3.214885
     94          6           0        4.416527    4.607488    5.044103
     95          6           0        4.625248    5.628231    5.946488
     96          1           0        5.369167    5.672330    6.732185
     97          7           0        3.339550    5.023662    4.283629
     98          1           0        2.981072    4.492593    3.491911
     99          6           0        2.960057    6.246039    4.755956
    100          1           0        2.131888    6.799098    4.332452
    101          7           0        3.710959    6.643620    5.762769
    102          7           0        7.695230    4.606851    3.838094
    103          1           0        6.998540    5.265804    4.171025
    104          6           0        9.079777    4.844953    4.226761
    105          1           0        9.707172    4.687884    3.342662
    106          6           0        9.487872    3.842722    5.327627
    107          6           0        9.208303    6.296466    4.730857
    108          1           0        8.742089    6.954310    3.983877
    109          1           0        8.611400    6.378486    5.648977
    110          8           0        8.737130    3.559113    6.255426
    111          6           0       10.641716    6.793873    5.006853
    112          1           0       11.131498    6.083596    5.687752
    113          6           0       11.488247    6.888073    3.727514
    114          1           0       11.035194    7.583771    3.009498
    115          1           0       12.494984    7.253850    3.956727
    116          1           0       11.604428    5.921547    3.223017
    117          6           0       10.586509    8.156053    5.715445
    118          1           0       10.098323    8.908932    5.083418
    119          1           0       11.594576    8.518638    5.945212
    120          1           0       10.027443    8.095891    6.656194
    121          7           0       10.735644    3.321052    5.183061
    122          1           0       11.333565    3.637603    4.430130
    123          6           0       11.334539    2.384837    6.114650
    124          1           0       10.838831    2.501517    7.083176
    125          6           0       12.808985    2.742289    6.254708
    126          6           0       11.189180    0.919648    5.625122
    127          1           0       11.856268    0.275154    6.210340
    128          1           0       11.535183    0.892006    4.583179
    129          8           0       13.422639    3.445479    5.481274
    130          6           0        9.744452    0.401327    5.712188
    131          1           0        9.539809    0.048914    6.730292
    132          1           0        9.035074    1.211853    5.524104
    133          6           0        9.447755   -0.741679    4.737389
    134          1           0       10.212247   -1.521486    4.800153
    135          1           0        8.491744   -1.213917    5.000847
    136          7           0        9.372824   -0.248822    3.354990
    137          1           0        8.731515    0.531893    3.198275
    138          7           0       10.683536   -1.889097    2.326492
    139          1           0       10.919833   -2.396438    1.486110
    140          1           0       11.444824   -1.739385    2.973044
    141          7           0        9.039885   -0.723326    1.131941
    142          1           0        9.350419   -1.110726    0.250758
    143          1           0        8.018245   -0.340954    1.162011
    144          6           0        9.693497   -0.952458    2.250438
    145          8           0       13.370058    2.143716    7.323930
    146          1           0       14.313617    2.395472    7.327033
 ---------------------------------------------------------------------

 SCF Done:  E(RB3LYP) =  -3503.40162530     A.U. after    2 cycles

 Alpha  occ. eigenvalues --  -19.27340 -19.26822 -19.25901 -19.24508 -19.21772
 Alpha  occ. eigenvalues --  -19.20341 -19.19645 -19.17803 -19.17734 -19.16812
 Alpha  occ. eigenvalues --  -19.16316 -19.15928 -19.12770 -19.10471 -14.58570
 Alpha  occ. eigenvalues --  -14.48826 -14.45897 -14.44202 -14.43523 -14.42506
 Alpha  occ. eigenvalues --  -14.41754 -14.41345 -14.41207 -14.40590 -14.40153
 Alpha  occ. eigenvalues --  -14.40055 -14.39016 -14.33308 -10.43375 -10.39908
 Alpha  occ. eigenvalues --  -10.38988 -10.38905 -10.38257 -10.37406 -10.36980
 Alpha  occ. eigenvalues --  -10.34918 -10.34602 -10.34371 -10.33624 -10.33398
 Alpha  occ. eigenvalues --  -10.33174 -10.33077 -10.32334 -10.29730 -10.29645
 Alpha  occ. eigenvalues --  -10.29600 -10.29007 -10.28491 -10.28437 -10.28110
 Alpha  occ. eigenvalues --  -10.28014 -10.27008 -10.26146 -10.25965 -10.25462
 Alpha  occ. eigenvalues --  -10.25299 -10.24410 -10.24330 -10.24264 -10.23987
 Alpha  occ. eigenvalues --  -10.23705 -10.23514 -10.22764 -10.22733 -10.22429
 Alpha  occ. eigenvalues --  -10.22137 -10.22106 -10.22051 -10.21608 -10.21250
 Alpha  occ. eigenvalues --  -10.21130  -1.19257  -1.16857  -1.15390  -1.13929
 Alpha  occ. eigenvalues --   -1.12068  -1.11730  -1.11290  -1.09642  -1.09542
 Alpha  occ. eigenvalues --   -1.08387  -1.08173  -1.07755  -1.07461  -1.07451
 Alpha  occ. eigenvalues --   -1.05698  -1.04895  -1.03292  -1.02137  -1.00015
 Alpha  occ. eigenvalues --   -0.98138  -0.98076  -0.97902  -0.97308  -0.96848
 Alpha  occ. eigenvalues --   -0.96490  -0.95753  -0.94746  -0.91240  -0.89047
 Alpha  occ. eigenvalues --   -0.88154  -0.86828  -0.86485  -0.85870  -0.85374
 Alpha  occ. eigenvalues --   -0.85151  -0.83412  -0.81493  -0.80832  -0.80209
 Alpha  occ. eigenvalues --   -0.79292  -0.79126  -0.78746  -0.77178  -0.75810
 Alpha  occ. eigenvalues --   -0.75053  -0.74338  -0.74191  -0.73815  -0.73417
 Alpha  occ. eigenvalues --   -0.72323  -0.72143  -0.71270  -0.70990  -0.70610
 Alpha  occ. eigenvalues --   -0.69960  -0.69750  -0.69657  -0.68531  -0.68047
 Alpha  occ. eigenvalues --   -0.67197  -0.66702  -0.66232  -0.65800  -0.64517
 Alpha  occ. eigenvalues --   -0.64426  -0.64107  -0.64038  -0.63619  -0.63316
 Alpha  occ. eigenvalues --   -0.63310  -0.62499  -0.62328  -0.61626  -0.61468
 Alpha  occ. eigenvalues --   -0.61388  -0.61170  -0.60830  -0.60414  -0.59883
 Alpha  occ. eigenvalues --   -0.59642  -0.58952  -0.58582  -0.58175  -0.57133
 Alpha  occ. eigenvalues --   -0.56842  -0.56699  -0.56322  -0.55916  -0.55841
 Alpha  occ. eigenvalues --   -0.55260  -0.54901  -0.54676  -0.54497  -0.54369
 Alpha  occ. eigenvalues --   -0.53610  -0.53518  -0.53358  -0.52944  -0.52883
 Alpha  occ. eigenvalues --   -0.52675  -0.52538  -0.52408  -0.52273  -0.52060
 Alpha  occ. eigenvalues --   -0.51663  -0.51221  -0.50842  -0.50730  -0.50440
 Alpha  occ. eigenvalues --   -0.50142  -0.49940  -0.49634  -0.49362  -0.49068
 Alpha  occ. eigenvalues --   -0.48891  -0.48807  -0.48694  -0.48299  -0.48033
 Alpha  occ. eigenvalues --   -0.47733  -0.47479  -0.47447  -0.47245  -0.47244
 Alpha  occ. eigenvalues --   -0.46867  -0.46692  -0.46598  -0.46338  -0.46261
 Alpha  occ. eigenvalues --   -0.46197  -0.46058  -0.45899  -0.45768  -0.45485
 Alpha  occ. eigenvalues --   -0.45167  -0.44998  -0.44860  -0.44578  -0.44402
 Alpha  occ. eigenvalues --   -0.44189  -0.43971  -0.43799  -0.43405  -0.43195
 Alpha  occ. eigenvalues --   -0.43122  -0.42922  -0.42915  -0.42800  -0.42682
 Alpha  occ. eigenvalues --   -0.42414  -0.42312  -0.41944  -0.41682  -0.41678
 Alpha  occ. eigenvalues --   -0.41565  -0.41287  -0.41059  -0.40719  -0.40549
 Alpha  occ. eigenvalues --   -0.40468  -0.40321  -0.40072  -0.39926  -0.39794
 Alpha  occ. eigenvalues --   -0.39265  -0.39132  -0.38749  -0.38594  -0.37948
 Alpha  occ. eigenvalues --   -0.37855  -0.37380  -0.37338  -0.37089  -0.36995
 Alpha  occ. eigenvalues --   -0.36939  -0.36867  -0.36805  -0.36248  -0.35055
 Alpha  occ. eigenvalues --   -0.34716  -0.34008  -0.33798  -0.33063  -0.32298
 Alpha  occ. eigenvalues --   -0.31982  -0.31871  -0.31559  -0.31379  -0.30914
 Alpha  occ. eigenvalues --   -0.30544  -0.30420  -0.29941  -0.29754  -0.29505
 Alpha  occ. eigenvalues --   -0.29186  -0.28644  -0.27824  -0.27190  -0.24885
 Alpha  occ. eigenvalues --   -0.24677
 Alpha virt. eigenvalues --   -0.13164  -0.08967  -0.08191  -0.06034  -0.05265
 Alpha virt. eigenvalues --   -0.04573  -0.04408  -0.03919  -0.03889  -0.03258
 Alpha virt. eigenvalues --   -0.02566  -0.02115  -0.01577  -0.01294  -0.00857

 Mulliken charges:
               1
     1  N   -0.749206
     2  H    0.428878
     3  H    0.425571
     4  H    0.409684
     5  C   -0.140508
     6  H    0.222177
     7  C    0.634772
     8  C   -0.056764
     9  H    0.181379
    10  H    0.207398
    11  O   -0.508273
    12  O   -0.667578
    13  H    0.482829
    14  N   -0.554898
    15  H    0.346268
    16  C   -0.092223
    17  H    0.203654
    18  C    0.647533
    19  C   -0.462378
    20  H    0.186693
    21  H    0.171132
    22  H    0.188005
    23  O   -0.577433
    24  N   -0.597171
    25  H    0.364297
    26  C   -0.070276
    27  H    0.184888
    28  C    0.614310
    29  C    0.159257
    30  H    0.146582
    31  O   -0.539134
    32  C   -0.500536
    33  H    0.191861
    34  H    0.169513
    35  H    0.152951
    36  O   -0.650471
    37  H    0.403154
    38  N   -0.601177
    39  H    0.357552
    40  C   -0.067892
    41  H    0.179376
    42  C    0.623867
    43  C   -0.074812
    44  H    0.142098
    45  O   -0.553507
    46  C   -0.475545
    47  H    0.148848
    48  H    0.172806
    49  H    0.163335
    50  C   -0.445672
    51  H    0.158077
    52  H    0.138943
    53  H    0.154653
    54  N   -0.603616
    55  H    0.358542
    56  C   -0.062820
    57  H    0.173120
    58  C    0.624727
    59  C   -0.070512
    60  H    0.137996
    61  O   -0.554742
    62  C   -0.251421
    63  H    0.133515
    64  H    0.139493
    65  C   -0.474278
    66  H    0.144366
    67  H    0.162210
    68  H    0.159712
    69  C   -0.450007
    70  H    0.137207
    71  H    0.146993
    72  H    0.153773
    73  N   -0.617002
    74  H    0.355037
    75  C   -0.041430
    76  H    0.196067
    77  C    0.601042
    78  C   -0.367351
    79  H    0.187404
    80  H    0.159296
    81  O   -0.586022
    82  C    0.622855
    83  O   -0.563560
    84  O   -0.669607
    85  N   -0.644761
    86  H    0.414567
    87  C   -0.028730
    88  H    0.183645
    89  C    0.619708
    90  C   -0.379209
    91  H    0.195646
    92  H    0.177608
    93  O   -0.555642
    94  C    0.288021
    95  C   -0.099115
    96  H    0.138709
    97  N   -0.603513
    98  H    0.373201
    99  C    0.203475
   100  H    0.152292
   101  N   -0.427136
   102  N   -0.612922
   103  H    0.350471
   104  C   -0.021569
   105  H    0.160559
   106  C    0.646659
   107  C   -0.304366
   108  H    0.151628
   109  H    0.164981
   110  O   -0.544470
   111  C   -0.086217
   112  H    0.137361
   113  C   -0.446840
   114  H    0.147496
   115  H    0.157572
   116  H    0.133296
   117  C   -0.445438
   118  H    0.146409
   119  H    0.150151
   120  H    0.151047
   121  N   -0.598723
   122  H    0.349775
   123  C   -0.051166
   124  H    0.206759
   125  C    0.580516
   126  C   -0.267743
   127  H    0.160261
   128  H    0.143017
   129  O   -0.463533
   130  C   -0.290471
   131  H    0.156984
   132  H    0.199970
   133  C   -0.150740
   134  H    0.150660
   135  H    0.177790
   136  N   -0.624021
   137  H    0.414814
   138  N   -0.749272
   139  H    0.357351
   140  H    0.355472
   141  N   -0.770323
   142  H    0.344226
   143  H    0.459748
   144  C    0.744704
   145  O   -0.560354
   146  H    0.421858
 Sum of Mulliken charges =   1.00000

 Dipole moment (field-independent basis, Debye):
    X=            -18.6154    Y=             -8.4536    Z=            -20.6623  Tot=             29.0677
 Quadrupole moment (field-independent basis, Debye-Ang):
   XX=            196.5565   YY=           -416.4324   ZZ=           -209.0370
   XY=             44.8924   XZ=            334.5934   YZ=             28.1197

 Normal termination of Gaussian 16 at Sun Jun 19 12:04:21 2022.
