 Gaussian 16, Revision C.01,
 Gaussian 16:  ES64L-G16RevC.01  3-Jul-2019

 -------------------------------------------------------------------
 # B3LYP/6-31G* guess=read geom=check nosymm integral(ultrafinegrid)
 -------------------------------------------------------------------

 ------------------------------------------------------
 Candidate Structure: Conf:731 Charge calc in gas phase
 ------------------------------------------------------
 Structure from the checkpoint file:  "conf-731.chk"
 Charge =  1 Multiplicity = 1

                          Input orientation:
 ---------------------------------------------------------------------
 Center     Atomic      Atomic             Coordinates (Angstroms)
 Number     Number       Type             X           Y           Z
 ---------------------------------------------------------------------
      1          7           0       -8.040935   -7.872770   -4.781495
      2          1           0       -8.351441   -7.380785   -5.625768
      3          1           0       -7.258375   -8.511101   -5.009341
      4          1           0       -8.816730   -8.449644   -4.431321
      5          6           0       -7.509198   -6.945209   -3.710140
      6          1           0       -8.344935   -6.388611   -3.274483
      7          6           0       -6.499325   -5.972098   -4.328398
      8          6           0       -6.819668   -7.841868   -2.674812
      9          1           0       -7.561390   -8.475569   -2.178374
     10          1           0       -6.325391   -7.217302   -1.920814
     11          8           0       -5.302203   -6.284117   -4.404830
     12          8           0       -5.920384   -8.709148   -3.342869
     13          1           0       -5.231184   -8.124408   -3.714005
     14          7           0       -6.990316   -4.804360   -4.796454
     15          1           0       -7.937023   -4.528014   -4.567769
     16          6           0       -6.110525   -3.743301   -5.323874
     17          1           0       -5.273181   -4.261270   -5.800188
     18          6           0       -5.571250   -2.922546   -4.128792
     19          6           0       -6.858770   -2.881641   -6.329208
     20          1           0       -6.208912   -2.079760   -6.684548
     21          1           0       -7.736739   -2.416452   -5.871544
     22          1           0       -7.174870   -3.485964   -7.184239
     23          8           0       -5.888754   -1.748498   -3.941153
     24          7           0       -4.768236   -3.618479   -3.295870
     25          1           0       -4.550898   -4.585010   -3.510968
     26          6           0       -4.336088   -3.084975   -2.008191
     27          1           0       -5.115760   -2.381332   -1.690088
     28          6           0       -3.011322   -2.314672   -2.187349
     29          6           0       -4.250244   -4.232970   -0.987079
     30          1           0       -3.457995   -4.919357   -1.296169
     31          8           0       -1.931597   -2.790392   -1.823689
     32          6           0       -4.007030   -3.746949    0.434095
     33          1           0       -3.039963   -3.249508    0.520494
     34          1           0       -4.788066   -3.037673    0.735534
     35          1           0       -4.026473   -4.596228    1.121946
     36          8           0       -5.460347   -5.013964   -1.042088
     37          1           0       -6.184571   -4.424472   -0.782488
     38          7           0       -3.142831   -1.123420   -2.802364
     39          1           0       -4.070556   -0.846882   -3.107365
     40          6           0       -2.004316   -0.273258   -3.185806
     41          1           0       -1.164211   -0.949647   -3.387178
     42          6           0       -1.595609    0.610025   -1.983963
     43          6           0       -2.332294    0.524980   -4.466173
     44          1           0       -3.101375    1.264991   -4.210591
     45          8           0       -1.684769    1.834994   -1.987781
     46          6           0       -1.111512    1.289049   -5.000753
     47          1           0       -0.274673    0.613947   -5.206520
     48          1           0       -0.785362    2.085775   -4.327417
     49          1           0       -1.384503    1.774223   -5.945454
     50          6           0       -2.874770   -0.404959   -5.564214
     51          1           0       -2.129931   -1.167878   -5.821163
     52          1           0       -3.802460   -0.911599   -5.281452
     53          1           0       -3.080393    0.177594   -6.467640
     54          7           0       -1.154394   -0.091967   -0.903116
     55          1           0       -1.059410   -1.097901   -0.987810
     56          6           0       -0.573388    0.598004    0.246240
     57          1           0       -1.052019    1.579358    0.240608
     58          6           0        0.935565    0.787375    0.025039
     59          6           0       -0.927982   -0.081655    1.587049
     60          1           0       -2.018564    0.049492    1.667101
     61          8           0        1.778011    0.060009    0.555370
     62          6           0       -0.283081    0.630040    2.795248
     63          1           0        0.770997    0.340956    2.847708
     64          1           0       -0.763651    0.231955    3.698924
     65          6           0       -0.619483   -1.583853    1.633073
     66          1           0        0.453083   -1.754048    1.521395
     67          1           0       -1.137269   -2.138624    0.844355
     68          1           0       -0.938726   -2.001152    2.594775
     69          6           0       -0.393264    2.157655    2.793413
     70          1           0       -0.025037    2.567847    3.739745
     71          1           0        0.202481    2.611375    1.994832
     72          1           0       -1.433118    2.486861    2.672876
     73          7           0        1.280838    1.783879   -0.820769
     74          1           0        0.569663    2.312290   -1.316784
     75          6           0        2.686930    2.082455   -1.040881
     76          1           0        3.188615    1.169295   -1.379455
     77          6           0        3.327966    2.541814    0.273135
     78          6           0        2.834224    3.145939   -2.129107
     79          1           0        2.323479    4.066986   -1.835363
     80          1           0        3.895365    3.358914   -2.298486
     81          8           0        2.775625    3.282884    1.080183
     82          6           0        2.230111    2.580196   -3.449234
     83          8           0        2.751358    1.538450   -3.894651
     84          8           0        1.257767    3.226285   -3.918443
     85          7           0        4.590856    2.054353    0.488132
     86          1           0        5.107897    1.689630   -0.299723
     87          6           0        5.363606    2.527029    1.620186
     88          1           0        4.667321    2.596559    2.458629
     89          6           0        5.950119    3.910860    1.293238
     90          6           0        6.506290    1.551380    1.934532
     91          1           0        7.145762    1.997068    2.708800
     92          1           0        7.131535    1.469022    1.036163
     93          8           0        6.629925    4.086844    0.285512
     94          6           0        6.045369    0.197356    2.393554
     95          6           0        4.872939   -0.512975    2.282204
     96          1           0        3.953316   -0.209332    1.800490
     97          7           0        6.900554   -0.650654    3.079620
     98          1           0        7.859454   -0.452169    3.320799
     99          6           0        6.216998   -1.804297    3.340914
    100          1           0        6.666071   -2.635559    3.866412
    101          7           0        4.990468   -1.754580    2.878524
    102          7           0        5.654765    4.901067    2.180058
    103          1           0        5.286599    4.662878    3.092216
    104          6           0        6.244670    6.221194    2.081661
    105          1           0        7.081759    6.156374    1.379807
    106          6           0        6.753162    6.608461    3.472509
    107          6           0        5.228420    7.279119    1.592874
    108          1           0        4.412457    7.320443    2.324560
    109          1           0        5.714266    8.265059    1.604607
    110          8           0        6.313756    6.105342    4.501256
    111          6           0        4.637014    7.032776    0.193192
    112          1           0        4.205846    6.025264    0.182064
    113          6           0        3.503714    8.034344   -0.062668
    114          1           0        3.880778    9.064838   -0.046273
    115          1           0        3.044163    7.860170   -1.040623
    116          1           0        2.718293    7.949273    0.695979
    117          6           0        5.698783    7.121697   -0.909755
    118          1           0        6.149309    8.123280   -0.933737
    119          1           0        5.246285    6.937013   -1.889249
    120          1           0        6.491978    6.382305   -0.771162
    121          7           0        7.703990    7.589132    3.497420
    122          1           0        7.968845    8.059487    2.644202
    123          6           0        8.151594    8.145154    4.763054
    124          1           0        7.279388    8.289274    5.409835
    125          6           0        8.799970    9.510375    4.599598
    126          6           0        9.107115    7.202655    5.528278
    127          1           0        8.554756    6.276098    5.707928
    128          1           0        9.306298    7.660350    6.502198
    129          8           0        9.089338   10.224562    5.530787
    130          6           0       10.415017    6.903030    4.795342
    131          1           0       10.201752    6.483299    3.807065
    132          1           0       10.986861    7.825126    4.625671
    133          6           0       11.290424    5.906838    5.549844
    134          1           0       10.706351    5.005408    5.761563
    135          1           0       12.162637    5.620529    4.947623
    136          7           0       11.730879    6.489419    6.836237
    137          1           0       11.961072    7.475874    6.788945
    138          7           0       12.453116    4.459166    7.742208
    139          1           0       13.144700    3.990372    8.311980
    140          1           0       12.234137    3.992470    6.873066
    141          7           0       12.975946    6.468908    8.805427
    142          1           0       13.159481    5.940832    9.650050
    143          1           0       12.641986    7.407051    8.993864
    144          6           0       12.391043    5.803888    7.778538
    145          8           0        9.057706    9.833868    3.311547
    146          1           0        9.462038   10.720103    3.314274
 ---------------------------------------------------------------------

 SCF Done:  E(RB3LYP) =  -3503.22258042     A.U. after    3 cycles

 Alpha  occ. eigenvalues --  -19.29031 -19.26753 -19.25386 -19.22784 -19.22360
 Alpha  occ. eigenvalues --  -19.19583 -19.18414 -19.15749 -19.13962 -19.11718
 Alpha  occ. eigenvalues --  -19.10864 -19.10012 -19.02839 -19.02360 -14.61800
 Alpha  occ. eigenvalues --  -14.53790 -14.53567 -14.53381 -14.49755 -14.43353
 Alpha  occ. eigenvalues --  -14.43310 -14.40361 -14.39438 -14.38822 -14.35945
 Alpha  occ. eigenvalues --  -14.35554 -14.33708 -14.31600 -10.49461 -10.42639
 Alpha  occ. eigenvalues --  -10.41154 -10.40417 -10.36985 -10.36596 -10.36580
 Alpha  occ. eigenvalues --  -10.35150 -10.33293 -10.32944 -10.32571 -10.30927
 Alpha  occ. eigenvalues --  -10.30807 -10.30378 -10.29327 -10.28808 -10.28721
 Alpha  occ. eigenvalues --  -10.27612 -10.27404 -10.26796 -10.26688 -10.25241
 Alpha  occ. eigenvalues --  -10.24777 -10.24383 -10.23152 -10.22935 -10.22645
 Alpha  occ. eigenvalues --  -10.22055 -10.22010 -10.20702 -10.20573 -10.20433
 Alpha  occ. eigenvalues --  -10.19631 -10.19448 -10.19092 -10.18720 -10.18599
 Alpha  occ. eigenvalues --  -10.18266 -10.17244 -10.16911 -10.16496 -10.14559
 Alpha  occ. eigenvalues --  -10.14318  -1.19803  -1.18463  -1.18302  -1.15802
 Alpha  occ. eigenvalues --   -1.13608  -1.11493  -1.10694  -1.10537  -1.09376
 Alpha  occ. eigenvalues --   -1.07685  -1.07427  -1.06719  -1.05988  -1.05467
 Alpha  occ. eigenvalues --   -1.03606  -1.02930  -1.02168  -1.01556  -1.00199
 Alpha  occ. eigenvalues --   -0.99760  -0.95789  -0.95686  -0.95622  -0.92827
 Alpha  occ. eigenvalues --   -0.92134  -0.92054  -0.91980  -0.90068  -0.87776
 Alpha  occ. eigenvalues --   -0.86949  -0.86879  -0.86460  -0.83799  -0.83447
 Alpha  occ. eigenvalues --   -0.81251  -0.81099  -0.81033  -0.80292  -0.79320
 Alpha  occ. eigenvalues --   -0.79252  -0.77602  -0.77404  -0.75667  -0.75565
 Alpha  occ. eigenvalues --   -0.74811  -0.74326  -0.74068  -0.73890  -0.73389
 Alpha  occ. eigenvalues --   -0.72862  -0.72159  -0.71727  -0.71349  -0.69666
 Alpha  occ. eigenvalues --   -0.69579  -0.69248  -0.68472  -0.68286  -0.68115
 Alpha  occ. eigenvalues --   -0.67082  -0.66936  -0.66087  -0.65691  -0.65636
 Alpha  occ. eigenvalues --   -0.65235  -0.63265  -0.63139  -0.62770  -0.62575
 Alpha  occ. eigenvalues --   -0.62441  -0.61954  -0.61871  -0.61517  -0.61328
 Alpha  occ. eigenvalues --   -0.60791  -0.60073  -0.59547  -0.59175  -0.59071
 Alpha  occ. eigenvalues --   -0.58550  -0.58236  -0.58206  -0.57432  -0.57317
 Alpha  occ. eigenvalues --   -0.56789  -0.56774  -0.56657  -0.55965  -0.55754
 Alpha  occ. eigenvalues --   -0.55626  -0.55539  -0.55099  -0.54491  -0.54047
 Alpha  occ. eigenvalues --   -0.53557  -0.53323  -0.52481  -0.52436  -0.51732
 Alpha  occ. eigenvalues --   -0.51392  -0.51355  -0.51000  -0.50619  -0.50051
 Alpha  occ. eigenvalues --   -0.49974  -0.49732  -0.49640  -0.48931  -0.48607
 Alpha  occ. eigenvalues --   -0.48460  -0.48167  -0.47755  -0.47508  -0.47397
 Alpha  occ. eigenvalues --   -0.47303  -0.46941  -0.46741  -0.46500  -0.46086
 Alpha  occ. eigenvalues --   -0.45956  -0.45819  -0.45616  -0.45235  -0.45211
 Alpha  occ. eigenvalues --   -0.45061  -0.44681  -0.44457  -0.44384  -0.43960
 Alpha  occ. eigenvalues --   -0.43828  -0.43658  -0.43480  -0.43402  -0.43023
 Alpha  occ. eigenvalues --   -0.42872  -0.42775  -0.42363  -0.42197  -0.41960
 Alpha  occ. eigenvalues --   -0.41864  -0.41490  -0.41201  -0.41099  -0.40840
 Alpha  occ. eigenvalues --   -0.40765  -0.40654  -0.40567  -0.40286  -0.39975
 Alpha  occ. eigenvalues --   -0.39858  -0.39713  -0.39290  -0.39225  -0.39071
 Alpha  occ. eigenvalues --   -0.38765  -0.38723  -0.38530  -0.38054  -0.37915
 Alpha  occ. eigenvalues --   -0.37501  -0.37066  -0.36806  -0.36751  -0.36435
 Alpha  occ. eigenvalues --   -0.35781  -0.35140  -0.35017  -0.34931  -0.34813
 Alpha  occ. eigenvalues --   -0.34197  -0.34181  -0.34140  -0.33985  -0.33781
 Alpha  occ. eigenvalues --   -0.32996  -0.32890  -0.32613  -0.32568  -0.32303
 Alpha  occ. eigenvalues --   -0.31890  -0.31861  -0.31753  -0.31167  -0.30029
 Alpha  occ. eigenvalues --   -0.29904  -0.28932  -0.28785  -0.28567  -0.28001
 Alpha  occ. eigenvalues --   -0.27016  -0.26668  -0.25889  -0.24772  -0.24745
 Alpha  occ. eigenvalues --   -0.23184  -0.22843  -0.22502  -0.17969  -0.16728
 Alpha  occ. eigenvalues --   -0.15692
 Alpha virt. eigenvalues --   -0.15042  -0.14868  -0.10434  -0.09769  -0.08204
 Alpha virt. eigenvalues --   -0.06957  -0.06193  -0.06022  -0.05007  -0.04808
 Alpha virt. eigenvalues --   -0.04102  -0.03964  -0.03461  -0.02698  -0.01616

 Mulliken charges:
               1
     1  N   -0.703294
     2  H    0.409328
     3  H    0.423012
     4  H    0.405779
     5  C   -0.167502
     6  H    0.204143
     7  C    0.632259
     8  C   -0.063885
     9  H    0.172999
    10  H    0.237335
    11  O   -0.537588
    12  O   -0.624848
    13  H    0.442040
    14  N   -0.590640
    15  H    0.341599
    16  C   -0.087865
    17  H    0.210267
    18  C    0.632013
    19  C   -0.459238
    20  H    0.212313
    21  H    0.168458
    22  H    0.152729
    23  O   -0.527332
    24  N   -0.599904
    25  H    0.373463
    26  C   -0.090202
    27  H    0.165891
    28  C    0.647818
    29  C    0.110776
    30  H    0.174322
    31  O   -0.547989
    32  C   -0.484686
    33  H    0.214897
    34  H    0.135199
    35  H    0.167290
    36  O   -0.643268
    37  H    0.385115
    38  N   -0.617086
    39  H    0.366745
    40  C   -0.054670
    41  H    0.188085
    42  C    0.638238
    43  C   -0.101522
    44  H    0.138140
    45  O   -0.525813
    46  C   -0.464001
    47  H    0.153661
    48  H    0.236156
    49  H    0.123633
    50  C   -0.463488
    51  H    0.139861
    52  H    0.118030
    53  H    0.147318
    54  N   -0.644513
    55  H    0.377477
    56  C   -0.069643
    57  H    0.181410
    58  C    0.649874
    59  C   -0.066069
    60  H    0.106567
    61  O   -0.546977
    62  C   -0.259448
    63  H    0.170820
    64  H    0.111555
    65  C   -0.495834
    66  H    0.199150
    67  H    0.140023
    68  H    0.126336
    69  C   -0.468344
    70  H    0.131816
    71  H    0.187921
    72  H    0.127055
    73  N   -0.609816
    74  H    0.369876
    75  C   -0.038601
    76  H    0.175381
    77  C    0.643641
    78  C   -0.369308
    79  H    0.140435
    80  H    0.135175
    81  O   -0.550047
    82  C    0.559076
    83  O   -0.567845
    84  O   -0.559785
    85  N   -0.587485
    86  H    0.341732
    87  C   -0.050677
    88  H    0.174903
    89  C    0.626858
    90  C   -0.370220
    91  H    0.123874
    92  H    0.173285
    93  O   -0.539727
    94  C    0.320841
    95  C   -0.098189
    96  H    0.206494
    97  N   -0.614131
    98  H    0.310869
    99  C    0.202559
   100  H    0.141072
   101  N   -0.429252
   102  N   -0.587444
   103  H    0.349692
   104  C   -0.073893
   105  H    0.173598
   106  C    0.613637
   107  C   -0.247832
   108  H    0.150448
   109  H    0.112378
   110  O   -0.531008
   111  C   -0.078515
   112  H    0.176625
   113  C   -0.445773
   114  H    0.125200
   115  H    0.163436
   116  H    0.146592
   117  C   -0.467227
   118  H    0.112458
   119  H    0.163205
   120  H    0.173471
   121  N   -0.634180
   122  H    0.363346
   123  C   -0.028018
   124  H    0.216419
   125  C    0.579373
   126  C   -0.276804
   127  H    0.192245
   128  H    0.156581
   129  O   -0.459257
   130  C   -0.316229
   131  H    0.195785
   132  H    0.157280
   133  C   -0.173666
   134  H    0.190642
   135  H    0.190808
   136  N   -0.578521
   137  H    0.369827
   138  N   -0.733690
   139  H    0.385075
   140  H    0.391047
   141  N   -0.734996
   142  H    0.380415
   143  H    0.382663
   144  C    0.765299
   145  O   -0.573598
   146  H    0.428848
 Sum of Mulliken charges =   1.00000

 Dipole moment (field-independent basis, Debye):
    X=             15.3405    Y=             -6.8032    Z=             21.8387  Tot=             27.5417
 Quadrupole moment (field-independent basis, Debye-Ang):
   XX=            558.1564   YY=            -66.2275   ZZ=           -131.8811
   XY=            565.2162   XZ=            580.8528   YZ=            334.5340

 Normal termination of Gaussian 16 at Sun Jun 19 12:05:13 2022.
