 Gaussian 16, Revision C.01,
 Gaussian 16:  ES64L-G16RevC.01  3-Jul-2019

 ----------------------------------------------------------------------
 # B3LYP/6-31G* empiricaldispersion=gd3 guess=read geom=check nosymm in
 tegral(ultrafinegrid)
 ----------------------------------------------------------------------

 ------------------------------------------------------
 Candidate Structure: Conf:962 Charge calc in gas phase
 ------------------------------------------------------
 Structure from the checkpoint file:  "conf-962.chk"
 Charge =  1 Multiplicity = 1

                          Input orientation:
 ---------------------------------------------------------------------
 Center     Atomic      Atomic             Coordinates (Angstroms)
 Number     Number       Type             X           Y           Z
 ---------------------------------------------------------------------
      1          7           0       -4.860574    1.276663    3.658064
      2          1           0       -5.350109    0.449486    3.298606
      3          1           0       -5.472714    1.776245    4.311134
      4          1           0       -2.882014    0.374777    4.982593
      5          6           0       -4.450258    2.173237    2.549610
      6          1           0       -5.291378    2.527682    1.929063
      7          6           0       -3.522983    1.371528    1.631086
      8          6           0       -3.770237    3.431401    3.161672
      9          1           0       -3.537165    4.139196    2.364693
     10          1           0       -4.520890    3.916764    3.798236
     11          8           0       -3.101205    0.217108    1.961638
     12          6           0       -2.517078    3.170823    3.973439
     13          6           0       -2.590619    2.947996    5.357196
     14          1           0       -3.560840    2.903361    5.840705
     15          6           0       -1.258512    3.246456    3.361942
     16          1           0       -1.176919    3.331492    2.286117
     17          6           0       -1.425258    2.840153    6.122772
     18          1           0       -1.494903    2.692987    7.194360
     19          6           0       -0.093712    3.157532    4.130933
     20          1           0        0.871034    3.231338    3.642980
     21          6           0       -0.172931    2.968148    5.513114
     22          1           0        0.729829    2.915713    6.109866
     23          7           0       -3.191756    1.852955    0.426187
     24          6           0       -2.310097    1.028573   -0.442813
     25          1           0       -2.704594    0.013375   -0.509419
     26          6           0       -0.887642    1.021742    0.129789
     27          6           0       -2.323908    1.797238   -1.789957
     28          1           0       -1.407569    1.626232   -2.359421
     29          1           0       -3.184440    1.479648   -2.387601
     30          8           0       -0.398019    1.996374    0.737099
     31          6           0       -2.492804    3.265011   -1.332200
     32          1           0       -1.556130    3.606429   -0.883588
     33          1           0       -2.799798    3.935583   -2.135906
     34          6           0       -3.559383    3.149747   -0.220927
     35          1           0       -4.569710    3.083357   -0.638998
     36          1           0       -3.502249    3.972152    0.488243
     37          7           0       -0.191148   -0.107845   -0.155322
     38          1           0       -0.593607   -0.839390   -0.732879
     39          6           0        1.247865   -0.199295    0.105365
     40          1           0        1.615903    0.828763    0.201833
     41          6           0        1.977154   -0.864401   -1.054527
     42          6           0        1.615599   -0.967076    1.402427
     43          1           0        2.709045   -0.978969    1.444194
     44          1           0        1.278601   -2.007182    1.312858
     45          8           0        3.170591   -1.121390   -1.061677
     46          6           0        1.022396   -0.316037    2.676005
     47          1           0        1.709446   -0.470631    3.516403
     48          1           0        0.918838    0.762651    2.511763
     49          6           0       -0.370215   -0.889029    3.041043
     50          1           0       -0.288880   -1.961599    3.256658
     51          1           0       -1.043807   -0.751235    2.194223
     52          6           0       -0.935662   -0.125423    4.248001
     53          1           0       -0.450625   -0.398279    5.187189
     54          1           0       -0.828643    0.942057    4.085906
     55          7           0       -2.446072   -0.351029    4.390459
     56          1           0       -2.672825   -1.293075    4.735467
     57          1           0       -2.879055   -0.173945    3.406737
     58          8           0        1.114286   -1.185675   -2.085028
     59          1           0        1.627730   -1.635660   -2.812042
 ---------------------------------------------------------------------

 SCF Done:  E(RB3LYP) =  -1300.63186801     A.U. after   13 cycles

 Alpha  occ. eigenvalues --  -19.29787 -19.25606 -19.23767 -19.22910 -14.53533
 Alpha  occ. eigenvalues --  -14.49783 -14.47461 -14.44876 -10.42206 -10.42102
 Alpha  occ. eigenvalues --  -10.40206 -10.35736 -10.35182 -10.34419 -10.34374
 Alpha  occ. eigenvalues --  -10.34243 -10.31033 -10.30617 -10.30189 -10.29843
 Alpha  occ. eigenvalues --  -10.29383 -10.29274 -10.29219 -10.28838 -10.28775
 Alpha  occ. eigenvalues --  -10.28692 -10.28423 -10.28348  -1.18995  -1.16609
 Alpha  occ. eigenvalues --   -1.13820  -1.10719  -1.08093  -1.06219  -1.03560
 Alpha  occ. eigenvalues --   -1.01134  -0.95696  -0.92008  -0.90765  -0.88704
 Alpha  occ. eigenvalues --   -0.88114  -0.85840  -0.84448  -0.83076  -0.81147
 Alpha  occ. eigenvalues --   -0.78412  -0.75097  -0.74507  -0.72154  -0.70926
 Alpha  occ. eigenvalues --   -0.70651  -0.70169  -0.69454  -0.68816  -0.68527
 Alpha  occ. eigenvalues --   -0.66701  -0.65269  -0.64182  -0.63115  -0.61627
 Alpha  occ. eigenvalues --   -0.61346  -0.59997  -0.58947  -0.58447  -0.58277
 Alpha  occ. eigenvalues --   -0.57317  -0.57096  -0.56775  -0.56562  -0.55901
 Alpha  occ. eigenvalues --   -0.55242  -0.54476  -0.54035  -0.53138  -0.52638
 Alpha  occ. eigenvalues --   -0.52244  -0.51790  -0.51441  -0.50864  -0.50599
 Alpha  occ. eigenvalues --   -0.50098  -0.49658  -0.49447  -0.48669  -0.48467
 Alpha  occ. eigenvalues --   -0.47638  -0.47116  -0.46486  -0.45841  -0.45335
 Alpha  occ. eigenvalues --   -0.44929  -0.44038  -0.43950  -0.43819  -0.43738
 Alpha  occ. eigenvalues --   -0.43451  -0.41269  -0.39503  -0.38407  -0.37986
 Alpha  occ. eigenvalues --   -0.37299  -0.36276  -0.35438  -0.35042  -0.34691
 Alpha virt. eigenvalues --   -0.12175  -0.11094  -0.10376  -0.09456  -0.09330
 Alpha virt. eigenvalues --   -0.06470  -0.04350  -0.03453  -0.01990  -0.00525
 Alpha virt. eigenvalues --   -0.00452  -0.00023   0.00202   0.00888   0.01476

 Mulliken charges:
               1
     1  N   -0.767493
     2  H    0.324222
     3  H    0.325541
     4  H    0.401832
     5  C   -0.058745
     6  H    0.165636
     7  C    0.646841
     8  C   -0.390368
     9  H    0.179058
    10  H    0.175208
    11  O   -0.603151
    12  C    0.181336
    13  C   -0.216416
    14  H    0.134113
    15  C   -0.195048
    16  H    0.183083
    17  C   -0.140379
    18  H    0.154864
    19  C   -0.160822
    20  H    0.159764
    21  C   -0.128334
    22  H    0.156668
    23  N   -0.428703
    24  C   -0.073285
    25  H    0.180679
    26  C    0.651322
    27  C   -0.306584
    28  H    0.184588
    29  H    0.174305
    30  O   -0.535869
    31  C   -0.305296
    32  H    0.196751
    33  H    0.179538
    34  C   -0.144520
    35  H    0.181034
    36  H    0.183807
    37  N   -0.601195
    38  H    0.356573
    39  C   -0.070023
    40  H    0.220470
    41  C    0.607597
    42  C   -0.268497
    43  H    0.192930
    44  H    0.147805
    45  O   -0.438194
    46  C   -0.291092
    47  H    0.153601
    48  H    0.177134
    49  C   -0.300569
    50  H    0.148983
    51  H    0.189381
    52  C   -0.193040
    53  H    0.185863
    54  H    0.222108
    55  N   -0.779754
    56  H    0.378351
    57  H    0.466044
    58  O   -0.600979
    59  H    0.431326
 Sum of Mulliken charges =   1.00000

 Dipole moment (field-independent basis, Debye):
    X=            -13.6949    Y=              3.2112    Z=             10.7919  Tot=             17.7293
 Quadrupole moment (field-independent basis, Debye-Ang):
   XX=           -110.4057   YY=           -142.3862   ZZ=            -83.0652
   XY=            -20.2399   XZ=            -33.2602   YZ=              4.3747

 Normal termination of Gaussian 16 at Sat Jul  9 03:24:58 2022.
