 Gaussian 16, Revision C.01,
 Gaussian 16:  ES64L-G16RevC.01  3-Jul-2019

 -------------------------------------------------------------------
 # B3LYP/6-31G* guess=read geom=check nosymm integral(ultrafinegrid)
 -------------------------------------------------------------------

 ------------------------------------------------------
 Candidate Structure: Conf:669 Charge calc in gas phase
 ------------------------------------------------------
 Structure from the checkpoint file:  "conf-669.chk"
 Charge =  1 Multiplicity = 1

                          Input orientation:
 ---------------------------------------------------------------------
 Center     Atomic      Atomic             Coordinates (Angstroms)
 Number     Number       Type             X           Y           Z
 ---------------------------------------------------------------------
      1          7           0       -8.797446    3.369319    0.287333
      2          1           0       -9.362006    4.108334    0.714401
      3          1           0       -7.855787    3.774183   -0.028000
      4          1           0       -9.312935    2.979826   -0.506976
      5          6           0       -8.342371    2.306922    1.272946
      6          1           0       -8.873252    2.466017    2.214126
      7          6           0       -6.825806    2.617716    1.399273
      8          6           0       -8.630840    0.892167    0.713209
      9          1           0       -9.665126    0.886294    0.341919
     10          1           0       -7.967179    0.710694   -0.139639
     11          8           0       -6.346598    3.442237    0.604040
     12          6           0       -8.472599   -0.207177    1.747614
     13          6           0       -7.340850   -1.035074    1.745241
     14          1           0       -6.550569   -0.865489    1.018770
     15          6           0       -9.475774   -0.418878    2.705008
     16          1           0      -10.370657    0.201458    2.703116
     17          6           0       -7.222928   -2.060377    2.686921
     18          1           0       -6.350273   -2.707186    2.668039
     19          6           0       -9.352018   -1.439367    3.647368
     20          1           0      -10.139451   -1.598623    4.378102
     21          6           0       -8.224727   -2.264177    3.637448
     22          1           0       -8.133112   -3.067128    4.363054
     23          7           0       -6.135779    1.965713    2.325759
     24          1           0       -6.601704    1.327482    2.960295
     25          6           0       -4.676787    1.991434    2.360377
     26          1           0       -4.346265    3.012687    2.578456
     27          6           0       -4.117885    1.507017    0.995077
     28          6           0       -4.206243    1.042585    3.470444
     29          1           0       -3.129800    1.193481    3.625160
     30          1           0       -4.366548    0.003742    3.145710
     31          8           0       -4.746660    0.708640    0.303007
     32          8           0       -4.966579    1.345530    4.630939
     33          1           0       -4.701101    0.739984    5.340329
     34          7           0       -2.893465    1.979455    0.701200
     35          1           0       -2.430837    2.677537    1.277485
     36          6           0       -2.137066    1.608181   -0.488038
     37          1           0       -2.341568    0.556990   -0.713224
     38          6           0       -0.658765    1.819615   -0.136911
     39          6           0       -2.555978    2.491574   -1.702484
     40          1           0       -2.632377    3.525514   -1.347136
     41          1           0       -3.563490    2.164189   -2.005714
     42          8           0       -0.318842    2.734475    0.616109
     43          8           0       -1.632067    2.486582   -2.755079
     44          7           0        0.195571    0.937609   -0.694374
     45          1           0       -0.140896    0.214219   -1.321323
     46          6           0        1.641493    1.081542   -0.660628
     47          1           0        1.905649    2.117172   -0.897147
     48          6           0        2.178836    0.131199   -1.749969
     49          6           0        2.199098    0.737344    0.742583
     50          1           0        1.681077    1.391699    1.454443
     51          1           0        1.967096   -0.297279    1.007829
     52          8           0        1.506709   -0.830765   -2.129259
     53          6           0        3.684850    0.944144    0.949396
     54          8           0        4.374978    0.316614    1.713634
     55          8           0        4.180389    1.974538    0.198805
     56          7           0        3.400626    0.430729   -2.247142
     57          1           0        3.922483    1.187824   -1.820074
     58          6           0        4.048986   -0.404857   -3.247778
     59          1           0        3.465442   -1.327560   -3.300503
     60          6           0        5.463961   -0.816852   -2.849532
     61          6           0        4.095512    0.256251   -4.651339
     62          1           0        4.576497   -0.457528   -5.329777
     63          1           0        4.756043    1.131830   -4.600626
     64          8           0        6.122206   -1.614890   -3.472100
     65          6           0        2.732650    0.703466   -5.200468
     66          1           0        2.913842    1.307846   -6.099225
     67          1           0        2.242526    1.366022   -4.476819
     68          6           0        1.757649   -0.431854   -5.564852
     69          1           0        2.182190   -1.065219   -6.351706
     70          1           0        1.580703   -1.081896   -4.704349
     71          7           0        0.469946    0.064140   -6.045543
     72          1           0        0.464357    0.425258   -6.990686
     73          7           0       -0.701201    0.245016   -3.972212
     74          1           0       -1.400590    1.558415   -3.051014
     75          1           0       -0.112064   -0.527195   -3.671144
     76          7           0       -1.315237    1.539529   -5.790642
     77          1           0       -0.852977    2.196905   -6.408128
     78          1           0       -1.896586    2.013083   -5.105453
     79          6           0       -0.486443    0.594947   -5.200618
     80          8           0        5.922938   -0.170096   -1.749581
     81          1           0        6.826534   -0.506462   -1.592425
     82          1           0        5.128166    2.040219    0.425612
 ---------------------------------------------------------------------

 SCF Done:  E(RB3LYP) =  -2166.26466428     A.U. after    2 cycles

 Alpha  occ. eigenvalues --  -19.27233 -19.27129 -19.26695 -19.25479 -19.20924
 Alpha  occ. eigenvalues --  -19.20915 -19.20735 -19.20180 -19.19116 -19.18134
 Alpha  occ. eigenvalues --  -14.59591 -14.49356 -14.45052 -14.44265 -14.43258
 Alpha  occ. eigenvalues --  -14.41577 -14.40197 -14.35075 -10.43240 -10.40655
 Alpha  occ. eigenvalues --  -10.39342 -10.39304 -10.38301 -10.37293 -10.36213
 Alpha  occ. eigenvalues --  -10.34937 -10.34607 -10.34538 -10.33720 -10.31772
 Alpha  occ. eigenvalues --  -10.31389 -10.30731 -10.30622 -10.29455 -10.29423
 Alpha  occ. eigenvalues --  -10.28761 -10.28688 -10.28627 -10.28613 -10.28560
 Alpha  occ. eigenvalues --  -10.27641 -10.26491 -10.25505  -1.19229  -1.17847
 Alpha  occ. eigenvalues --   -1.17565  -1.13695  -1.12941  -1.12468  -1.12198
 Alpha  occ. eigenvalues --   -1.10807  -1.08797  -1.08626  -1.05968  -1.05842
 Alpha  occ. eigenvalues --   -1.03966  -1.01271  -1.00942  -1.00008  -0.96385
 Alpha  occ. eigenvalues --   -0.95047  -0.92572  -0.90316  -0.88430  -0.87795
 Alpha  occ. eigenvalues --   -0.85988  -0.85098  -0.84276  -0.82328  -0.81439
 Alpha  occ. eigenvalues --   -0.79512  -0.76864  -0.74980  -0.74653  -0.73924
 Alpha  occ. eigenvalues --   -0.73249  -0.72405  -0.70991  -0.70402  -0.69426
 Alpha  occ. eigenvalues --   -0.68498  -0.68221  -0.68050  -0.67015  -0.66373
 Alpha  occ. eigenvalues --   -0.65379  -0.65260  -0.64271  -0.63994  -0.62586
 Alpha  occ. eigenvalues --   -0.61783  -0.61434  -0.60918  -0.60306  -0.59478
 Alpha  occ. eigenvalues --   -0.58273  -0.58182  -0.57320  -0.56985  -0.56104
 Alpha  occ. eigenvalues --   -0.56004  -0.55902  -0.55539  -0.55155  -0.54934
 Alpha  occ. eigenvalues --   -0.54782  -0.54525  -0.53832  -0.53764  -0.53173
 Alpha  occ. eigenvalues --   -0.52807  -0.52481  -0.52075  -0.51955  -0.51647
 Alpha  occ. eigenvalues --   -0.51337  -0.51281  -0.51091  -0.51025  -0.50030
 Alpha  occ. eigenvalues --   -0.49911  -0.49405  -0.48974  -0.48875  -0.47765
 Alpha  occ. eigenvalues --   -0.47622  -0.47223  -0.47039  -0.46287  -0.46126
 Alpha  occ. eigenvalues --   -0.45852  -0.45510  -0.44989  -0.44687  -0.44534
 Alpha  occ. eigenvalues --   -0.44347  -0.44135  -0.43831  -0.43031  -0.42746
 Alpha  occ. eigenvalues --   -0.41438  -0.41369  -0.40684  -0.39335  -0.39143
 Alpha  occ. eigenvalues --   -0.39049  -0.38804  -0.37988  -0.36160  -0.35479
 Alpha  occ. eigenvalues --   -0.35214  -0.34987  -0.34855  -0.34552  -0.34146
 Alpha  occ. eigenvalues --   -0.33287  -0.33175  -0.33089  -0.32120  -0.31725
 Alpha  occ. eigenvalues --   -0.30929  -0.28851
 Alpha virt. eigenvalues --   -0.12274  -0.10988  -0.10821  -0.09986  -0.07409
 Alpha virt. eigenvalues --   -0.06695  -0.06176  -0.06043  -0.05959  -0.04574
 Alpha virt. eigenvalues --   -0.03173  -0.02248  -0.01435  -0.01162  -0.00805

 Mulliken charges:
               1
     1  N   -0.762793
     2  H    0.414934
     3  H    0.437995
     4  H    0.413112
     5  C   -0.113311
     6  H    0.217838
     7  C    0.673723
     8  C   -0.382149
     9  H    0.176029
    10  H    0.210527
    11  O   -0.544296
    12  C    0.122321
    13  C   -0.202089
    14  H    0.193859
    15  C   -0.180885
    16  H    0.129025
    17  C   -0.138450
    18  H    0.157180
    19  C   -0.125848
    20  H    0.158764
    21  C   -0.122659
    22  H    0.159706
    23  N   -0.582697
    24  H    0.372595
    25  C   -0.048582
    26  H    0.192184
    27  C    0.637720
    28  C   -0.070040
    29  H    0.168663
    30  H    0.159721
    31  O   -0.542620
    32  O   -0.621918
    33  H    0.418037
    34  N   -0.613744
    35  H    0.356414
    36  C   -0.097079
    37  H    0.180606
    38  C    0.646636
    39  C    0.001565
    40  H    0.144850
    41  H    0.136137
    42  O   -0.552382
    43  O   -0.672621
    44  N   -0.631048
    45  H    0.374164
    46  C   -0.032116
    47  H    0.199168
    48  C    0.610738
    49  C   -0.363126
    50  H    0.224621
    51  H    0.194280
    52  O   -0.544822
    53  C    0.584189
    54  O   -0.440423
    55  O   -0.581627
    56  N   -0.608068
    57  H    0.368774
    58  C   -0.072357
    59  H    0.219570
    60  C    0.597322
    61  C   -0.275593
    62  H    0.179793
    63  H    0.149382
    64  O   -0.443984
    65  C   -0.266874
    66  H    0.142105
    67  H    0.156002
    68  C   -0.166080
    69  H    0.160890
    70  H    0.181854
    71  N   -0.588690
    72  H    0.323103
    73  N   -0.765953
    74  H    0.441306
    75  H    0.324505
    76  N   -0.752459
    77  H    0.319532
    78  H    0.345002
    79  C    0.664721
    80  O   -0.580456
    81  H    0.425475
    82  H    0.421201
 Sum of Mulliken charges =   1.00000

 Dipole moment (field-independent basis, Debye):
    X=            -27.9108    Y=             10.4507    Z=              1.9514  Tot=             29.8670
 Quadrupole moment (field-independent basis, Debye-Ang):
   XX=             77.0291   YY=           -220.2445   ZZ=           -184.3250
   XY=            -65.2294   XZ=            -64.7799   YZ=            -15.7417

 Normal termination of Gaussian 16 at Thu May 26 21:38:14 2022.
