 Gaussian 16, Revision C.01,
 Gaussian 16:  ES64L-G16RevC.01  3-Jul-2019

 -------------------------------------------------------------------
 # B3LYP/6-31G* guess=read geom=check nosymm integral(ultrafinegrid)
 -------------------------------------------------------------------

 ------------------------------------------------------
 Candidate Structure: Conf:746 Charge calc in gas phase
 ------------------------------------------------------
 Structure from the checkpoint file:  "conf-746.chk"
 Charge =  1 Multiplicity = 1

                          Input orientation:
 ---------------------------------------------------------------------
 Center     Atomic      Atomic             Coordinates (Angstroms)
 Number     Number       Type             X           Y           Z
 ---------------------------------------------------------------------
      1          7           0       -8.244855    3.513567    2.480145
      2          1           0       -8.803094    4.024059    3.168832
      3          1           0       -7.508702    4.166249    2.091475
      4          1           0       -8.876127    3.143853    1.753266
      5          6           0       -7.414064    2.407195    3.091367
      6          1           0       -7.819046    2.191696    4.082772
      7          6           0       -5.996976    3.028936    3.155209
      8          6           0       -7.455420    1.145368    2.187531
      9          1           0       -6.823013    1.319377    1.311875
     10          1           0       -6.971886    0.337015    2.745318
     11          8           0       -5.807008    4.088266    2.549793
     12          6           0       -8.868193    0.772017    1.791674
     13          6           0       -9.352321    1.108938    0.516750
     14          1           0       -8.680018    1.556801   -0.213473
     15          6           0       -9.732855    0.135803    2.695785
     16          1           0       -9.370391   -0.149246    3.681472
     17          6           0      -10.672556    0.818671    0.155601
     18          1           0      -11.027452    1.072342   -0.839004
     19          6           0      -11.046474   -0.158162    2.333623
     20          1           0      -11.700025   -0.663559    3.038709
     21          6           0      -11.520684    0.187270    1.064233
     22          1           0      -12.543395   -0.046222    0.783813
     23          7           0       -5.073807    2.368777    3.867642
     24          1           0       -5.292424    1.431837    4.193261
     25          6           0       -3.657714    2.533881    3.554886
     26          1           0       -3.425334    3.602170    3.526977
     27          6           0       -3.401682    1.917010    2.140598
     28          6           0       -2.848852    1.853552    4.662503
     29          1           0       -2.977050    2.410629    5.602010
     30          1           0       -1.782002    1.855660    4.404817
     31          8           0       -4.310533    1.376940    1.518944
     32          8           0       -3.360321    0.530220    4.769265
     33          1           0       -2.835688    0.039179    5.419336
     34          7           0       -2.135628    2.055189    1.702823
     35          1           0       -1.406494    2.390064    2.323856
     36          6           0       -1.618482    1.449386    0.488782
     37          1           0       -2.352849    0.721979    0.132125
     38          6           0       -0.271495    0.803151    0.846489
     39          6           0       -1.359889    2.491514   -0.620803
     40          1           0       -0.843759    1.972364   -1.449152
     41          1           0       -0.648163    3.237446   -0.223426
     42          8           0        0.379549    1.206489    1.805238
     43          8           0       -2.566383    3.064838   -1.024958
     44          7           0        0.150888   -0.172640   -0.012190
     45          1           0       -0.363870   -0.259577   -0.883360
     46          6           0        1.570812   -0.481321   -0.159526
     47          1           0        2.064336   -0.152539    0.757198
     48          6           0        2.065093    0.290549   -1.398285
     49          6           0        1.791046   -1.986529   -0.360933
     50          1           0        1.201133   -2.358434   -1.204324
     51          1           0        2.843638   -2.178563   -0.610146
     52          8           0        1.358616    0.352307   -2.408250
     53          6           0        1.471780   -2.782215    0.890966
     54          8           0        1.516617   -2.357997    2.022778
     55          8           0        1.160283   -4.062781    0.588745
     56          7           0        3.273710    0.882564   -1.306571
     57          1           0        3.835126    0.831957   -0.463090
     58          6           0        3.841370    1.634320   -2.416956
     59          1           0        3.834381    0.996436   -3.309628
     60          6           0        5.295371    1.908709   -2.063352
     61          6           0        3.060255    2.949425   -2.743905
     62          1           0        3.706889    3.821550   -2.592716
     63          1           0        2.239566    3.039357   -2.027794
     64          8           0        5.803903    1.662086   -0.991175
     65          6           0        2.508746    2.961791   -4.175303
     66          1           0        1.951072    2.032971   -4.348430
     67          1           0        3.339285    2.974530   -4.891896
     68          6           0        1.606079    4.162275   -4.477941
     69          1           0        2.139258    5.091254   -4.241046
     70          1           0        1.388489    4.173750   -5.559645
     71          7           0        0.385006    4.117427   -3.684320
     72          1           0        0.003331    3.204171   -3.475933
     73          7           0       -0.108440    6.362074   -4.082288
     74          1           0       -0.824509    7.075869   -4.099343
     75          1           0        0.427173    6.334036   -4.940666
     76          7           0       -1.620033    4.952021   -2.894371
     77          1           0       -2.320670    3.726522   -1.724173
     78          1           0       -2.199201    5.790031   -2.891445
     79          6           0       -0.517599    5.144103   -3.549871
     80          8           0        5.953008    2.472915   -3.092747
     81          1           0        6.868886    2.633725   -2.794593
     82          1           0        1.019239   -4.522449    1.438488
 ---------------------------------------------------------------------

 SCF Done:  E(RB3LYP) =  -2166.26203633     A.U. after    2 cycles

 Alpha  occ. eigenvalues --  -19.27530 -19.25723 -19.25231 -19.24770 -19.22085
 Alpha  occ. eigenvalues --  -19.20049 -19.19348 -19.19208 -19.19181 -19.16500
 Alpha  occ. eigenvalues --  -14.57957 -14.47620 -14.43825 -14.43296 -14.43112
 Alpha  occ. eigenvalues --  -14.41781 -14.41296 -14.35235 -10.41940 -10.40057
 Alpha  occ. eigenvalues --  -10.39139 -10.38438 -10.36735 -10.36246 -10.36025
 Alpha  occ. eigenvalues --  -10.35397 -10.33665 -10.33202 -10.31795 -10.31632
 Alpha  occ. eigenvalues --  -10.30931 -10.30850 -10.29747 -10.29724 -10.29539
 Alpha  occ. eigenvalues --  -10.29252 -10.29238 -10.29205 -10.28938 -10.28688
 Alpha  occ. eigenvalues --  -10.27525 -10.26119 -10.25579  -1.18582  -1.17710
 Alpha  occ. eigenvalues --   -1.16611  -1.12557  -1.11960  -1.11584  -1.11060
 Alpha  occ. eigenvalues --   -1.10506  -1.09675  -1.07659  -1.04933  -1.04441
 Alpha  occ. eigenvalues --   -1.04308  -1.00278  -0.99959  -0.99680  -0.96370
 Alpha  occ. eigenvalues --   -0.95573  -0.91620  -0.91020  -0.87646  -0.87173
 Alpha  occ. eigenvalues --   -0.85925  -0.84857  -0.84557  -0.81791  -0.81781
 Alpha  occ. eigenvalues --   -0.78060  -0.76217  -0.74604  -0.73841  -0.72437
 Alpha  occ. eigenvalues --   -0.71819  -0.71147  -0.70462  -0.70007  -0.69036
 Alpha  occ. eigenvalues --   -0.68893  -0.67593  -0.67250  -0.67135  -0.65740
 Alpha  occ. eigenvalues --   -0.65657  -0.64958  -0.64046  -0.62336  -0.62114
 Alpha  occ. eigenvalues --   -0.61254  -0.60581  -0.60225  -0.59779  -0.58252
 Alpha  occ. eigenvalues --   -0.57260  -0.56834  -0.56604  -0.56284  -0.56102
 Alpha  occ. eigenvalues --   -0.55667  -0.55363  -0.54980  -0.54778  -0.54236
 Alpha  occ. eigenvalues --   -0.54131  -0.53778  -0.53595  -0.53321  -0.53063
 Alpha  occ. eigenvalues --   -0.52457  -0.52241  -0.52011  -0.51856  -0.51563
 Alpha  occ. eigenvalues --   -0.51225  -0.51103  -0.50909  -0.50384  -0.49925
 Alpha  occ. eigenvalues --   -0.49618  -0.49045  -0.48220  -0.48019  -0.47562
 Alpha  occ. eigenvalues --   -0.47298  -0.47173  -0.46640  -0.46250  -0.45359
 Alpha  occ. eigenvalues --   -0.45226  -0.44952  -0.44671  -0.44601  -0.44261
 Alpha  occ. eigenvalues --   -0.44194  -0.43976  -0.43169  -0.42546  -0.42241
 Alpha  occ. eigenvalues --   -0.41563  -0.40892  -0.39917  -0.39639  -0.38654
 Alpha  occ. eigenvalues --   -0.37927  -0.37877  -0.37367  -0.35768  -0.35600
 Alpha  occ. eigenvalues --   -0.35109  -0.34298  -0.34134  -0.33965  -0.33722
 Alpha  occ. eigenvalues --   -0.33351  -0.33105  -0.32518  -0.32074  -0.31615
 Alpha  occ. eigenvalues --   -0.29863  -0.28309
 Alpha virt. eigenvalues --   -0.11920  -0.11249  -0.09710  -0.08581  -0.06965
 Alpha virt. eigenvalues --   -0.05815  -0.05415  -0.05343  -0.04283  -0.03839
 Alpha virt. eigenvalues --   -0.02060  -0.01113  -0.00755  -0.00687   0.00052

 Mulliken charges:
               1
     1  N   -0.753129
     2  H    0.410792
     3  H    0.429369
     4  H    0.403721
     5  C   -0.123394
     6  H    0.207324
     7  C    0.672775
     8  C   -0.386560
     9  H    0.235047
    10  H    0.200364
    11  O   -0.528539
    12  C    0.131912
    13  C   -0.228597
    14  H    0.158554
    15  C   -0.182072
    16  H    0.141063
    17  C   -0.120804
    18  H    0.163851
    19  C   -0.123001
    20  H    0.162945
    21  C   -0.125235
    22  H    0.164793
    23  N   -0.584758
    24  H    0.366947
    25  C   -0.108159
    26  H    0.209374
    27  C    0.660571
    28  C   -0.056188
    29  H    0.157648
    30  H    0.170106
    31  O   -0.533297
    32  O   -0.629473
    33  H    0.421754
    34  N   -0.590345
    35  H    0.349499
    36  C   -0.085622
    37  H    0.189205
    38  C    0.614134
    39  C   -0.007443
    40  H    0.113921
    41  H    0.120942
    42  O   -0.522916
    43  O   -0.663791
    44  N   -0.584564
    45  H    0.347620
    46  C   -0.086628
    47  H    0.208190
    48  C    0.633846
    49  C   -0.363898
    50  H    0.193726
    51  H    0.196138
    52  O   -0.550579
    53  C    0.591905
    54  O   -0.449349
    55  O   -0.562161
    56  N   -0.627274
    57  H    0.362807
    58  C   -0.002450
    59  H    0.201027
    60  C    0.563499
    61  C   -0.269040
    62  H    0.161466
    63  H    0.178500
    64  O   -0.458689
    65  C   -0.313897
    66  H    0.178798
    67  H    0.159675
    68  C   -0.133980
    69  H    0.164316
    70  H    0.146382
    71  N   -0.601876
    72  H    0.350031
    73  N   -0.757249
    74  H    0.333709
    75  H    0.338670
    76  N   -0.717479
    77  H    0.444869
    78  H    0.281466
    79  C    0.656740
    80  O   -0.561061
    81  H    0.427618
    82  H    0.415891
 Sum of Mulliken charges =   1.00000

 Dipole moment (field-independent basis, Debye):
    X=            -23.8304    Y=             12.7550    Z=              5.4033  Tot=             27.5639
 Quadrupole moment (field-independent basis, Debye-Ang):
   XX=             47.3460   YY=           -171.3401   ZZ=           -162.3334
   XY=            -60.4666   XZ=           -104.8505   YZ=            -12.0543

 Normal termination of Gaussian 16 at Thu May 26 21:38:13 2022.
