 Gaussian 16, Revision C.01,
 Gaussian 16:  ES64L-G16RevC.01  3-Jul-2019

 -------------------------------------------------------------------
 # B3LYP/6-31G* guess=read geom=check nosymm integral(ultrafinegrid)
 -------------------------------------------------------------------

 ------------------------------------------------------
 Candidate Structure: Conf:472 Charge calc in gas phase
 ------------------------------------------------------
 Structure from the checkpoint file:  "conf-472.chk"
 Charge =  1 Multiplicity = 1

                          Input orientation:
 ---------------------------------------------------------------------
 Center     Atomic      Atomic             Coordinates (Angstroms)
 Number     Number       Type             X           Y           Z
 ---------------------------------------------------------------------
      1          7           0       -6.618769    4.267831    4.424874
      2          1           0       -5.991530    4.401143    5.224258
      3          1           0       -6.421622    5.026983    3.713746
      4          1           0       -7.586436    4.312837    4.758643
      5          6           0       -6.322687    3.001260    3.635990
      6          1           0       -5.757518    2.324009    4.279199
      7          6           0       -5.457446    3.528487    2.462411
      8          6           0       -7.652073    2.347644    3.190195
      9          1           0       -8.262409    2.192506    4.091364
     10          1           0       -8.190940    3.051625    2.544386
     11          8           0       -5.519856    4.757222    2.231070
     12          6           0       -7.447584    1.027747    2.474022
     13          6           0       -7.690826    0.918750    1.099609
     14          1           0       -8.043740    1.783261    0.541906
     15          6           0       -7.010841   -0.100811    3.182865
     16          1           0       -6.842609   -0.041766    4.257029
     17          6           0       -7.497180   -0.297322    0.443053
     18          1           0       -7.698226   -0.372528   -0.621465
     19          6           0       -6.809300   -1.313661    2.524846
     20          1           0       -6.471977   -2.181163    3.083803
     21          6           0       -7.051741   -1.412771    1.153230
     22          1           0       -6.899662   -2.358528    0.642140
     23          7           0       -4.734367    2.644727    1.804209
     24          1           0       -4.706968    1.647768    2.058139
     25          6           0       -3.895445    2.906687    0.631101
     26          1           0       -4.530935    3.217131   -0.207612
     27          6           0       -3.277800    1.521948    0.301068
     28          6           0       -2.848259    4.027371    0.852070
     29          1           0       -1.979829    3.844663    0.217650
     30          1           0       -2.501635    3.997044    1.894512
     31          8           0       -3.500671    0.566099    1.047319
     32          8           0       -3.348332    5.305244    0.495826
     33          1           0       -4.139607    5.468430    1.042982
     34          7           0       -2.581028    1.468912   -0.844424
     35          1           0       -2.345628    2.338844   -1.333777
     36          6           0       -1.760792    0.319076   -1.187556
     37          1           0       -2.258664   -0.571970   -0.789605
     38          6           0       -0.389236    0.463172   -0.473335
     39          6           0       -1.669807    0.208490   -2.726321
     40          1           0       -2.696994    0.123045   -3.113511
     41          1           0       -1.153309   -0.719191   -3.000274
     42          8           0       -0.183146    1.377436    0.323397
     43          8           0       -0.962236    1.267046   -3.317538
     44          7           0        0.523121   -0.507714   -0.742335
     45          1           0        0.374785   -1.096096   -1.552442
     46          6           0        1.898376   -0.450888   -0.221295
     47          1           0        1.843411   -0.066066    0.798340
     48          6           0        2.705317    0.517281   -1.119422
     49          6           0        2.517717   -1.844431   -0.229285
     50          1           0        1.842050   -2.570919    0.237866
     51          1           0        2.707257   -2.172373   -1.256777
     52          8           0        3.317708    0.112707   -2.100264
     53          6           0        3.832554   -1.857567    0.522736
     54          8           0        4.267609   -0.940479    1.183535
     55          8           0        4.467288   -3.040374    0.383695
     56          7           0        2.584446    1.827261   -0.766187
     57          1           0        1.922362    2.037492   -0.026279
     58          6           0        2.847083    2.885989   -1.730773
     59          1           0        3.523366    2.473350   -2.482818
     60          6           0        3.539134    4.090020   -1.110904
     61          6           0        1.512731    3.309397   -2.398289
     62          1           0        0.877194    3.776056   -1.633288
     63          1           0        1.008119    2.385445   -2.696495
     64          8           0        4.154941    4.919377   -1.743230
     65          6           0        1.619071    4.225351   -3.618564
     66          1           0        2.221113    3.740280   -4.397634
     67          1           0        2.139274    5.158956   -3.370226
     68          6           0        0.238831    4.536023   -4.216839
     69          1           0        0.359191    5.092872   -5.155226
     70          1           0       -0.301665    3.616828   -4.447945
     71          7           0       -0.603393    5.327763   -3.318625
     72          1           0       -0.259477    6.251394   -3.094600
     73          7           0       -2.271583    3.753225   -2.832912
     74          1           0       -3.282978    3.786831   -2.700054
     75          1           0       -1.478111    2.112412   -3.250618
     76          7           0       -2.572727    6.036961   -2.319414
     77          1           0       -2.171446    6.965132   -2.365695
     78          1           0       -3.055637    5.849232   -1.442389
     79          6           0       -1.820373    4.989277   -2.820144
     80          8           0        3.330172    4.192114    0.223428
     81          1           0        3.798358    4.999853    0.508836
     82          1           0        5.298823   -2.971582    0.890433
 ---------------------------------------------------------------------

 SCF Done:  E(RB3LYP) =  -2166.26726340     A.U. after    2 cycles

 Alpha  occ. eigenvalues --  -19.28916 -19.25425 -19.25154 -19.24875 -19.22472
 Alpha  occ. eigenvalues --  -19.20060 -19.19961 -19.19415 -19.19380 -19.16975
 Alpha  occ. eigenvalues --  -14.61910 -14.50830 -14.45113 -14.44282 -14.43648
 Alpha  occ. eigenvalues --  -14.42302 -14.40995 -14.37494 -10.45382 -10.42497
 Alpha  occ. eigenvalues --  -10.39491 -10.37743 -10.37584 -10.37556 -10.36988
 Alpha  occ. eigenvalues --  -10.35515 -10.35486 -10.34449 -10.34106 -10.31858
 Alpha  occ. eigenvalues --  -10.31610 -10.31477 -10.30317 -10.30155 -10.30151
 Alpha  occ. eigenvalues --  -10.29546 -10.29478 -10.29295 -10.29109 -10.28679
 Alpha  occ. eigenvalues --  -10.26467 -10.24516 -10.24384  -1.20945  -1.16189
 Alpha  occ. eigenvalues --   -1.15879  -1.15742  -1.14460  -1.12471  -1.11711
 Alpha  occ. eigenvalues --   -1.08851  -1.08007  -1.07313  -1.07044  -1.06926
 Alpha  occ. eigenvalues --   -1.06142  -1.02000  -1.00328  -0.98051  -0.97690
 Alpha  occ. eigenvalues --   -0.96763  -0.93991  -0.92261  -0.89121  -0.86709
 Alpha  occ. eigenvalues --   -0.86037  -0.85292  -0.85247  -0.82929  -0.80953
 Alpha  occ. eigenvalues --   -0.80751  -0.77679  -0.75704  -0.75661  -0.74708
 Alpha  occ. eigenvalues --   -0.73891  -0.73168  -0.71645  -0.71248  -0.69556
 Alpha  occ. eigenvalues --   -0.69105  -0.68407  -0.67795  -0.67153  -0.66487
 Alpha  occ. eigenvalues --   -0.65559  -0.65204  -0.64971  -0.63894  -0.62717
 Alpha  occ. eigenvalues --   -0.62146  -0.61928  -0.61635  -0.60856  -0.60361
 Alpha  occ. eigenvalues --   -0.60001  -0.58901  -0.58841  -0.57412  -0.56834
 Alpha  occ. eigenvalues --   -0.56684  -0.56053  -0.55710  -0.55004  -0.54833
 Alpha  occ. eigenvalues --   -0.54336  -0.53940  -0.53507  -0.53478  -0.53251
 Alpha  occ. eigenvalues --   -0.53014  -0.52861  -0.52790  -0.52499  -0.52324
 Alpha  occ. eigenvalues --   -0.51894  -0.51751  -0.51583  -0.51403  -0.50821
 Alpha  occ. eigenvalues --   -0.50511  -0.49439  -0.49026  -0.48732  -0.48355
 Alpha  occ. eigenvalues --   -0.46825  -0.46754  -0.46410  -0.46223  -0.45723
 Alpha  occ. eigenvalues --   -0.45422  -0.45359  -0.44984  -0.44726  -0.44374
 Alpha  occ. eigenvalues --   -0.44200  -0.43796  -0.43422  -0.43074  -0.42530
 Alpha  occ. eigenvalues --   -0.41539  -0.40856  -0.40749  -0.40382  -0.39839
 Alpha  occ. eigenvalues --   -0.38626  -0.37250  -0.37091  -0.36489  -0.36004
 Alpha  occ. eigenvalues --   -0.35780  -0.35629  -0.35354  -0.35020  -0.34331
 Alpha  occ. eigenvalues --   -0.33740  -0.33570  -0.33107  -0.32789  -0.30943
 Alpha  occ. eigenvalues --   -0.30436  -0.29579
 Alpha virt. eigenvalues --   -0.14354  -0.12665  -0.12018  -0.11022  -0.08237
 Alpha virt. eigenvalues --   -0.07444  -0.06261  -0.04703  -0.04464  -0.04161
 Alpha virt. eigenvalues --   -0.03948  -0.03321  -0.03085  -0.02373  -0.01867

 Mulliken charges:
               1
     1  N   -0.755335
     2  H    0.421149
     3  H    0.435307
     4  H    0.417300
     5  C   -0.112049
     6  H    0.223525
     7  C    0.668543
     8  C   -0.384110
     9  H    0.185003
    10  H    0.188386
    11  O   -0.583832
    12  C    0.151266
    13  C   -0.181258
    14  H    0.141378
    15  C   -0.190578
    16  H    0.131493
    17  C   -0.123305
    18  H    0.160417
    19  C   -0.114690
    20  H    0.163373
    21  C   -0.114786
    22  H    0.163991
    23  N   -0.612467
    24  H    0.392518
    25  C   -0.077594
    26  H    0.195242
    27  C    0.626715
    28  C   -0.051009
    29  H    0.204565
    30  H    0.154027
    31  O   -0.538209
    32  O   -0.639547
    33  H    0.430570
    34  N   -0.627207
    35  H    0.388090
    36  C   -0.105758
    37  H    0.193678
    38  C    0.660470
    39  C   -0.052895
    40  H    0.144072
    41  H    0.147825
    42  O   -0.544405
    43  O   -0.653968
    44  N   -0.614024
    45  H    0.344641
    46  C   -0.053962
    47  H    0.195236
    48  C    0.642372
    49  C   -0.385881
    50  H    0.186110
    51  H    0.208651
    52  O   -0.524689
    53  C    0.604084
    54  O   -0.459580
    55  O   -0.565165
    56  N   -0.594368
    57  H    0.360515
    58  C   -0.070168
    59  H    0.212864
    60  C    0.594588
    61  C   -0.297648
    62  H    0.135330
    63  H    0.198563
    64  O   -0.460833
    65  C   -0.276525
    66  H    0.161533
    67  H    0.156844
    68  C   -0.148756
    69  H    0.161668
    70  H    0.195992
    71  N   -0.592081
    72  H    0.326027
    73  N   -0.767896
    74  H    0.290340
    75  H    0.458789
    76  N   -0.786072
    77  H    0.323542
    78  H    0.371491
    79  C    0.677006
    80  O   -0.566895
    81  H    0.414087
    82  H    0.418368
 Sum of Mulliken charges =   1.00000

 Dipole moment (field-independent basis, Debye):
    X=            -29.9815    Y=             15.9637    Z=             14.8238  Tot=             37.0604
 Quadrupole moment (field-independent basis, Debye-Ang):
   XX=            -65.8810   YY=           -142.8276   ZZ=           -167.7074
   XY=            -98.4884   XZ=            -95.8651   YZ=             51.6167

 Normal termination of Gaussian 16 at Thu May 26 21:38:31 2022.
