 Gaussian 16, Revision C.01,
 Gaussian 16:  ES64L-G16RevC.01  3-Jul-2019

 -------------------------------------------------------------------
 # B3LYP/6-31G* guess=read geom=check nosymm integral(ultrafinegrid)
 -------------------------------------------------------------------

 ------------------------------------------------------
 Candidate Structure: Conf:112 Charge calc in gas phase
 ------------------------------------------------------
 Structure from the checkpoint file:  "conf-112.chk"
 Charge =  1 Multiplicity = 1

                          Input orientation:
 ---------------------------------------------------------------------
 Center     Atomic      Atomic             Coordinates (Angstroms)
 Number     Number       Type             X           Y           Z
 ---------------------------------------------------------------------
      1          7           0       -8.686529    1.731080    4.632095
      2          1           0       -8.783447    1.580734    5.639577
      3          1           0       -8.090590    2.612631    4.461815
      4          1           0       -9.619426    1.816789    4.220225
      5          6           0       -7.825129    0.683598    3.949098
      6          1           0       -7.671762   -0.139510    4.649602
      7          6           0       -6.499819    1.473377    3.719373
      8          6           0       -8.519575    0.177064    2.664533
      9          1           0       -9.555741   -0.079512    2.928073
     10          1           0       -8.561778    0.995741    1.935986
     11          8           0       -6.551939    2.703462    3.894825
     12          6           0       -7.842510   -1.037743    2.059946
     13          6           0       -7.122970   -0.938312    0.863665
     14          1           0       -7.040760    0.021722    0.359922
     15          6           0       -7.942748   -2.285592    2.694331
     16          1           0       -8.519429   -2.386337    3.612586
     17          6           0       -6.507656   -2.063215    0.312565
     18          1           0       -5.943405   -1.970598   -0.609879
     19          6           0       -7.328451   -3.409195    2.143890
     20          1           0       -7.417215   -4.370808    2.640764
     21          6           0       -6.608654   -3.298286    0.951628
     22          1           0       -6.127438   -4.172454    0.523771
     23          7           0       -5.427186    0.779647    3.368595
     24          1           0       -5.482601   -0.196432    3.069674
     25          6           0       -4.101760    1.362919    3.173852
     26          1           0       -4.219019    2.415869    2.905068
     27          6           0       -3.438759    0.531242    2.051765
     28          6           0       -3.264601    1.252794    4.459421
     29          1           0       -2.289932    1.728135    4.276218
     30          1           0       -3.086858    0.187600    4.674032
     31          8           0       -3.863710   -0.605334    1.827465
     32          8           0       -3.977847    1.887793    5.506252
     33          1           0       -3.425699    1.861749    6.302773
     34          7           0       -2.402697    1.108902    1.429341
     35          1           0       -2.068157    2.034815    1.684457
     36          6           0       -1.535871    0.425145    0.468825
     37          1           0       -1.410857   -0.617903    0.763096
     38          6           0       -0.183496    1.141143    0.454669
     39          6           0       -2.143875    0.462668   -0.960146
     40          1           0       -2.277915    1.524909   -1.244756
     41          1           0       -3.137762    0.003577   -0.924672
     42          8           0       -0.224816    2.420425    0.700421
     43          8           0       -1.392423   -0.254321   -1.898544
     44          7           0        0.809030    0.373162    0.129031
     45          1           0       -0.466336    0.062500   -1.868336
     46          6           0        2.102830    0.960385   -0.116719
     47          1           0        2.302602    1.857475    0.492532
     48          6           0        2.207191    1.374784   -1.610197
     49          6           0        3.172330   -0.102984    0.248166
     50          1           0        2.795760   -0.670938    1.103943
     51          1           0        3.291747   -0.835766   -0.560281
     52          8           0        1.315818    1.140393   -2.423690
     53          6           0        4.536242    0.437104    0.601939
     54          8           0        4.959457    1.557036    0.359206
     55          8           0        5.283116   -0.472927    1.251878
     56          7           0        3.349187    2.053361   -1.956512
     57          1           0        4.081445    2.080777   -1.244670
     58          6           0        3.742025    2.214436   -3.356832
     59          1           0        3.044119    1.595512   -3.937111
     60          6           0        5.135488    1.643941   -3.625130
     61          6           0        3.631673    3.669147   -3.852354
     62          1           0        4.080106    3.729042   -4.846646
     63          1           0        4.248518    4.306136   -3.204052
     64          8           0        5.898754    2.064720   -4.463253
     65          6           0        2.157914    4.144663   -3.863542
     66          1           0        1.532663    3.362863   -3.421186
     67          1           0        1.807454    4.254762   -4.895990
     68          6           0        1.891711    5.461957   -3.099254
     69          1           0        2.641833    5.633393   -2.319809
     70          1           0        1.944331    6.335915   -3.753580
     71          7           0        0.566676    5.488676   -2.461036
     72          1           0       -0.213563    5.776735   -3.035940
     73          7           0        1.225419    4.240448   -0.591625
     74          1           0        0.895044    3.500182    0.075266
     75          1           0        2.179435    4.194653   -0.918942
     76          7           0       -1.004673    4.528834   -1.006139
     77          1           0       -1.741393    4.674201   -1.681332
     78          1           0       -1.120083    3.752820   -0.337804
     79          6           0        0.274849    4.737008   -1.379822
     80          8           0        5.413377    0.572365   -2.845637
     81          1           0        6.297129    0.260451   -3.120179
     82          1           0        6.147342   -0.054620    1.430490
 ---------------------------------------------------------------------

 SCF Done:  E(RB3LYP) =  -2166.24476525     A.U. after    1 cycles

 Alpha  occ. eigenvalues --  -19.26438 -19.26346 -19.25696 -19.23742 -19.21386
 Alpha  occ. eigenvalues --  -19.20544 -19.19742 -19.18650 -19.16790 -19.16629
 Alpha  occ. eigenvalues --  -14.58696 -14.48114 -14.47436 -14.45422 -14.44224
 Alpha  occ. eigenvalues --  -14.43433 -14.42167 -14.33638 -10.42435 -10.42284
 Alpha  occ. eigenvalues --  -10.39818 -10.39325 -10.38699 -10.37063 -10.35102
 Alpha  occ. eigenvalues --  -10.33366 -10.33229 -10.33051 -10.32248 -10.30895
 Alpha  occ. eigenvalues --  -10.30671 -10.29895 -10.28456 -10.28183 -10.28140
 Alpha  occ. eigenvalues --  -10.27807 -10.27715 -10.27390 -10.27318 -10.27306
 Alpha  occ. eigenvalues --  -10.26546 -10.26123 -10.26063  -1.18217  -1.17647
 Alpha  occ. eigenvalues --   -1.17185  -1.12641  -1.11747  -1.11178  -1.11018
 Alpha  occ. eigenvalues --   -1.10143  -1.08471  -1.08157  -1.05828  -1.04574
 Alpha  occ. eigenvalues --   -1.04451  -1.01052  -0.99425  -0.98899  -0.98178
 Alpha  occ. eigenvalues --   -0.95588  -0.93224  -0.91633  -0.87454  -0.87053
 Alpha  occ. eigenvalues --   -0.84462  -0.83986  -0.83316  -0.82343  -0.79987
 Alpha  occ. eigenvalues --   -0.78731  -0.76911  -0.74673  -0.74203  -0.72884
 Alpha  occ. eigenvalues --   -0.72507  -0.71980  -0.70695  -0.69521  -0.69348
 Alpha  occ. eigenvalues --   -0.68976  -0.68743  -0.67293  -0.67080  -0.66331
 Alpha  occ. eigenvalues --   -0.65518  -0.64847  -0.63871  -0.63528  -0.62465
 Alpha  occ. eigenvalues --   -0.61005  -0.60333  -0.60043  -0.59320  -0.58826
 Alpha  occ. eigenvalues --   -0.58389  -0.57850  -0.57553  -0.56554  -0.56313
 Alpha  occ. eigenvalues --   -0.56048  -0.55957  -0.55268  -0.55101  -0.54877
 Alpha  occ. eigenvalues --   -0.54689  -0.54381  -0.54072  -0.53499  -0.53052
 Alpha  occ. eigenvalues --   -0.52708  -0.52464  -0.52405  -0.51517  -0.51092
 Alpha  occ. eigenvalues --   -0.50782  -0.50770  -0.50429  -0.49845  -0.49508
 Alpha  occ. eigenvalues --   -0.49402  -0.49214  -0.48486  -0.47895  -0.47775
 Alpha  occ. eigenvalues --   -0.47381  -0.46881  -0.46219  -0.46067  -0.45271
 Alpha  occ. eigenvalues --   -0.44784  -0.44685  -0.43985  -0.43917  -0.43464
 Alpha  occ. eigenvalues --   -0.43166  -0.43038  -0.42802  -0.42409  -0.41768
 Alpha  occ. eigenvalues --   -0.41025  -0.40529  -0.40140  -0.38898  -0.38313
 Alpha  occ. eigenvalues --   -0.37973  -0.37057  -0.36797  -0.36172  -0.35956
 Alpha  occ. eigenvalues --   -0.35094  -0.35050  -0.34343  -0.33727  -0.33635
 Alpha  occ. eigenvalues --   -0.33429  -0.32077  -0.31907  -0.31443  -0.29822
 Alpha  occ. eigenvalues --   -0.28301  -0.27806
 Alpha virt. eigenvalues --   -0.11353  -0.10199  -0.09943  -0.08954  -0.07493
 Alpha virt. eigenvalues --   -0.06259  -0.05981  -0.05932  -0.05111  -0.04561
 Alpha virt. eigenvalues --   -0.03249  -0.01968  -0.01147  -0.00906  -0.00643

 Mulliken charges:
               1
     1  N   -0.763945
     2  H    0.413936
     3  H    0.436270
     4  H    0.407973
     5  C   -0.104736
     6  H    0.218506
     7  C    0.666670
     8  C   -0.382530
     9  H    0.177064
    10  H    0.184994
    11  O   -0.543051
    12  C    0.137357
    13  C   -0.174365
    14  H    0.137197
    15  C   -0.185938
    16  H    0.124502
    17  C   -0.100626
    18  H    0.165539
    19  C   -0.123863
    20  H    0.155599
    21  C   -0.119550
    22  H    0.162236
    23  N   -0.593363
    24  H    0.386590
    25  C   -0.090068
    26  H    0.193389
    27  C    0.623371
    28  C   -0.020622
    29  H    0.153868
    30  H    0.149374
    31  O   -0.540586
    32  O   -0.619049
    33  H    0.409538
    34  N   -0.620060
    35  H    0.345128
    36  C   -0.030983
    37  H    0.185690
    38  C    0.491018
    39  C   -0.001760
    40  H    0.076339
    41  H    0.143942
    42  O   -0.688591
    43  O   -0.638907
    44  N   -0.485637
    45  H    0.436143
    46  C   -0.071920
    47  H    0.138259
    48  C    0.599216
    49  C   -0.366191
    50  H    0.208190
    51  H    0.207200
    52  O   -0.520691
    53  C    0.603031
    54  O   -0.495930
    55  O   -0.550830
    56  N   -0.644407
    57  H    0.383343
    58  C   -0.064123
    59  H    0.218266
    60  C    0.580097
    61  C   -0.269887
    62  H    0.188740
    63  H    0.144736
    64  O   -0.450120
    65  C   -0.305602
    66  H    0.196313
    67  H    0.161829
    68  C   -0.186203
    69  H    0.175690
    70  H    0.186618
    71  N   -0.583123
    72  H    0.346398
    73  N   -0.784486
    74  H    0.431737
    75  H    0.362621
    76  N   -0.776596
    77  H    0.345956
    78  H    0.395152
    79  C    0.770377
    80  O   -0.567428
    81  H    0.421574
    82  H    0.418191
 Sum of Mulliken charges =   1.00000

 Dipole moment (field-independent basis, Debye):
    X=            -24.2961    Y=             12.1115    Z=             12.7936  Tot=             30.0111
 Quadrupole moment (field-independent basis, Debye-Ang):
   XX=             36.4384   YY=           -188.7464   ZZ=           -153.1982
   XY=            -28.5254   XZ=           -126.5265   YZ=            -16.9160

 Normal termination of Gaussian 16 at Thu May 26 21:38:03 2022.
