 Gaussian 16, Revision C.01,
 Gaussian 16:  ES64L-G16RevC.01  3-Jul-2019

 -------------------------------------------------------------------
 # B3LYP/6-31G* guess=read geom=check nosymm integral(ultrafinegrid)
 -------------------------------------------------------------------

 ------------------------------------------------------
 Candidate Structure: Conf:879 Charge calc in gas phase
 ------------------------------------------------------
 Structure from the checkpoint file:  "conf-879.chk"
 Charge =  1 Multiplicity = 1

                          Input orientation:
 ---------------------------------------------------------------------
 Center     Atomic      Atomic             Coordinates (Angstroms)
 Number     Number       Type             X           Y           Z
 ---------------------------------------------------------------------
      1          7           0       -6.862202    2.140074    5.057960
      2          1           0       -6.409741    2.318738    5.958500
      3          1           0       -6.647033    2.951942    4.387372
      4          1           0       -7.868894    2.035700    5.211574
      5          6           0       -6.251324    0.977417    4.295058
      6          1           0       -5.605753    0.421668    4.978061
      7          6           0       -5.419394    1.717179    3.205328
      8          6           0       -7.369088    0.063448    3.742641
      9          1           0       -8.032690   -0.191845    4.581078
     10          1           0       -7.962904    0.631101    3.015937
     11          8           0       -5.643985    2.934706    3.064782
     12          6           0       -6.839227   -1.209295    3.112145
     13          6           0       -6.888963   -1.395723    1.725569
     14          1           0       -7.315071   -0.622414    1.090796
     15          6           0       -6.297108   -2.221575    3.917858
     16          1           0       -6.273772   -2.104453    5.000185
     17          6           0       -6.401128   -2.570977    1.153066
     18          1           0       -6.447027   -2.704163    0.076524
     19          6           0       -5.806435   -3.394311    3.345236
     20          1           0       -5.392841   -4.172636    3.979570
     21          6           0       -5.857433   -3.569732    1.960781
     22          1           0       -5.476784   -4.483559    1.514814
     23          7           0       -4.540265    1.009997    2.515118
     24          1           0       -4.430732   -0.001498    2.628522
     25          6           0       -3.698529    1.553414    1.451223
     26          1           0       -4.290871    2.207239    0.804285
     27          6           0       -3.160785    0.334216    0.692467
     28          6           0       -2.507712    2.383326    2.032054
     29          1           0       -1.949041    1.742793    2.729233
     30          1           0       -2.931434    3.223156    2.591706
     31          8           0       -3.212069   -0.786244    1.204710
     32          8           0       -1.695841    2.901510    1.013255
     33          1           0       -1.023817    2.218395    0.791106
     34          7           0       -2.611259    0.605899   -0.510810
     35          1           0       -2.466247    1.581685   -0.760637
     36          6           0       -1.649230   -0.296736   -1.114921
     37          1           0       -2.037521   -1.318395   -1.060570
     38          6           0       -0.313413   -0.222793   -0.331780
     39          6           0       -1.454877    0.124493   -2.580808
     40          1           0       -2.393977   -0.077356   -3.122299
     41          1           0       -0.665854   -0.490966   -3.039855
     42          8           0       -0.075322    0.659504    0.498548
     43          8           0       -1.131260    1.491120   -2.565654
     44          7           0        0.565787   -1.205098   -0.628946
     45          1           0        0.343175   -1.900954   -1.331591
     46          6           0        1.935544   -1.229284   -0.131138
     47          1           0        1.968794   -0.526335    0.703966
     48          6           0        2.871768   -0.787702   -1.273936
     49          6           0        2.333066   -2.629667    0.386034
     50          1           0        3.320702   -2.580170    0.850835
     51          1           0        1.607205   -2.930632    1.150659
     52          8           0        2.853872   -1.383073   -2.348862
     53          6           0        2.401262   -3.721713   -0.668610
     54          8           0        3.364170   -4.407883   -0.901256
     55          8           0        1.205368   -3.896636   -1.304635
     56          7           0        3.669561    0.274847   -1.016800
     57          1           0        3.691044    0.716547   -0.104908
     58          6           0        4.600138    0.795549   -2.008836
     59          1           0        5.144442   -0.043612   -2.457135
     60          6           0        5.592444    1.678680   -1.269492
     61          6           0        3.878106    1.558967   -3.147854
     62          1           0        3.173156    0.846999   -3.586778
     63          1           0        4.614834    1.788719   -3.923821
     64          8           0        5.482290    2.013531   -0.108304
     65          6           0        3.143270    2.834415   -2.684108
     66          1           0        3.763303    3.720791   -2.877110
     67          1           0        2.984280    2.811782   -1.598755
     68          6           0        1.761424    3.004631   -3.320426
     69          1           0        1.130898    2.156019   -3.054423
     70          1           0        1.267772    3.901874   -2.918690
     71          7           0        1.837107    3.059872   -4.778835
     72          1           0        2.400845    3.817862   -5.145695
     73          7           0       -0.311950    2.190986   -5.098972
     74          1           0       -0.949393    1.921229   -5.846576
     75          1           0       -0.884670    1.792718   -3.489450
     76          7           0        0.970866    3.052374   -6.915433
     77          1           0        1.919672    2.937181   -7.253143
     78          1           0        0.289507    2.671962   -7.559379
     79          6           0        0.766956    2.726152   -5.576816
     80          8           0        6.601053    2.073203   -2.066915
     81          1           0        7.182587    2.644465   -1.529277
     82          1           0        1.360528   -4.585597   -1.978858
 ---------------------------------------------------------------------

 SCF Done:  E(RB3LYP) =  -2166.27855955     A.U. after    1 cycles

 Alpha  occ. eigenvalues --  -19.27117 -19.26329 -19.26098 -19.21676 -19.20784
 Alpha  occ. eigenvalues --  -19.20689 -19.20258 -19.20045 -19.18894 -19.18459
 Alpha  occ. eigenvalues --  -14.59411 -14.48772 -14.43982 -14.43713 -14.43354
 Alpha  occ. eigenvalues --  -14.41956 -14.41721 -14.36536 -10.43002 -10.40528
 Alpha  occ. eigenvalues --  -10.39571 -10.38543 -10.37545 -10.37046 -10.35950
 Alpha  occ. eigenvalues --  -10.35812 -10.33959 -10.32752 -10.31648 -10.31594
 Alpha  occ. eigenvalues --  -10.31106 -10.30885 -10.30617 -10.30476 -10.29178
 Alpha  occ. eigenvalues --  -10.28924 -10.28461 -10.28299 -10.28175 -10.27760
 Alpha  occ. eigenvalues --  -10.27494 -10.25240 -10.25044  -1.18784  -1.18165
 Alpha  occ. eigenvalues --   -1.16647  -1.13334  -1.12796  -1.11676  -1.10493
 Alpha  occ. eigenvalues --   -1.09211  -1.08560  -1.07757  -1.06899  -1.05170
 Alpha  occ. eigenvalues --   -1.04917  -1.00599  -1.00473  -0.99766  -0.96307
 Alpha  occ. eigenvalues --   -0.95743  -0.92316  -0.91565  -0.87666  -0.86819
 Alpha  occ. eigenvalues --   -0.85819  -0.84553  -0.84110  -0.82212  -0.81336
 Alpha  occ. eigenvalues --   -0.79232  -0.76377  -0.74650  -0.73956  -0.73418
 Alpha  occ. eigenvalues --   -0.72562  -0.71472  -0.70440  -0.70160  -0.69091
 Alpha  occ. eigenvalues --   -0.68338  -0.68207  -0.67922  -0.66560  -0.66054
 Alpha  occ. eigenvalues --   -0.65854  -0.65254  -0.63978  -0.62735  -0.62121
 Alpha  occ. eigenvalues --   -0.60842  -0.60548  -0.60339  -0.59453  -0.59076
 Alpha  occ. eigenvalues --   -0.57992  -0.57799  -0.57138  -0.56695  -0.56450
 Alpha  occ. eigenvalues --   -0.55688  -0.55464  -0.55409  -0.55324  -0.54775
 Alpha  occ. eigenvalues --   -0.54117  -0.53942  -0.53641  -0.53278  -0.52943
 Alpha  occ. eigenvalues --   -0.52782  -0.52332  -0.51832  -0.51655  -0.51448
 Alpha  occ. eigenvalues --   -0.51219  -0.51024  -0.50678  -0.50224  -0.50109
 Alpha  occ. eigenvalues --   -0.49632  -0.49143  -0.48849  -0.48215  -0.47724
 Alpha  occ. eigenvalues --   -0.47410  -0.47058  -0.46687  -0.46054  -0.45758
 Alpha  occ. eigenvalues --   -0.45536  -0.45175  -0.44706  -0.44435  -0.44265
 Alpha  occ. eigenvalues --   -0.44082  -0.43843  -0.43450  -0.41627  -0.41171
 Alpha  occ. eigenvalues --   -0.40752  -0.40671  -0.40367  -0.39954  -0.39258
 Alpha  occ. eigenvalues --   -0.39126  -0.38140  -0.35478  -0.35329  -0.35030
 Alpha  occ. eigenvalues --   -0.34671  -0.34612  -0.34526  -0.34395  -0.33856
 Alpha  occ. eigenvalues --   -0.33585  -0.32878  -0.32654  -0.32484  -0.32165
 Alpha  occ. eigenvalues --   -0.31502  -0.29957
 Alpha virt. eigenvalues --   -0.12046  -0.10799  -0.10632  -0.09767  -0.06803
 Alpha virt. eigenvalues --   -0.06683  -0.06303  -0.05712  -0.05147  -0.04162
 Alpha virt. eigenvalues --   -0.02576  -0.01914  -0.01238  -0.00376  -0.00269

 Mulliken charges:
               1
     1  N   -0.762808
     2  H    0.414944
     3  H    0.436801
     4  H    0.411066
     5  C   -0.105265
     6  H    0.217435
     7  C    0.652934
     8  C   -0.382728
     9  H    0.180229
    10  H    0.187067
    11  O   -0.548084
    12  C    0.143082
    13  C   -0.178199
    14  H    0.141761
    15  C   -0.187115
    16  H    0.128070
    17  C   -0.110492
    18  H    0.156662
    19  C   -0.120482
    20  H    0.157710
    21  C   -0.113683
    22  H    0.159127
    23  N   -0.609431
    24  H    0.385838
    25  C   -0.074676
    26  H    0.196042
    27  C    0.612892
    28  C   -0.031249
    29  H    0.144978
    30  H    0.165917
    31  O   -0.544380
    32  O   -0.639733
    33  H    0.447169
    34  N   -0.597385
    35  H    0.371851
    36  C   -0.097006
    37  H    0.186309
    38  C    0.664465
    39  C   -0.028886
    40  H    0.135475
    41  H    0.139961
    42  O   -0.557545
    43  O   -0.679967
    44  N   -0.593265
    45  H    0.368585
    46  C   -0.093674
    47  H    0.185752
    48  C    0.657188
    49  C   -0.351544
    50  H    0.193669
    51  H    0.192372
    52  O   -0.532814
    53  C    0.596212
    54  O   -0.438178
    55  O   -0.584315
    56  N   -0.622935
    57  H    0.359794
    58  C   -0.045412
    59  H    0.204700
    60  C    0.591336
    61  C   -0.263583
    62  H    0.190718
    63  H    0.160834
    64  O   -0.469196
    65  C   -0.299314
    66  H    0.141844
    67  H    0.157521
    68  C   -0.140880
    69  H    0.187026
    70  H    0.155909
    71  N   -0.601730
    72  H    0.326860
    73  N   -0.720935
    74  H    0.286326
    75  H    0.470113
    76  N   -0.761848
    77  H    0.335863
    78  H    0.333959
    79  C    0.670240
    80  O   -0.561169
    81  H    0.424811
    82  H    0.420489
 Sum of Mulliken charges =   1.00000

 Dipole moment (field-independent basis, Debye):
    X=            -20.2279    Y=              4.9733    Z=              8.9116  Tot=             22.6565
 Quadrupole moment (field-independent basis, Debye-Ang):
   XX=            -53.8162   YY=           -229.1363   ZZ=            -92.3458
   XY=              2.3801   XZ=           -130.7328   YZ=              3.5014

 Normal termination of Gaussian 16 at Thu May 26 21:38:02 2022.
