 Gaussian 16, Revision C.01,
 Gaussian 16:  ES64L-G16RevC.01  3-Jul-2019

 -------------------------------------------------------------------
 # B3LYP/6-31G* guess=read geom=check nosymm integral(ultrafinegrid)
 -------------------------------------------------------------------

 ------------------------------------------------------
 Candidate Structure: Conf:553 Charge calc in gas phase
 ------------------------------------------------------
 Structure from the checkpoint file:  "conf-553.chk"
 Charge =  1 Multiplicity = 1

                          Input orientation:
 ---------------------------------------------------------------------
 Center     Atomic      Atomic             Coordinates (Angstroms)
 Number     Number       Type             X           Y           Z
 ---------------------------------------------------------------------
      1          7           0       -5.196702    5.283920    1.526002
      2          1           0       -4.633879    5.780516    2.214377
      3          1           0       -4.089987    4.518488    0.259303
      4          1           0       -5.892875    5.926118    1.150635
      5          6           0       -5.878830    4.165489    2.207170
      6          1           0       -6.521186    4.519399    3.030905
      7          6           0       -4.741788    3.345592    2.838076
      8          6           0       -6.753274    3.384462    1.200158
      9          1           0       -6.094144    2.926604    0.454090
     10          1           0       -7.273932    2.580069    1.735335
     11          8           0       -3.732526    3.932547    3.255024
     12          6           0       -7.781039    4.258094    0.508097
     13          6           0       -9.005589    4.550870    1.124720
     14          1           0       -9.233858    4.123002    2.098962
     15          6           0       -7.514421    4.805971   -0.755024
     16          1           0       -6.570175    4.579353   -1.245248
     17          6           0       -9.941672    5.372560    0.496631
     18          1           0      -10.888952    5.583277    0.985173
     19          6           0       -8.450655    5.628748   -1.384858
     20          1           0       -8.232876    6.039335   -2.367111
     21          6           0       -9.665847    5.914334   -0.760712
     22          1           0      -10.396962    6.549345   -1.252977
     23          7           0       -4.846759    1.998414    2.873956
     24          1           0       -5.613207    1.518897    2.414910
     25          6           0       -3.702029    1.139266    3.191190
     26          1           0       -3.140930    1.601631    4.009516
     27          6           0       -2.809454    1.054086    1.931072
     28          6           0       -4.216779   -0.247808    3.586839
     29          1           0       -4.811895   -0.165942    4.500372
     30          1           0       -3.362840   -0.908006    3.784967
     31          8           0       -2.649809   -0.003643    1.302918
     32          8           0       -5.071640   -0.768888    2.582106
     33          1           0       -4.488547   -0.974740    1.828936
     34          7           0       -2.285429    2.231132    1.521678
     35          1           0       -2.475873    3.044835    2.107570
     36          6           0       -1.870472    2.457222    0.137923
     37          1           0       -2.425258    1.747350   -0.487444
     38          6           0       -0.377240    2.130609   -0.028683
     39          6           0       -2.279432    3.869835   -0.314576
     40          1           0       -1.808008    4.061377   -1.287988
     41          1           0       -1.881765    4.614810    0.393376
     42          8           0        0.489118    2.977446   -0.340752
     43          8           0       -3.675883    3.951822   -0.446199
     44          7           0       -0.081288    0.847185    0.202506
     45          1           0       -0.855834    0.246189    0.494227
     46          6           0        1.281043    0.342909    0.269588
     47          1           0        1.832776    0.931272    1.012837
     48          6           0        1.963927    0.453967   -1.109099
     49          6           0        1.274193   -1.132180    0.692444
     50          1           0        0.657960   -1.721909    0.003355
     51          1           0        2.286917   -1.545663    0.619118
     52          8           0        1.375180    0.169528   -2.144296
     53          6           0        0.784068   -1.339976    2.115323
     54          8           0        0.431360   -0.462732    2.872888
     55          8           0        0.801427   -2.647011    2.438648
     56          7           0        3.265991    0.851125   -1.061553
     57          1           0        3.689783    1.034381   -0.162188
     58          6           0        4.148025    0.837532   -2.223459
     59          1           0        3.747457    0.089298   -2.919178
     60          6           0        5.560003    0.370361   -1.861429
     61          6           0        4.208873    2.206254   -2.941098
     62          1           0        5.118352    2.235975   -3.547582
     63          1           0        4.312161    2.979244   -2.168237
     64          8           0        6.492963    0.419291   -2.625681
     65          6           0        2.971891    2.482575   -3.825887
     66          1           0        2.127377    1.853870   -3.523279
     67          1           0        3.192594    2.206853   -4.862739
     68          6           0        2.526947    3.946426   -3.819802
     69          1           0        3.395522    4.601679   -3.970060
     70          1           0        1.814901    4.128943   -4.634982
     71          7           0        1.895773    4.277040   -2.533503
     72          1           0        1.536524    3.513811   -1.955853
     73          7           0        1.904235    6.585711   -2.851843
     74          1           0        1.847986    7.512969   -2.457057
     75          1           0        2.401122    6.491687   -3.724283
     76          7           0        1.014505    5.660679   -0.911540
     77          1           0        0.668814    4.814999   -0.442540
     78          1           0        0.612435    6.551469   -0.658877
     79          6           0        1.603669    5.504422   -2.106444
     80          8           0        5.655038   -0.107481   -0.598102
     81          1           0        6.583546   -0.386105   -0.475857
     82          1           0        0.483874   -2.721073    3.358969
 ---------------------------------------------------------------------

 SCF Done:  E(RB3LYP) =  -2166.31412403     A.U. after    2 cycles

 Alpha  occ. eigenvalues --  -19.29670 -19.28297 -19.24068 -19.23449 -19.22994
 Alpha  occ. eigenvalues --  -19.22476 -19.21909 -19.21477 -19.20967 -19.20588
 Alpha  occ. eigenvalues --  -14.51487 -14.50144 -14.49472 -14.46509 -14.46306
 Alpha  occ. eigenvalues --  -14.45488 -14.45208 -14.41537 -10.46931 -10.41896
 Alpha  occ. eigenvalues --  -10.41351 -10.40010 -10.38899 -10.38707 -10.38034
 Alpha  occ. eigenvalues --  -10.35306 -10.34233 -10.34210 -10.32755 -10.32654
 Alpha  occ. eigenvalues --  -10.32290 -10.31532 -10.31358 -10.30542 -10.29453
 Alpha  occ. eigenvalues --  -10.29212 -10.27154 -10.26390 -10.25297 -10.25190
 Alpha  occ. eigenvalues --  -10.25138 -10.25127 -10.24983  -1.20370  -1.19391
 Alpha  occ. eigenvalues --   -1.15620  -1.14948  -1.13992  -1.13404  -1.12751
 Alpha  occ. eigenvalues --   -1.11338  -1.10515  -1.09401  -1.08425  -1.04803
 Alpha  occ. eigenvalues --   -1.03717  -1.03319  -1.02961  -1.02173  -1.01040
 Alpha  occ. eigenvalues --   -0.98139  -0.91757  -0.91217  -0.89704  -0.86777
 Alpha  occ. eigenvalues --   -0.86214  -0.84968  -0.83405  -0.80571  -0.80470
 Alpha  occ. eigenvalues --   -0.79024  -0.78998  -0.77399  -0.74260  -0.73420
 Alpha  occ. eigenvalues --   -0.73257  -0.72406  -0.72049  -0.70550  -0.69678
 Alpha  occ. eigenvalues --   -0.68959  -0.68516  -0.67936  -0.67734  -0.67609
 Alpha  occ. eigenvalues --   -0.66742  -0.64449  -0.64080  -0.63779  -0.63094
 Alpha  occ. eigenvalues --   -0.62993  -0.61858  -0.61262  -0.60163  -0.60092
 Alpha  occ. eigenvalues --   -0.59338  -0.59157  -0.59053  -0.58217  -0.57717
 Alpha  occ. eigenvalues --   -0.57589  -0.57190  -0.57056  -0.56673  -0.56396
 Alpha  occ. eigenvalues --   -0.55619  -0.55284  -0.55038  -0.54533  -0.53926
 Alpha  occ. eigenvalues --   -0.53631  -0.53532  -0.53036  -0.52190  -0.52025
 Alpha  occ. eigenvalues --   -0.51634  -0.51373  -0.50896  -0.50614  -0.50480
 Alpha  occ. eigenvalues --   -0.50138  -0.49340  -0.49255  -0.48810  -0.48431
 Alpha  occ. eigenvalues --   -0.48122  -0.47859  -0.47698  -0.47502  -0.46883
 Alpha  occ. eigenvalues --   -0.46658  -0.46501  -0.46213  -0.45918  -0.45642
 Alpha  occ. eigenvalues --   -0.45129  -0.44865  -0.44784  -0.42099  -0.41949
 Alpha  occ. eigenvalues --   -0.41362  -0.41324  -0.40724  -0.40683  -0.40593
 Alpha  occ. eigenvalues --   -0.40040  -0.39407  -0.39132  -0.38032  -0.37589
 Alpha  occ. eigenvalues --   -0.37506  -0.36439  -0.35762  -0.35502  -0.35441
 Alpha  occ. eigenvalues --   -0.35259  -0.34661  -0.34100  -0.33807  -0.33170
 Alpha  occ. eigenvalues --   -0.31236  -0.30703
 Alpha virt. eigenvalues --   -0.10729  -0.09863  -0.09331  -0.08846  -0.08063
 Alpha virt. eigenvalues --   -0.07695  -0.07011  -0.06795  -0.06412  -0.06104
 Alpha virt. eigenvalues --   -0.03714  -0.02569  -0.01458  -0.00315  -0.00175

 Mulliken charges:
               1
     1  N   -0.768335
     2  H    0.337693
     3  H    0.454542
     4  H    0.336469
     5  C   -0.060203
     6  H    0.172993
     7  C    0.645472
     8  C   -0.386568
     9  H    0.178163
    10  H    0.158166
    11  O   -0.565377
    12  C    0.141423
    13  C   -0.180016
    14  H    0.130493
    15  C   -0.195536
    16  H    0.150619
    17  C   -0.127941
    18  H    0.145568
    19  C   -0.129664
    20  H    0.140279
    21  C   -0.127091
    22  H    0.144720
    23  N   -0.600070
    24  H    0.365129
    25  C   -0.092720
    26  H    0.202179
    27  C    0.642238
    28  C   -0.051435
    29  H    0.171536
    30  H    0.156187
    31  O   -0.565381
    32  O   -0.628420
    33  H    0.419330
    34  N   -0.606951
    35  H    0.385218
    36  C   -0.093727
    37  H    0.208651
    38  C    0.663299
    39  C   -0.045066
    40  H    0.134769
    41  H    0.118281
    42  O   -0.610693
    43  O   -0.665797
    44  N   -0.590805
    45  H    0.397047
    46  C   -0.025702
    47  H    0.175217
    48  C    0.626802
    49  C   -0.404596
    50  H    0.222688
    51  H    0.208266
    52  O   -0.519611
    53  C    0.587822
    54  O   -0.457898
    55  O   -0.553125
    56  N   -0.610799
    57  H    0.348579
    58  C   -0.060919
    59  H    0.222514
    60  C    0.585600
    61  C   -0.274655
    62  H    0.196136
    63  H    0.146269
    64  O   -0.438124
    65  C   -0.334225
    66  H    0.212021
    67  H    0.179728
    68  C   -0.157303
    69  H    0.165875
    70  H    0.187235
    71  N   -0.628288
    72  H    0.411030
    73  N   -0.764702
    74  H    0.377215
    75  H    0.385019
    76  N   -0.789456
    77  H    0.423562
    78  H    0.362071
    79  C    0.809745
    80  O   -0.576997
    81  H    0.430542
    82  H    0.423797
 Sum of Mulliken charges =   1.00000

 Dipole moment (field-independent basis, Debye):
    X=              2.2748    Y=             20.6616    Z=             -2.2968  Tot=             20.9129
 Quadrupole moment (field-independent basis, Debye-Ang):
   XX=           -165.2482   YY=           -103.9606   ZZ=           -212.5361
   XY=            -10.3585   XZ=            -28.5170   YZ=            -45.9987

 Normal termination of Gaussian 16 at Thu May 26 21:38:18 2022.
