 Gaussian 16, Revision C.01,
 Gaussian 16:  ES64L-G16RevC.01  3-Jul-2019

 -------------------------------------------------------------------
 # B3LYP/6-31G* guess=read geom=check nosymm integral(ultrafinegrid)
 -------------------------------------------------------------------

 ------------------------------------------------------
 Candidate Structure: Conf:474 Charge calc in gas phase
 ------------------------------------------------------
 Structure from the checkpoint file:  "conf-474.chk"
 Charge =  1 Multiplicity = 1

                          Input orientation:
 ---------------------------------------------------------------------
 Center     Atomic      Atomic             Coordinates (Angstroms)
 Number     Number       Type             X           Y           Z
 ---------------------------------------------------------------------
      1          7           0       -8.463598    1.933663    2.837748
      2          1           0       -7.809133    2.673296    3.224928
      3          1           0       -8.723855    2.198696    1.872800
      4          1           0       -9.307634    1.838918    3.406535
      5          6           0       -7.588037    0.701574    2.814292
      6          1           0       -7.862560    0.095341    3.683017
      7          6           0       -6.166969    1.294587    3.071956
      8          6           0       -7.804791   -0.110203    1.513533
      9          1           0       -7.070740   -0.922539    1.493437
     10          1           0       -8.785531   -0.595706    1.581975
     11          8           0       -6.099485    2.484785    3.399291
     12          6           0       -7.722008    0.729685    0.254778
     13          6           0       -8.887914    1.307170   -0.278831
     14          1           0       -9.859926    1.065569    0.151623
     15          6           0       -6.492349    0.973889   -0.375241
     16          1           0       -5.585873    0.504546   -0.000299
     17          6           0       -8.824427    2.130952   -1.406904
     18          1           0       -9.734901    2.559492   -1.815239
     19          6           0       -6.434677    1.790121   -1.504974
     20          1           0       -5.479498    1.961729   -1.992490
     21          6           0       -7.594987    2.377035   -2.017124
     22          1           0       -7.542180    3.009714   -2.898009
     23          7           0       -5.141614    0.444144    2.985118
     24          1           0       -5.247005   -0.425994    2.461227
     25          6           0       -3.735655    0.850971    3.037114
     26          1           0       -3.686876    1.939565    2.947240
     27          6           0       -3.063099    0.145071    1.837951
     28          6           0       -3.079746    0.432932    4.376319
     29          1           0       -2.035251    0.758271    4.375921
     30          1           0       -3.083827   -0.664091    4.456468
     31          8           0       -3.692865   -0.711277    1.202450
     32          8           0       -3.696621    1.052206    5.483160
     33          1           0       -4.495341    0.552183    5.706451
     34          7           0       -1.796202    0.502049    1.589740
     35          1           0       -1.281065    1.105833    2.232524
     36          6           0       -0.902061   -0.237021    0.708376
     37          1           0       -1.116327   -1.309144    0.787482
     38          6           0        0.518109    0.041529    1.251600
     39          6           0       -1.070173    0.153888   -0.775262
     40          1           0       -0.766766    1.205427   -0.909963
     41          1           0       -2.139487    0.077011   -1.022265
     42          8           0        0.683762    0.786447    2.222764
     43          8           0       -0.288752   -0.737545   -1.535502
     44          7           0        1.505823   -0.581903    0.584798
     45          1           0        1.258161   -1.064261   -0.279783
     46          6           0        2.919959   -0.429626    0.909362
     47          1           0        3.020003    0.457055    1.541060
     48          6           0        3.614433   -0.258987   -0.450959
     49          6           0        3.479167   -1.670222    1.645053
     50          1           0        3.323488   -2.547922    1.013945
     51          1           0        4.551683   -1.534282    1.814322
     52          8           0        3.561371   -1.163472   -1.278995
     53          6           0        2.770481   -1.877830    2.966496
     54          8           0        1.724951   -2.469877    3.117835
     55          8           0        3.432699   -1.276775    3.983534
     56          7           0        4.165795    0.957227   -0.699821
     57          1           0        4.298700    1.635371    0.039987
     58          6           0        4.661381    1.299729   -2.021668
     59          1           0        4.889796    0.358658   -2.528502
     60          6           0        5.931006    2.120518   -1.862187
     61          6           0        3.623922    2.092176   -2.876685
     62          1           0        3.943724    2.018322   -3.923477
     63          1           0        3.666155    3.157666   -2.610844
     64          8           0        6.272203    2.664479   -0.834819
     65          6           0        2.183926    1.589729   -2.693507
     66          1           0        1.860463    1.832129   -1.674603
     67          1           0        2.139469    0.500143   -2.780493
     68          6           0        1.176751    2.209296   -3.678057
     69          1           0        0.166122    2.127470   -3.271497
     70          1           0        1.382972    3.276555   -3.825573
     71          7           0        1.141122    1.581400   -4.994210
     72          1           0        1.963709    1.705738   -5.570711
     73          7           0       -0.230116   -0.161854   -4.258913
     74          1           0       -0.751431   -0.959748   -4.620667
     75          1           0       -0.232560   -0.429661   -2.482606
     76          7           0        0.660564   -0.117831   -6.474309
     77          1           0        0.698394    0.563667   -7.223267
     78          1           0        0.097507   -0.924612   -6.708665
     79          6           0        0.474768    0.392621   -5.194355
     80          8           0        6.607720    2.217995   -3.023130
     81          1           0        7.382588    2.787927   -2.853656
     82          1           0        2.894087   -1.416757    4.785344
 ---------------------------------------------------------------------

 SCF Done:  E(RB3LYP) =  -2166.26699917     A.U. after    2 cycles

 Alpha  occ. eigenvalues --  -19.26793 -19.26715 -19.24798 -19.23878 -19.22046
 Alpha  occ. eigenvalues --  -19.21103 -19.19410 -19.19205 -19.19045 -19.18321
 Alpha  occ. eigenvalues --  -14.59140 -14.49271 -14.45137 -14.43293 -14.42565
 Alpha  occ. eigenvalues --  -14.42277 -14.42227 -14.36805 -10.43656 -10.40861
 Alpha  occ. eigenvalues --  -10.39109 -10.38975 -10.37395 -10.36266 -10.36142
 Alpha  occ. eigenvalues --  -10.35755 -10.34214 -10.33949 -10.33333 -10.32070
 Alpha  occ. eigenvalues --  -10.30953 -10.30927 -10.30904 -10.30761 -10.30386
 Alpha  occ. eigenvalues --  -10.30203 -10.29969 -10.29856 -10.29756 -10.28689
 Alpha  occ. eigenvalues --  -10.26432 -10.26038 -10.24835  -1.19207  -1.17660
 Alpha  occ. eigenvalues --   -1.15593  -1.13938  -1.13263  -1.11457  -1.11172
 Alpha  occ. eigenvalues --   -1.10386  -1.08731  -1.07023  -1.06576  -1.05779
 Alpha  occ. eigenvalues --   -1.05320  -1.01697  -0.99731  -0.99472  -0.97405
 Alpha  occ. eigenvalues --   -0.96210  -0.93008  -0.91819  -0.88276  -0.87011
 Alpha  occ. eigenvalues --   -0.86084  -0.85600  -0.85169  -0.82202  -0.81497
 Alpha  occ. eigenvalues --   -0.79748  -0.76097  -0.75435  -0.74512  -0.74188
 Alpha  occ. eigenvalues --   -0.73037  -0.72567  -0.71183  -0.70556  -0.69436
 Alpha  occ. eigenvalues --   -0.68982  -0.68453  -0.67161  -0.66264  -0.65845
 Alpha  occ. eigenvalues --   -0.65339  -0.65164  -0.64829  -0.63568  -0.62135
 Alpha  occ. eigenvalues --   -0.61708  -0.61594  -0.61095  -0.59843  -0.59391
 Alpha  occ. eigenvalues --   -0.58817  -0.58327  -0.57576  -0.57025  -0.56747
 Alpha  occ. eigenvalues --   -0.56274  -0.55940  -0.55117  -0.54801  -0.54461
 Alpha  occ. eigenvalues --   -0.54331  -0.54116  -0.53882  -0.53362  -0.53072
 Alpha  occ. eigenvalues --   -0.52775  -0.52579  -0.52542  -0.52201  -0.51882
 Alpha  occ. eigenvalues --   -0.51595  -0.51253  -0.51130  -0.50670  -0.50491
 Alpha  occ. eigenvalues --   -0.49986  -0.49616  -0.49142  -0.48350  -0.48055
 Alpha  occ. eigenvalues --   -0.47321  -0.47261  -0.47023  -0.46534  -0.46049
 Alpha  occ. eigenvalues --   -0.45782  -0.45400  -0.45233  -0.45045  -0.44472
 Alpha  occ. eigenvalues --   -0.43995  -0.43338  -0.42789  -0.42640  -0.42578
 Alpha  occ. eigenvalues --   -0.41294  -0.40920  -0.40813  -0.40284  -0.39980
 Alpha  occ. eigenvalues --   -0.38792  -0.37266  -0.36869  -0.36451  -0.36054
 Alpha  occ. eigenvalues --   -0.35660  -0.35259  -0.34991  -0.34483  -0.33792
 Alpha  occ. eigenvalues --   -0.33305  -0.32950  -0.32807  -0.32481  -0.32299
 Alpha  occ. eigenvalues --   -0.30857  -0.30347
 Alpha virt. eigenvalues --   -0.12923  -0.12250  -0.12037  -0.08753  -0.07900
 Alpha virt. eigenvalues --   -0.06323  -0.05789  -0.04475  -0.04329  -0.03409
 Alpha virt. eigenvalues --   -0.03213  -0.02399  -0.01614  -0.01381  -0.00848

 Mulliken charges:
               1
     1  N   -0.758483
     2  H    0.434319
     3  H    0.404235
     4  H    0.409827
     5  C   -0.110825
     6  H    0.223913
     7  C    0.641252
     8  C   -0.393889
     9  H    0.211035
    10  H    0.189325
    11  O   -0.520243
    12  C    0.133073
    13  C   -0.235729
    14  H    0.142011
    15  C   -0.187630
    16  H    0.179216
    17  C   -0.118689
    18  H    0.164484
    19  C   -0.128136
    20  H    0.164304
    21  C   -0.121344
    22  H    0.165610
    23  N   -0.608405
    24  H    0.371084
    25  C   -0.098510
    26  H    0.210851
    27  C    0.629882
    28  C   -0.042020
    29  H    0.185204
    30  H    0.152131
    31  O   -0.549343
    32  O   -0.589956
    33  H    0.397019
    34  N   -0.620367
    35  H    0.370522
    36  C   -0.068746
    37  H    0.209561
    38  C    0.614677
    39  C   -0.013697
    40  H    0.122083
    41  H    0.140097
    42  O   -0.554916
    43  O   -0.685339
    44  N   -0.607678
    45  H    0.391908
    46  C   -0.059756
    47  H    0.187568
    48  C    0.624646
    49  C   -0.324789
    50  H    0.201322
    51  H    0.180936
    52  O   -0.524782
    53  C    0.573810
    54  O   -0.462903
    55  O   -0.558440
    56  N   -0.607322
    57  H    0.351326
    58  C   -0.040202
    59  H    0.214269
    60  C    0.581359
    61  C   -0.280855
    62  H    0.153958
    63  H    0.148200
    64  O   -0.461019
    65  C   -0.278263
    66  H    0.140958
    67  H    0.191389
    68  C   -0.145795
    69  H    0.172590
    70  H    0.149784
    71  N   -0.591555
    72  H    0.330082
    73  N   -0.716762
    74  H    0.290470
    75  H    0.470197
    76  N   -0.759969
    77  H    0.336725
    78  H    0.336132
    79  C    0.657959
    80  O   -0.561024
    81  H    0.423528
    82  H    0.412548
 Sum of Mulliken charges =   1.00000

 Dipole moment (field-independent basis, Debye):
    X=            -27.1092    Y=              7.8702    Z=              0.1293  Tot=             28.2288
 Quadrupole moment (field-independent basis, Debye-Ang):
   XX=             48.1649   YY=           -240.6835   ZZ=           -157.4260
   XY=            -28.2874   XZ=            -83.3615   YZ=            -16.0218

 Normal termination of Gaussian 16 at Thu May 26 21:38:13 2022.
