 Gaussian 16, Revision C.01,
 Gaussian 16:  ES64L-G16RevC.01  3-Jul-2019

 -------------------------------------------------------------------
 # B3LYP/6-31G* guess=read geom=check nosymm integral(ultrafinegrid)
 -------------------------------------------------------------------

 ------------------------------------------------------
 Candidate Structure: Conf:705 Charge calc in gas phase
 ------------------------------------------------------
 Structure from the checkpoint file:  "conf-705.chk"
 Charge =  1 Multiplicity = 1

                          Input orientation:
 ---------------------------------------------------------------------
 Center     Atomic      Atomic             Coordinates (Angstroms)
 Number     Number       Type             X           Y           Z
 ---------------------------------------------------------------------
      1          7           0       -6.521863    1.918199    5.400444
      2          1           0       -6.081959    1.951310    6.324182
      3          1           0       -6.299005    2.825622    4.872656
      4          1           0       -7.530522    1.792116    5.522065
      5          6           0       -5.899580    0.889284    4.472237
      6          1           0       -5.270118    0.226638    5.069519
      7          6           0       -5.042475    1.787786    3.532130
      8          6           0       -7.009644    0.084453    3.758528
      9          1           0       -7.685289   -0.306309    4.532715
     10          1           0       -7.592677    0.767910    3.129280
     11          8           0       -5.262772    3.012794    3.577722
     12          6           0       -6.470632   -1.064544    2.929423
     13          6           0       -6.515418   -1.019391    1.530952
     14          1           0       -6.944688   -0.154133    1.031325
     15          6           0       -5.924544   -2.192984    3.558829
     16          1           0       -5.904562   -2.256565    4.645650
     17          6           0       -6.019478   -2.081435    0.773996
     18          1           0       -6.063098   -2.035840   -0.309956
     19          6           0       -5.424503   -3.251910    2.802077
     20          1           0       -5.006530   -4.121295    3.300633
     21          6           0       -5.471161   -3.196569    1.407564
     22          1           0       -5.083617   -4.022034    0.818279
     23          7           0       -4.145286    1.192845    2.762638
     24          1           0       -4.040572    0.175506    2.719535
     25          6           0       -3.271039    1.892959    1.824345
     26          1           0       -3.845982    2.632253    1.258328
     27          6           0       -2.695741    0.802512    0.910971
     28          6           0       -2.115199    2.635089    2.569109
     29          1           0       -1.576737    1.904340    3.188721
     30          1           0       -2.569942    3.383027    3.225635
     31          8           0       -2.784545   -0.384259    1.228896
     32          8           0       -1.267247    3.301026    1.669959
     33          1           0       -0.577027    2.662505    1.386494
     34          7           0       -2.076031    1.255060   -0.202757
     35          1           0       -1.918427    2.255949   -0.288803
     36          6           0       -1.105803    0.437845   -0.905038
     37          1           0       -1.482890   -0.588295   -0.947683
     38          6           0        0.235285    0.454299   -0.129445
     39          6           0       -0.922351    1.005959   -2.319154
     40          1           0       -1.886291    0.920672   -2.847189
     41          1           0       -0.192661    0.391294   -2.873400
     42          8           0        0.433340    1.209369    0.833438
     43          8           0       -0.504876    2.336645   -2.172654
     44          7           0        1.179883   -0.396593   -0.575590
     45          1           0        0.991754   -0.939387   -1.408811
     46          6           0        2.515421   -0.520249    0.025695
     47          1           0        2.381949   -0.336999    1.096244
     48          6           0        3.498897    0.536382   -0.542972
     49          6           0        3.057755   -1.930597   -0.178666
     50          1           0        2.996380   -2.245954   -1.226192
     51          1           0        4.129236   -1.933601    0.050006
     52          8           0        4.525058    0.215051   -1.129622
     53          6           0        2.373627   -2.947199    0.711558
     54          8           0        1.734090   -2.697490    1.709587
     55          8           0        2.587882   -4.206475    0.268247
     56          7           0        3.105217    1.819861   -0.327923
     57          1           0        2.281674    1.973416    0.246848
     58          6           0        3.911470    2.961251   -0.714410
     59          1           0        4.712211    2.561970   -1.348827
     60          6           0        4.624313    3.623800    0.472104
     61          6           0        3.105131    4.010774   -1.503106
     62          1           0        3.722647    4.912465   -1.572788
     63          1           0        2.212193    4.283353   -0.922310
     64          8           0        5.178251    4.697937    0.407882
     65          6           0        2.694729    3.538477   -2.901810
     66          1           0        2.093032    2.626525   -2.832823
     67          1           0        3.590758    3.299924   -3.489841
     68          6           0        1.887183    4.617498   -3.635852
     69          1           0        0.916213    4.762926   -3.150381
     70          1           0        2.420874    5.573617   -3.586215
     71          7           0        1.670615    4.325424   -5.053702
     72          1           0        2.154533    4.928060   -5.703491
     73          7           0       -0.358765    3.218689   -4.752151
     74          1           0       -1.128336    2.821399   -5.288234
     75          1           0       -0.436925    2.749559   -3.086085
     76          7           0        0.419010    3.806958   -6.924813
     77          1           0        1.290150    3.797783   -7.442662
     78          1           0       -0.261616    3.176440   -7.328040
     79          6           0        0.532621    3.739799   -5.538074
     80          8           0        4.595381    2.876033    1.597554
     81          1           0        5.107023    3.375817    2.262432
     82          1           0        2.169689   -4.804748    0.916392
 ---------------------------------------------------------------------

 SCF Done:  E(RB3LYP) =  -2166.27742477     A.U. after    2 cycles

 Alpha  occ. eigenvalues --  -19.26597 -19.26109 -19.25368 -19.21555 -19.21439
 Alpha  occ. eigenvalues --  -19.21338 -19.20537 -19.19449 -19.19353 -19.17847
 Alpha  occ. eigenvalues --  -14.59693 -14.49074 -14.45566 -14.44437 -14.42371
 Alpha  occ. eigenvalues --  -14.42163 -14.41746 -14.36684 -10.43288 -10.40766
 Alpha  occ. eigenvalues --  -10.38823 -10.38157 -10.38155 -10.37533 -10.36352
 Alpha  occ. eigenvalues --  -10.35059 -10.34177 -10.33265 -10.32105 -10.31990
 Alpha  occ. eigenvalues --  -10.31375 -10.31162 -10.30830 -10.29634 -10.29375
 Alpha  occ. eigenvalues --  -10.29148 -10.28654 -10.28531 -10.28390 -10.28123
 Alpha  occ. eigenvalues --  -10.27334 -10.24678 -10.23910  -1.19049  -1.17043
 Alpha  occ. eigenvalues --   -1.16176  -1.13816  -1.13374  -1.12649  -1.09694
 Alpha  occ. eigenvalues --   -1.09274  -1.08064  -1.07535  -1.07039  -1.05507
 Alpha  occ. eigenvalues --   -1.05330  -1.01665  -1.01198  -0.98640  -0.96530
 Alpha  occ. eigenvalues --   -0.96057  -0.92564  -0.91847  -0.87858  -0.86907
 Alpha  occ. eigenvalues --   -0.85513  -0.84888  -0.84327  -0.82812  -0.80737
 Alpha  occ. eigenvalues --   -0.79482  -0.76501  -0.75128  -0.73706  -0.73682
 Alpha  occ. eigenvalues --   -0.72839  -0.72110  -0.70607  -0.70245  -0.68745
 Alpha  occ. eigenvalues --   -0.68260  -0.68128  -0.67696  -0.66661  -0.65807
 Alpha  occ. eigenvalues --   -0.65498  -0.64995  -0.64661  -0.62909  -0.61830
 Alpha  occ. eigenvalues --   -0.61626  -0.61079  -0.60682  -0.59667  -0.59658
 Alpha  occ. eigenvalues --   -0.58520  -0.58282  -0.57579  -0.57247  -0.56755
 Alpha  occ. eigenvalues --   -0.56146  -0.55749  -0.55680  -0.54820  -0.54471
 Alpha  occ. eigenvalues --   -0.53968  -0.53733  -0.53377  -0.53218  -0.53027
 Alpha  occ. eigenvalues --   -0.52715  -0.52275  -0.52150  -0.51879  -0.51649
 Alpha  occ. eigenvalues --   -0.51439  -0.51353  -0.50602  -0.50414  -0.50169
 Alpha  occ. eigenvalues --   -0.49627  -0.49499  -0.48920  -0.48118  -0.47991
 Alpha  occ. eigenvalues --   -0.46950  -0.46369  -0.45999  -0.45778  -0.45694
 Alpha  occ. eigenvalues --   -0.45474  -0.45008  -0.44843  -0.44480  -0.44163
 Alpha  occ. eigenvalues --   -0.44056  -0.43479  -0.43083  -0.41776  -0.41517
 Alpha  occ. eigenvalues --   -0.41292  -0.40815  -0.40331  -0.39601  -0.39419
 Alpha  occ. eigenvalues --   -0.38396  -0.37174  -0.36312  -0.36034  -0.35597
 Alpha  occ. eigenvalues --   -0.35147  -0.34840  -0.34740  -0.34639  -0.34447
 Alpha  occ. eigenvalues --   -0.34254  -0.33520  -0.33029  -0.32674  -0.31048
 Alpha  occ. eigenvalues --   -0.30390  -0.29891
 Alpha virt. eigenvalues --   -0.12318  -0.11013  -0.10856  -0.09986  -0.07398
 Alpha virt. eigenvalues --   -0.07243  -0.05924  -0.05418  -0.04673  -0.03964
 Alpha virt. eigenvalues --   -0.02804  -0.02157  -0.01450  -0.00883  -0.00802

 Mulliken charges:
               1
     1  N   -0.762176
     2  H    0.415855
     3  H    0.436623
     4  H    0.411733
     5  C   -0.106267
     6  H    0.218645
     7  C    0.653628
     8  C   -0.382532
     9  H    0.181183
    10  H    0.186748
    11  O   -0.547256
    12  C    0.143258
    13  C   -0.178195
    14  H    0.141308
    15  C   -0.187746
    16  H    0.129196
    17  C   -0.112193
    18  H    0.155416
    19  C   -0.118876
    20  H    0.158902
    21  C   -0.112819
    22  H    0.158573
    23  N   -0.610566
    24  H    0.387420
    25  C   -0.073181
    26  H    0.197144
    27  C    0.610470
    28  C   -0.036053
    29  H    0.149874
    30  H    0.169771
    31  O   -0.536323
    32  O   -0.640621
    33  H    0.444890
    34  N   -0.594525
    35  H    0.366866
    36  C   -0.099337
    37  H    0.191984
    38  C    0.684709
    39  C   -0.023170
    40  H    0.137126
    41  H    0.119971
    42  O   -0.571718
    43  O   -0.684729
    44  N   -0.594662
    45  H    0.341436
    46  C   -0.074071
    47  H    0.219920
    48  C    0.627982
    49  C   -0.386651
    50  H    0.183156
    51  H    0.231020
    52  O   -0.513662
    53  C    0.582811
    54  O   -0.456968
    55  O   -0.562165
    56  N   -0.611910
    57  H    0.366106
    58  C   -0.066623
    59  H    0.215368
    60  C    0.591829
    61  C   -0.281221
    62  H    0.176799
    63  H    0.148983
    64  O   -0.456408
    65  C   -0.255254
    66  H    0.159075
    67  H    0.142391
    68  C   -0.140349
    69  H    0.180495
    70  H    0.150496
    71  N   -0.602685
    72  H    0.333117
    73  N   -0.733743
    74  H    0.285145
    75  H    0.476277
    76  N   -0.759196
    77  H    0.334433
    78  H    0.333880
    79  C    0.672635
    80  O   -0.563335
    81  H    0.417042
    82  H    0.415496
 Sum of Mulliken charges =   1.00000

 Dipole moment (field-independent basis, Debye):
    X=            -22.5376    Y=              2.9474    Z=              8.9644  Tot=             24.4334
 Quadrupole moment (field-independent basis, Debye-Ang):
   XX=            -97.7643   YY=           -224.4812   ZZ=            -77.7265
   XY=            -17.4569   XZ=           -119.4868   YZ=             -3.1097

 Normal termination of Gaussian 16 at Thu May 26 21:38:15 2022.
