 Gaussian 16, Revision C.01,
 Gaussian 16:  ES64L-G16RevC.01  3-Jul-2019

 -------------------------------------------------------------------
 # B3LYP/6-31G* guess=read geom=check nosymm integral(ultrafinegrid)
 -------------------------------------------------------------------

 ------------------------------------------------------
 Candidate Structure: Conf:962 Charge calc in gas phase
 ------------------------------------------------------
 Structure from the checkpoint file:  "conf-962.chk"
 Charge =  1 Multiplicity = 1

                          Input orientation:
 ---------------------------------------------------------------------
 Center     Atomic      Atomic             Coordinates (Angstroms)
 Number     Number       Type             X           Y           Z
 ---------------------------------------------------------------------
      1          7           0       -5.065911    2.517798    7.233889
      2          1           0       -4.224494    2.619719    7.807416
      3          1           0       -5.395687    3.483223    6.949248
      4          1           0       -5.770287    1.989739    7.769755
      5          6           0       -4.792923    1.871598    5.894328
      6          1           0       -3.868177    1.296895    5.974411
      7          6           0       -4.657517    3.081390    4.934455
      8          6           0       -5.977892    0.954089    5.504300
      9          1           0       -6.845492    1.584278    5.274764
     10          1           0       -5.696153    0.453552    4.572145
     11          8           0       -5.116332    4.169424    5.352414
     12          6           0       -6.319081   -0.045841    6.589364
     13          6           0       -5.536734   -1.194639    6.781927
     14          1           0       -4.709638   -1.405396    6.107160
     15          6           0       -7.396214    0.193425    7.458315
     16          1           0       -8.045273    1.052195    7.291594
     17          6           0       -5.825637   -2.082109    7.817347
     18          1           0       -5.220272   -2.974521    7.946510
     19          6           0       -7.682419   -0.694949    8.500447
     20          1           0       -8.527464   -0.503800    9.155279
     21          6           0       -6.895794   -1.831571    8.681828
     22          1           0       -7.120286   -2.527002    9.484938
     23          7           0       -4.115456    2.830947    3.764271
     24          1           0       -3.701911    1.913973    3.501479
     25          6           0       -3.989291    3.713723    2.592460
     26          1           0       -4.989743    3.981529    2.235211
     27          6           0       -3.290689    2.811942    1.529759
     28          6           0       -3.231063    5.025538    2.870467
     29          1           0       -2.903302    5.413895    1.904373
     30          1           0       -2.330000    4.795851    3.466228
     31          8           0       -2.958689    1.635179    1.922529
     32          8           0       -4.027186    6.029000    3.461751
     33          1           0       -4.441022    5.651414    4.258086
     34          7           0       -3.143439    3.365828    0.360244
     35          1           0       -3.073717    4.802406   -1.089868
     36          6           0       -2.623130    2.516889   -0.713785
     37          1           0       -3.019673    1.491947   -0.642500
     38          6           0       -1.092786    2.413626   -0.629478
     39          6           0       -3.083690    3.155694   -2.030383
     40          1           0       -4.157242    2.954849   -2.157608
     41          1           0       -2.550746    2.733498   -2.888333
     42          8           0       -0.316229    2.991519   -1.417430
     43          8           0       -2.837054    4.557565   -2.010777
     44          7           0       -0.635350    1.666479    0.390817
     45          1           0       -1.343215    1.336001    1.059162
     46          6           0        0.777673    1.613578    0.709519
     47          1           0        1.143697    2.630147    0.892685
     48          6           0        1.582152    1.010734   -0.465790
     49          6           0        0.980517    0.767310    1.981882
     50          1           0        0.371906    1.197929    2.788204
     51          1           0        0.645979   -0.259592    1.815481
     52          8           0        1.160544    0.092902   -1.156564
     53          6           0        2.421168    0.707314    2.458003
     54          8           0        2.983812   -0.285002    2.851669
     55          8           0        3.023296    1.926515    2.402893
     56          7           0        2.803659    1.593875   -0.634960
     57          1           0        3.136900    2.233943    0.077859
     58          6           0        3.816450    1.090877   -1.545284
     59          1           0        3.622073    0.027769   -1.730544
     60          6           0        5.167806    1.207156   -0.844309
     61          6           0        3.805027    1.854519   -2.895179
     62          1           0        4.758869    1.702469   -3.410537
     63          1           0        3.731208    2.923946   -2.661042
     64          8           0        5.348701    1.751360    0.225226
     65          6           0        2.639348    1.414933   -3.811461
     66          1           0        1.850725    0.929330   -3.226278
     67          1           0        2.998159    0.656640   -4.515939
     68          6           0        2.019822    2.553567   -4.627160
     69          1           0        2.814717    3.181012   -5.055946
     70          1           0        1.433633    2.139865   -5.458574
     71          7           0        1.148811    3.376999   -3.778755
     72          1           0        0.848286    3.002562   -2.873339
     73          7           0        0.649959    4.908758   -5.462136
     74          1           0        0.261184    5.805644   -5.714932
     75          1           0        1.454471    4.610673   -5.992480
     76          7           0       -0.446582    5.013593   -3.413374
     77          1           0       -0.782451    4.518878   -2.576283
     78          1           0       -1.110796    5.670920   -3.797705
     79          6           0        0.449987    4.429326   -4.211318
     80          8           0        6.151322    0.640064   -1.564535
     81          1           0        6.979859    0.750931   -1.059533
     82          1           0        3.963044    1.790936    2.633217
 ---------------------------------------------------------------------

 SCF Done:  E(RB3LYP) =  -2166.27221652     A.U. after    3 cycles

 Alpha  occ. eigenvalues --  -19.28077 -19.26655 -19.24643 -19.22711 -19.20887
 Alpha  occ. eigenvalues --  -19.19613 -19.19440 -19.18637 -19.18574 -19.16714
 Alpha  occ. eigenvalues --  -14.57904 -14.48199 -14.46491 -14.46083 -14.45167
 Alpha  occ. eigenvalues --  -14.43180 -14.42054 -14.34873 -10.43223 -10.41135
 Alpha  occ. eigenvalues --  -10.40661 -10.39286 -10.38947 -10.35906 -10.35522
 Alpha  occ. eigenvalues --  -10.32724 -10.32553 -10.32003 -10.31942 -10.31153
 Alpha  occ. eigenvalues --  -10.31137 -10.29942 -10.29640 -10.29585 -10.29352
 Alpha  occ. eigenvalues --  -10.29240 -10.28996 -10.28942 -10.28249 -10.28164
 Alpha  occ. eigenvalues --  -10.27556 -10.27381 -10.27285  -1.19145  -1.17350
 Alpha  occ. eigenvalues --   -1.16746  -1.11967  -1.11803  -1.11148  -1.10325
 Alpha  occ. eigenvalues --   -1.09936  -1.08496  -1.07318  -1.06770  -1.06272
 Alpha  occ. eigenvalues --   -1.02330  -1.01412  -1.00145  -0.99745  -0.99182
 Alpha  occ. eigenvalues --   -0.96527  -0.93138  -0.91553  -0.88813  -0.86679
 Alpha  occ. eigenvalues --   -0.85913  -0.84875  -0.83866  -0.82757  -0.79287
 Alpha  occ. eigenvalues --   -0.77791  -0.77532  -0.75680  -0.74013  -0.72608
 Alpha  occ. eigenvalues --   -0.72209  -0.71693  -0.70976  -0.70551  -0.70288
 Alpha  occ. eigenvalues --   -0.69076  -0.68721  -0.68436  -0.67263  -0.66295
 Alpha  occ. eigenvalues --   -0.65921  -0.65298  -0.64967  -0.63297  -0.61527
 Alpha  occ. eigenvalues --   -0.61203  -0.60659  -0.60519  -0.59440  -0.58679
 Alpha  occ. eigenvalues --   -0.57964  -0.57346  -0.57153  -0.56962  -0.56843
 Alpha  occ. eigenvalues --   -0.56732  -0.56093  -0.55781  -0.55658  -0.55183
 Alpha  occ. eigenvalues --   -0.54784  -0.54729  -0.54412  -0.53966  -0.53495
 Alpha  occ. eigenvalues --   -0.53236  -0.52542  -0.52357  -0.52037  -0.51497
 Alpha  occ. eigenvalues --   -0.51159  -0.50985  -0.50723  -0.50287  -0.49410
 Alpha  occ. eigenvalues --   -0.49295  -0.48783  -0.48347  -0.48090  -0.47503
 Alpha  occ. eigenvalues --   -0.47230  -0.47106  -0.46502  -0.46320  -0.46203
 Alpha  occ. eigenvalues --   -0.45823  -0.45494  -0.44893  -0.44733  -0.44445
 Alpha  occ. eigenvalues --   -0.44390  -0.44052  -0.43335  -0.42893  -0.42207
 Alpha  occ. eigenvalues --   -0.41342  -0.40651  -0.40206  -0.38965  -0.38918
 Alpha  occ. eigenvalues --   -0.38589  -0.38188  -0.36326  -0.35711  -0.35691
 Alpha  occ. eigenvalues --   -0.35650  -0.35173  -0.34711  -0.34207  -0.33539
 Alpha  occ. eigenvalues --   -0.33290  -0.32876  -0.32119  -0.31899  -0.31159
 Alpha  occ. eigenvalues --   -0.30035  -0.27502
 Alpha virt. eigenvalues --   -0.11741  -0.11309  -0.09213  -0.08466  -0.07641
 Alpha virt. eigenvalues --   -0.07467  -0.06556  -0.05275  -0.04866  -0.03869
 Alpha virt. eigenvalues --   -0.03030  -0.01494  -0.01128  -0.00486  -0.00347

 Mulliken charges:
               1
     1  N   -0.752157
     2  H    0.411535
     3  H    0.427389
     4  H    0.402053
     5  C   -0.107966
     6  H    0.208990
     7  C    0.659682
     8  C   -0.383317
     9  H    0.193567
    10  H    0.213872
    11  O   -0.583269
    12  C    0.138682
    13  C   -0.181835
    14  H    0.147956
    15  C   -0.229256
    16  H    0.150379
    17  C   -0.122875
    18  H    0.164941
    19  C   -0.120713
    20  H    0.164662
    21  C   -0.124507
    22  H    0.166026
    23  N   -0.619721
    24  H    0.372831
    25  C   -0.048854
    26  H    0.189168
    27  C    0.530448
    28  C   -0.020129
    29  H    0.175637
    30  H    0.109424
    31  O   -0.663296
    32  O   -0.638095
    33  H    0.417202
    34  N   -0.550553
    35  H    0.414440
    36  C   -0.095364
    37  H    0.156461
    38  C    0.651192
    39  C   -0.027809
    40  H    0.139149
    41  H    0.127076
    42  O   -0.603525
    43  O   -0.661927
    44  N   -0.623964
    45  H    0.394691
    46  C   -0.015022
    47  H    0.176009
    48  C    0.620375
    49  C   -0.385946
    50  H    0.188523
    51  H    0.208370
    52  O   -0.524830
    53  C    0.570626
    54  O   -0.439270
    55  O   -0.573243
    56  N   -0.612032
    57  H    0.364367
    58  C   -0.050921
    59  H    0.211199
    60  C    0.583686
    61  C   -0.272932
    62  H    0.175283
    63  H    0.156337
    64  O   -0.473690
    65  C   -0.329697
    66  H    0.215014
    67  H    0.170027
    68  C   -0.151469
    69  H    0.157433
    70  H    0.179164
    71  N   -0.630238
    72  H    0.422553
    73  N   -0.760490
    74  H    0.369584
    75  H    0.373537
    76  N   -0.779340
    77  H    0.443932
    78  H    0.360407
    79  C    0.783275
    80  O   -0.555330
    81  H    0.427272
    82  H    0.429157
 Sum of Mulliken charges =   1.00000

 Dipole moment (field-independent basis, Debye):
    X=             -8.1755    Y=             11.1251    Z=             11.2568  Tot=             17.8136
 Quadrupole moment (field-independent basis, Debye-Ang):
   XX=           -126.2974   YY=           -217.3264   ZZ=             11.1581
   XY=             15.7393   XZ=           -151.8492   YZ=            -34.5271

 Normal termination of Gaussian 16 at Thu May 26 21:38:28 2022.
