 Gaussian 16, Revision C.01,
 Gaussian 16:  ES64L-G16RevC.01  3-Jul-2019

 -------------------------------------------------------------------
 # B3LYP/6-31G* guess=read geom=check nosymm integral(ultrafinegrid)
 -------------------------------------------------------------------

 -----------------------------------------------------
 Candidate Structure: Conf:14 Charge calc in gas phase
 -----------------------------------------------------
 Structure from the checkpoint file:  "conf-14.chk"
 Charge =  1 Multiplicity = 1

                          Input orientation:
 ---------------------------------------------------------------------
 Center     Atomic      Atomic             Coordinates (Angstroms)
 Number     Number       Type             X           Y           Z
 ---------------------------------------------------------------------
      1          7           0       -6.540853   -2.623596    5.058099
      2          1           0       -6.033828   -3.174825    5.756288
      3          1           0       -6.562793   -1.598850    5.379762
      4          1           0       -7.478531   -3.014486    4.936633
      5          6           0       -5.777143   -2.456991    3.757088
      6          1           0       -5.129045   -3.322469    3.606804
      7          6           0       -4.999126   -1.141642    4.036292
      8          6           0       -6.805010   -2.303599    2.610197
      9          1           0       -7.392539   -3.230409    2.556452
     10          1           0       -7.489426   -1.490617    2.884373
     11          8           0       -5.557036   -0.355240    4.825996
     12          6           0       -6.171724   -2.011108    1.265846
     13          6           0       -6.005400   -0.687941    0.836271
     14          1           0       -6.354511    0.130190    1.462287
     15          6           0       -5.725826   -3.055619    0.446011
     16          1           0       -5.864460   -4.089215    0.758233
     17          6           0       -5.389375   -0.408248   -0.383468
     18          1           0       -5.237152    0.624389   -0.685602
     19          6           0       -5.117081   -2.779501   -0.778556
     20          1           0       -4.778984   -3.596746   -1.409080
     21          6           0       -4.944251   -1.457126   -1.190746
     22          1           0       -4.464442   -1.244639   -2.141737
     23          7           0       -3.853441   -0.975034    3.405145
     24          1           0       -3.515862   -1.636577    2.699318
     25          6           0       -3.074811    0.269183    3.356646
     26          1           0       -3.740090    1.110417    3.554035
     27          6           0       -2.495468    0.310274    1.924647
     28          6           0       -1.935895    0.252012    4.379793
     29          1           0       -1.429970    1.225882    4.320277
     30          1           0       -1.208563   -0.522618    4.099606
     31          8           0       -2.149808   -0.829504    1.457848
     32          8           0       -2.485499    0.013427    5.671409
     33          1           0       -1.770249    0.121625    6.316308
     34          7           0       -2.419760    1.497907    1.381819
     35          1           0       -3.922505    2.658219    0.626517
     36          6           0       -1.961098    1.532964   -0.009006
     37          1           0       -2.389335    0.689410   -0.574104
     38          6           0       -0.436123    1.425549   -0.146044
     39          6           0       -2.504464    2.842209   -0.593922
     40          1           0       -2.383815    2.868536   -1.684166
     41          1           0       -1.932005    3.672771   -0.138824
     42          8           0        0.294611    2.369420   -0.518780
     43          8           0       -3.880778    2.967513   -0.305158
     44          7           0        0.044696    0.213902    0.178900
     45          1           0       -0.656518   -0.441732    0.560278
     46          6           0        1.454074   -0.126457    0.212106
     47          1           0        1.973132    0.527412    0.924413
     48          6           0        2.084474    0.033742   -1.188189
     49          6           0        1.613149   -1.583725    0.667045
     50          1           0        1.002256   -2.247183    0.046308
     51          1           0        2.653505   -1.906443    0.530452
     52          8           0        1.486942   -0.252790   -2.215457
     53          6           0        1.272711   -1.789344    2.131135
     54          8           0        1.192717   -0.918643    2.969684
     55          8           0        1.109214   -3.100912    2.410541
     56          7           0        3.363302    0.517439   -1.177350
     57          1           0        3.847615    0.688784   -0.305237
     58          6           0        4.086199    0.820553   -2.396422
     59          1           0        3.655602    0.213479   -3.197525
     60          6           0        5.549787    0.451821   -2.197787
     61          6           0        3.977758    2.328794   -2.773729
     62          1           0        4.511237    2.498348   -3.715739
     63          1           0        4.499370    2.906791   -1.997562
     64          8           0        6.071229    0.275959   -1.118703
     65          6           0        2.512349    2.773050   -2.849290
     66          1           0        1.979204    2.321895   -2.012971
     67          1           0        2.036712    2.398752   -3.761968
     68          6           0        2.299078    4.287143   -2.726568
     69          1           0        3.030344    4.723149   -2.032124
     70          1           0        2.409213    4.789255   -3.695342
     71          7           0        0.940634    4.529456   -2.208739
     72          1           0        0.550000    3.788085   -1.598872
     73          7           0        0.792874    6.751372   -2.910158
     74          1           0        0.196756    7.468538   -3.297315
     75          1           0        1.760851    6.760399   -3.192101
     76          7           0       -1.041360    5.706670   -1.969118
     77          1           0       -1.463680    4.897575   -1.526312
     78          1           0       -1.453411    6.601173   -1.743301
     79          6           0        0.249159    5.647168   -2.355634
     80          8           0        6.212456    0.397027   -3.369454
     81          1           0        7.144969    0.194369   -3.161114
     82          1           0        0.941282   -3.159755    3.370019
 ---------------------------------------------------------------------

 SCF Done:  E(RB3LYP) =  -2166.24101392     A.U. after    3 cycles

 Alpha  occ. eigenvalues --  -19.27330 -19.26217 -19.22443 -19.21733 -19.20720
 Alpha  occ. eigenvalues --  -19.20048 -19.19053 -19.18870 -19.18004 -19.14887
 Alpha  occ. eigenvalues --  -14.57045 -14.49900 -14.48676 -14.48284 -14.44921
 Alpha  occ. eigenvalues --  -14.43112 -14.40982 -14.33784 -10.45404 -10.39739
 Alpha  occ. eigenvalues --  -10.39204 -10.38992 -10.37580 -10.35449 -10.34885
 Alpha  occ. eigenvalues --  -10.33463 -10.31481 -10.31275 -10.30487 -10.30487
 Alpha  occ. eigenvalues --  -10.28784 -10.28585 -10.28339 -10.27932 -10.27692
 Alpha  occ. eigenvalues --  -10.27678 -10.26866 -10.26586 -10.26505 -10.26219
 Alpha  occ. eigenvalues --  -10.25960 -10.25704 -10.25490  -1.18276  -1.17185
 Alpha  occ. eigenvalues --   -1.15264  -1.13946  -1.10542  -1.10342  -1.09497
 Alpha  occ. eigenvalues --   -1.09232  -1.08190  -1.07357  -1.06714  -1.05328
 Alpha  occ. eigenvalues --   -1.03065  -1.02258  -1.01038  -0.99774  -0.98351
 Alpha  occ. eigenvalues --   -0.93603  -0.91908  -0.89495  -0.88903  -0.86282
 Alpha  occ. eigenvalues --   -0.84042  -0.83615  -0.81569  -0.81477  -0.78977
 Alpha  occ. eigenvalues --   -0.78290  -0.76515  -0.76209  -0.75152  -0.71801
 Alpha  occ. eigenvalues --   -0.71240  -0.70494  -0.70344  -0.70117  -0.69345
 Alpha  occ. eigenvalues --   -0.68242  -0.67732  -0.67578  -0.66363  -0.65950
 Alpha  occ. eigenvalues --   -0.65521  -0.65186  -0.64321  -0.62817  -0.62139
 Alpha  occ. eigenvalues --   -0.61687  -0.59687  -0.59629  -0.58846  -0.58439
 Alpha  occ. eigenvalues --   -0.58204  -0.57797  -0.56895  -0.56433  -0.56184
 Alpha  occ. eigenvalues --   -0.55887  -0.55331  -0.54976  -0.54771  -0.54552
 Alpha  occ. eigenvalues --   -0.54474  -0.53888  -0.53394  -0.53289  -0.52956
 Alpha  occ. eigenvalues --   -0.52846  -0.52164  -0.51156  -0.51022  -0.50083
 Alpha  occ. eigenvalues --   -0.50061  -0.49570  -0.49415  -0.48966  -0.48837
 Alpha  occ. eigenvalues --   -0.48612  -0.47939  -0.47688  -0.47253  -0.46939
 Alpha  occ. eigenvalues --   -0.46511  -0.46192  -0.46009  -0.45509  -0.45186
 Alpha  occ. eigenvalues --   -0.45021  -0.44465  -0.43620  -0.43189  -0.42962
 Alpha  occ. eigenvalues --   -0.42782  -0.42185  -0.41775  -0.41671  -0.41228
 Alpha  occ. eigenvalues --   -0.40718  -0.40619  -0.39437  -0.39339  -0.38466
 Alpha  occ. eigenvalues --   -0.38343  -0.37925  -0.37270  -0.35461  -0.34991
 Alpha  occ. eigenvalues --   -0.34419  -0.33557  -0.32728  -0.32539  -0.32433
 Alpha  occ. eigenvalues --   -0.32034  -0.31949  -0.31750  -0.31301  -0.30026
 Alpha  occ. eigenvalues --   -0.28531  -0.26679
 Alpha virt. eigenvalues --   -0.09673  -0.09115  -0.08159  -0.07783  -0.07184
 Alpha virt. eigenvalues --   -0.06697  -0.05819  -0.05485  -0.04770  -0.04136
 Alpha virt. eigenvalues --   -0.03291  -0.02051  -0.01045   0.00102   0.00216

 Mulliken charges:
               1
     1  N   -0.752931
     2  H    0.410867
     3  H    0.429020
     4  H    0.404146
     5  C   -0.108799
     6  H    0.202424
     7  C    0.672812
     8  C   -0.380703
     9  H    0.169238
    10  H    0.182361
    11  O   -0.555364
    12  C    0.154066
    13  C   -0.181819
    14  H    0.142467
    15  C   -0.185403
    16  H    0.124296
    17  C   -0.127207
    18  H    0.171352
    19  C   -0.119840
    20  H    0.147402
    21  C   -0.118626
    22  H    0.148552
    23  N   -0.583615
    24  H    0.367658
    25  C   -0.040548
    26  H    0.178727
    27  C    0.543179
    28  C   -0.036699
    29  H    0.151307
    30  H    0.145988
    31  O   -0.658454
    32  O   -0.627051
    33  H    0.398897
    34  N   -0.564872
    35  H    0.403836
    36  C   -0.100783
    37  H    0.160204
    38  C    0.655410
    39  C   -0.034555
    40  H    0.126408
    41  H    0.108881
    42  O   -0.599043
    43  O   -0.634753
    44  N   -0.623246
    45  H    0.405133
    46  C   -0.016093
    47  H    0.171791
    48  C    0.623606
    49  C   -0.398962
    50  H    0.211711
    51  H    0.201998
    52  O   -0.521937
    53  C    0.595231
    54  O   -0.458717
    55  O   -0.559180
    56  N   -0.609791
    57  H    0.345250
    58  C   -0.042873
    59  H    0.210253
    60  C    0.584936
    61  C   -0.278015
    62  H    0.171394
    63  H    0.144527
    64  O   -0.460396
    65  C   -0.326561
    66  H    0.220381
    67  H    0.174351
    68  C   -0.146878
    69  H    0.175919
    70  H    0.162030
    71  N   -0.629174
    72  H    0.422986
    73  N   -0.762406
    74  H    0.376458
    75  H    0.381384
    76  N   -0.779223
    77  H    0.404486
    78  H    0.369610
    79  C    0.795968
    80  O   -0.560791
    81  H    0.424160
    82  H    0.412251
 Sum of Mulliken charges =   1.00000

 Dipole moment (field-independent basis, Debye):
    X=             -9.2298    Y=              5.4156    Z=              4.0304  Tot=             11.4351
 Quadrupole moment (field-independent basis, Debye-Ang):
   XX=           -108.3535   YY=            -98.0391   ZZ=           -155.2452
   XY=             79.9892   XZ=            -97.7915   YZ=           -103.7381

 Normal termination of Gaussian 16 at Thu May 26 21:39:03 2022.
