 Gaussian 16, Revision C.01,
 Gaussian 16:  ES64L-G16RevC.01  3-Jul-2019

 -------------------------------------------------------------------
 # B3LYP/6-31G* guess=read geom=check nosymm integral(ultrafinegrid)
 -------------------------------------------------------------------

 ------------------------------------------------------
 Candidate Structure: Conf:684 Charge calc in gas phase
 ------------------------------------------------------
 Structure from the checkpoint file:  "conf-684.chk"
 Charge =  1 Multiplicity = 1

                          Input orientation:
 ---------------------------------------------------------------------
 Center     Atomic      Atomic             Coordinates (Angstroms)
 Number     Number       Type             X           Y           Z
 ---------------------------------------------------------------------
      1          7           0       -5.705421    2.099623    1.909749
      2          1           0       -6.423033    2.659429    1.440348
      3          1           0       -5.658734    2.315605    2.912671
      4          1           0       -4.724352    2.318184    1.490203
      5          6           0       -5.991362    0.627682    1.760617
      6          1           0       -6.988748    0.455801    2.180674
      7          6           0       -4.946815   -0.033773    2.686925
      8          6           0       -5.968469    0.241164    0.270380
      9          1           0       -4.945667    0.348694   -0.106290
     10          1           0       -6.246872   -0.817533    0.195151
     11          8           0       -4.575059    0.602098    3.678020
     12          6           0       -6.928848    1.075094   -0.559964
     13          6           0       -8.312506    0.854342   -0.482024
     14          1           0       -8.700324    0.056035    0.148162
     15          6           0       -6.448770    2.091298   -1.399300
     16          1           0       -5.377596    2.263690   -1.489712
     17          6           0       -9.198773    1.632657   -1.225959
     18          1           0      -10.266378    1.443564   -1.163453
     19          6           0       -7.338592    2.868456   -2.145990
     20          1           0       -6.954426    3.642065   -2.804817
     21          6           0       -8.712631    2.643003   -2.059594
     22          1           0       -9.402248    3.243903   -2.644935
     23          7           0       -4.475206   -1.249222    2.349237
     24          1           0       -4.740708   -1.639234    1.453035
     25          6           0       -3.258105   -1.817912    2.962971
     26          1           0       -3.272744   -1.573283    4.027602
     27          6           0       -2.056228   -1.136922    2.264985
     28          6           0       -3.223984   -3.342592    2.771429
     29          1           0       -3.398569   -3.580128    1.709487
     30          1           0       -4.027739   -3.797754    3.357304
     31          8           0       -1.374238   -1.730655    1.425157
     32          8           0       -2.008206   -3.874353    3.234528
     33          1           0       -1.333173   -3.603879    2.588328
     34          7           0       -1.903292    0.175672    2.559841
     35          1           0       -2.502819    0.557862    3.284276
     36          6           0       -1.287906    1.130194    1.634353
     37          1           0       -1.368413    0.694254    0.630232
     38          6           0        0.224037    1.354721    1.829478
     39          6           0       -2.068724    2.446933    1.640351
     40          1           0       -1.443619    3.233311    1.212209
     41          1           0       -2.314578    2.747985    2.666503
     42          8           0        0.701833    2.476921    1.924241
     43          8           0       -3.278460    2.319318    0.879238
     44          7           0        0.975598    0.209363    1.758593
     45          1           0        0.454135   -0.604223    1.433162
     46          6           0        2.308652    0.353623    1.188323
     47          1           0        2.822193    1.151781    1.728023
     48          6           0        2.139055    0.791660   -0.296807
     49          6           0        3.090167   -0.958586    1.357656
     50          1           0        2.885640   -1.368311    2.353925
     51          1           0        2.765631   -1.724152    0.641215
     52          8           0        1.048363    0.665080   -0.866458
     53          6           0        4.589490   -0.783375    1.235711
     54          8           0        5.162695    0.258616    0.987205
     55          8           0        5.237710   -1.940402    1.457880
     56          7           0        3.213537    1.335066   -0.899016
     57          1           0        4.113481    1.379574   -0.422281
     58          6           0        3.131493    1.785829   -2.279094
     59          1           0        2.834074    0.938333   -2.912047
     60          6           0        4.530238    2.189805   -2.720055
     61          6           0        2.089942    2.932347   -2.489963
     62          1           0        2.595547    3.849636   -2.812443
     63          1           0        1.631607    3.146894   -1.521696
     64          8           0        5.511296    2.195207   -2.013096
     65          6           0        1.016038    2.550005   -3.517954
     66          1           0        0.635570    1.548815   -3.282927
     67          1           0        1.466017    2.496820   -4.516365
     68          6           0       -0.158302    3.527647   -3.586858
     69          1           0        0.236833    4.547613   -3.704575
     70          1           0       -0.772755    3.310274   -4.471070
     71          7           0       -0.981282    3.458209   -2.374892
     72          1           0       -0.851062    2.651718   -1.776788
     73          7           0       -2.350502    5.191617   -3.079200
     74          1           0       -3.060635    5.863698   -2.824773
     75          1           0       -1.554691    5.604521   -3.545955
     76          7           0       -2.964546    3.864782   -1.222151
     77          1           0       -3.131427    2.838430   -0.001748
     78          1           0       -3.708148    4.557795   -1.161967
     79          6           0       -2.123206    4.169759   -2.181068
     80          8           0        4.542426    2.542915   -4.023135
     81          1           0        5.461773    2.789823   -4.240322
     82          1           0        6.192817   -1.753900    1.373652
 ---------------------------------------------------------------------

 SCF Done:  E(RB3LYP) =  -2166.28847635     A.U. after    1 cycles

 Alpha  occ. eigenvalues --  -19.27549 -19.27296 -19.25880 -19.25109 -19.23045
 Alpha  occ. eigenvalues --  -19.22515 -19.22111 -19.21990 -19.19963 -19.19420
 Alpha  occ. eigenvalues --  -14.56028 -14.50135 -14.46329 -14.45444 -14.44908
 Alpha  occ. eigenvalues --  -14.43227 -14.42681 -14.40046 -10.43254 -10.40356
 Alpha  occ. eigenvalues --  -10.40008 -10.39760 -10.39627 -10.39333 -10.36716
 Alpha  occ. eigenvalues --  -10.36274 -10.34379 -10.33187 -10.33118 -10.32925
 Alpha  occ. eigenvalues --  -10.32430 -10.31912 -10.31651 -10.31299 -10.31262
 Alpha  occ. eigenvalues --  -10.29844 -10.29748 -10.29407 -10.29349 -10.29156
 Alpha  occ. eigenvalues --  -10.28790 -10.27095 -10.26975  -1.18523  -1.18479
 Alpha  occ. eigenvalues --   -1.18217  -1.14662  -1.12263  -1.11910  -1.10820
 Alpha  occ. eigenvalues --   -1.10428  -1.10293  -1.09638  -1.09486  -1.08457
 Alpha  occ. eigenvalues --   -1.06158  -1.02778  -1.00139  -0.99776  -0.98997
 Alpha  occ. eigenvalues --   -0.96653  -0.94991  -0.92113  -0.88531  -0.88000
 Alpha  occ. eigenvalues --   -0.86802  -0.85156  -0.84956  -0.83999  -0.83075
 Alpha  occ. eigenvalues --   -0.78701  -0.77613  -0.76050  -0.75357  -0.72810
 Alpha  occ. eigenvalues --   -0.72410  -0.71694  -0.71256  -0.71090  -0.70095
 Alpha  occ. eigenvalues --   -0.69837  -0.69319  -0.69008  -0.68384  -0.67116
 Alpha  occ. eigenvalues --   -0.65780  -0.65324  -0.64584  -0.64458  -0.62918
 Alpha  occ. eigenvalues --   -0.62327  -0.61924  -0.61726  -0.60840  -0.60680
 Alpha  occ. eigenvalues --   -0.60176  -0.58557  -0.58152  -0.57768  -0.57693
 Alpha  occ. eigenvalues --   -0.57193  -0.56759  -0.56593  -0.56262  -0.56224
 Alpha  occ. eigenvalues --   -0.55993  -0.55748  -0.55386  -0.54460  -0.53954
 Alpha  occ. eigenvalues --   -0.53683  -0.53503  -0.53277  -0.52871  -0.52520
 Alpha  occ. eigenvalues --   -0.52403  -0.52051  -0.51857  -0.51531  -0.51077
 Alpha  occ. eigenvalues --   -0.50717  -0.50443  -0.49901  -0.49522  -0.49384
 Alpha  occ. eigenvalues --   -0.48692  -0.48525  -0.48409  -0.47875  -0.47236
 Alpha  occ. eigenvalues --   -0.46857  -0.46562  -0.46373  -0.45245  -0.45048
 Alpha  occ. eigenvalues --   -0.44854  -0.44534  -0.44178  -0.44010  -0.42915
 Alpha  occ. eigenvalues --   -0.42821  -0.42342  -0.42049  -0.40851  -0.39912
 Alpha  occ. eigenvalues --   -0.39755  -0.39598  -0.39069  -0.38686  -0.37458
 Alpha  occ. eigenvalues --   -0.36308  -0.36187  -0.35874  -0.35650  -0.35590
 Alpha  occ. eigenvalues --   -0.35349  -0.35240  -0.34308  -0.33194  -0.33097
 Alpha  occ. eigenvalues --   -0.32469  -0.31982
 Alpha virt. eigenvalues --   -0.13322  -0.11246  -0.10853  -0.08708  -0.07436
 Alpha virt. eigenvalues --   -0.07044  -0.06507  -0.06290  -0.05209  -0.04955
 Alpha virt. eigenvalues --   -0.04055  -0.03401  -0.01601  -0.01325  -0.00954

 Mulliken charges:
               1
     1  N   -0.767687
     2  H    0.396982
     3  H    0.409237
     4  H    0.453255
     5  C   -0.109817
     6  H    0.222070
     7  C    0.670674
     8  C   -0.396721
     9  H    0.200242
    10  H    0.182469
    11  O   -0.546469
    12  C    0.123644
    13  C   -0.184729
    14  H    0.140436
    15  C   -0.217157
    16  H    0.162992
    17  C   -0.125767
    18  H    0.162724
    19  C   -0.129348
    20  H    0.151244
    21  C   -0.123296
    22  H    0.162069
    23  N   -0.606082
    24  H    0.357019
    25  C   -0.100708
    26  H    0.214076
    27  C    0.622169
    28  C   -0.032875
    29  H    0.134560
    30  H    0.172597
    31  O   -0.537863
    32  O   -0.607258
    33  H    0.418052
    34  N   -0.603713
    35  H    0.369790
    36  C   -0.087978
    37  H    0.204358
    38  C    0.630265
    39  C   -0.088645
    40  H    0.198708
    41  H    0.151882
    42  O   -0.511136
    43  O   -0.719799
    44  N   -0.604877
    45  H    0.362112
    46  C   -0.062061
    47  H    0.212193
    48  C    0.618708
    49  C   -0.388096
    50  H    0.212860
    51  H    0.199469
    52  O   -0.564943
    53  C    0.599912
    54  O   -0.463710
    55  O   -0.554570
    56  N   -0.643285
    57  H    0.400067
    58  C    0.005594
    59  H    0.193446
    60  C    0.558216
    61  C   -0.274019
    62  H    0.160821
    63  H    0.182801
    64  O   -0.445174
    65  C   -0.319680
    66  H    0.179064
    67  H    0.168750
    68  C   -0.130724
    69  H    0.148870
    70  H    0.171974
    71  N   -0.607971
    72  H    0.357584
    73  N   -0.756803
    74  H    0.341671
    75  H    0.351070
    76  N   -0.779997
    77  H    0.470225
    78  H    0.286822
    79  C    0.714885
    80  O   -0.568132
    81  H    0.426280
    82  H    0.426187
 Sum of Mulliken charges =   1.00000

 Dipole moment (field-independent basis, Debye):
    X=            -18.9488    Y=              9.8506    Z=             -2.8251  Tot=             21.5423
 Quadrupole moment (field-independent basis, Debye-Ang):
   XX=            -73.1452   YY=           -193.3048   ZZ=           -217.2011
   XY=            -47.7739   XZ=            -26.5739   YZ=            -29.7452

 Normal termination of Gaussian 16 at Thu May 26 21:38:06 2022.
