 Gaussian 16, Revision C.01,
 Gaussian 16:  ES64L-G16RevC.01  3-Jul-2019

 -------------------------------------------------------------------
 # B3LYP/6-31G* guess=read geom=check nosymm integral(ultrafinegrid)
 -------------------------------------------------------------------

 -----------------------------------------------------
 Candidate Structure: Conf:34 Charge calc in gas phase
 -----------------------------------------------------
 Structure from the checkpoint file:  "conf-34.chk"
 Charge =  1 Multiplicity = 1

                          Input orientation:
 ---------------------------------------------------------------------
 Center     Atomic      Atomic             Coordinates (Angstroms)
 Number     Number       Type             X           Y           Z
 ---------------------------------------------------------------------
      1          7           0       -8.500496    2.584659    4.473978
      2          1           0       -8.619368    2.140200    5.388514
      3          1           0       -7.776799    3.350171    4.571163
      4          1           0       -9.415996    2.930810    4.150561
      5          6           0       -7.865633    1.667651    3.455291
      6          1           0       -8.044042    0.636895    3.767651
      7          6           0       -6.365234    2.058555    3.527082
      8          6           0       -8.473974    1.935480    2.056413
      9          1           0       -8.140488    2.922926    1.715258
     10          1           0       -8.038257    1.201523    1.369762
     11          8           0       -6.090672    3.146133    4.047602
     12          6           0       -9.986710    1.857266    2.059082
     13          6           0      -10.643902    0.617726    2.069977
     14          1           0      -10.066048   -0.302532    2.014575
     15          6           0      -10.754454    3.032300    2.108362
     16          1           0      -10.263516    4.002840    2.048242
     17          6           0      -12.035319    0.555502    2.127474
     18          1           0      -12.532007   -0.410258    2.121746
     19          6           0      -12.150562    2.968854    2.171324
     20          1           0      -12.731570    3.886041    2.194659
     21          6           0      -12.791149    1.730625    2.183376
     22          1           0      -13.874883    1.678411    2.224566
     23          7           0       -5.514155    1.192152    2.984834
     24          1           0       -5.836325    0.401500    2.424842
     25          6           0       -4.077044    1.401169    2.856423
     26          1           0       -3.876641    2.476290    2.854631
     27          6           0       -3.684718    0.731647    1.519006
     28          6           0       -3.311913    0.743917    4.019355
     29          1           0       -2.239961    0.953913    3.893657
     30          1           0       -3.449831   -0.347844    3.964483
     31          8           0       -4.469310   -0.053051    0.979765
     32          8           0       -3.821845    1.277705    5.226208
     33          1           0       -3.264718    0.962628    5.954469
     34          7           0       -2.463671    1.040974    1.055719
     35          1           0       -1.812633    1.598938    1.608144
     36          6           0       -1.803315    0.327114   -0.026890
     37          1           0       -2.101290   -0.726791   -0.004802
     38          6           0       -0.292712    0.459291    0.251819
     39          6           0       -2.182339    0.890729   -1.413685
     40          1           0       -1.862650    1.943674   -1.472722
     41          1           0       -3.278583    0.864832   -1.495860
     42          8           0        0.111141    1.185426    1.169558
     43          8           0       -1.560821    0.085766   -2.389539
     44          7           0        0.507706   -0.244398   -0.571456
     45          1           0        0.070595   -0.549451   -1.442411
     46          6           0        1.967831   -0.140529   -0.506989
     47          1           0        2.210813    0.069407    0.538210
     48          6           0        2.450420    1.026858   -1.399765
     49          6           0        2.616196   -1.455264   -0.928571
     50          1           0        2.245579   -1.795262   -1.900785
     51          1           0        3.691921   -1.300833   -1.070860
     52          8           0        3.138736    0.847221   -2.398604
     53          6           0        2.422923   -2.543360    0.106548
     54          8           0        2.105782   -2.374669    1.263590
     55          8           0        2.680753   -3.764921   -0.414422
     56          7           0        1.994140    2.247275   -1.004302
     57          1           0        1.530426    2.347753   -0.104647
     58          6           0        2.273475    3.451113   -1.762718
     59          1           0        3.184058    3.278269   -2.344318
     60          6           0        2.513435    4.590784   -0.781739
     61          6           0        1.125324    3.839504   -2.731887
     62          1           0        1.399165    4.785932   -3.215304
     63          1           0        0.220999    4.035837   -2.138037
     64          8           0        2.170111    4.588787    0.379839
     65          6           0        0.831820    2.776496   -3.799142
     66          1           0        0.518080    1.838139   -3.330719
     67          1           0        1.750130    2.557957   -4.358876
     68          6           0       -0.265426    3.242297   -4.768986
     69          1           0       -1.227875    3.319952   -4.255842
     70          1           0       -0.019693    4.239246   -5.157523
     71          7           0       -0.463804    2.367812   -5.917173
     72          1           0        0.310241    2.295219   -6.564491
     73          7           0       -2.068504    0.995816   -4.914385
     74          1           0       -2.787470    0.322267   -5.177472
     75          1           0       -1.679927    0.505738   -3.292432
     76          7           0       -1.386202    0.687082   -7.180489
     77          1           0       -1.311046    1.280150   -7.998319
     78          1           0       -2.080319   -0.041158   -7.280582
     79          6           0       -1.355156    1.328148   -5.947629
     80          8           0        3.119034    5.639303   -1.377489
     81          1           0        3.207019    6.336124   -0.699213
     82          1           0        2.581854   -4.403376    0.317267
 ---------------------------------------------------------------------

 SCF Done:  E(RB3LYP) =  -2166.27830114     A.U. after    2 cycles

 Alpha  occ. eigenvalues --  -19.26039 -19.25627 -19.24735 -19.23850 -19.21534
 Alpha  occ. eigenvalues --  -19.20423 -19.19700 -19.19511 -19.19153 -19.17289
 Alpha  occ. eigenvalues --  -14.58976 -14.48599 -14.44956 -14.42759 -14.42013
 Alpha  occ. eigenvalues --  -14.41945 -14.41296 -14.36432 -10.42631 -10.40091
 Alpha  occ. eigenvalues --  -10.38644 -10.38368 -10.37438 -10.36335 -10.36108
 Alpha  occ. eigenvalues --  -10.34434 -10.33945 -10.33782 -10.33428 -10.32081
 Alpha  occ. eigenvalues --  -10.31006 -10.30831 -10.30476 -10.30278 -10.30181
 Alpha  occ. eigenvalues --  -10.30068 -10.29838 -10.29811 -10.29628 -10.28221
 Alpha  occ. eigenvalues --  -10.25858 -10.25614 -10.24334  -1.18210  -1.16967
 Alpha  occ. eigenvalues --   -1.15663  -1.13637  -1.12893  -1.11432  -1.11290
 Alpha  occ. eigenvalues --   -1.09159  -1.07996  -1.07046  -1.06666  -1.05167
 Alpha  occ. eigenvalues --   -1.05019  -1.01548  -0.99676  -0.98041  -0.97465
 Alpha  occ. eigenvalues --   -0.95851  -0.92822  -0.91500  -0.88365  -0.86480
 Alpha  occ. eigenvalues --   -0.85856  -0.85640  -0.84959  -0.82200  -0.80914
 Alpha  occ. eigenvalues --   -0.79235  -0.75576  -0.75078  -0.73893  -0.73262
 Alpha  occ. eigenvalues --   -0.72800  -0.72437  -0.71452  -0.70019  -0.69965
 Alpha  occ. eigenvalues --   -0.68486  -0.67603  -0.66963  -0.66181  -0.65629
 Alpha  occ. eigenvalues --   -0.64691  -0.64537  -0.63878  -0.62851  -0.62526
 Alpha  occ. eigenvalues --   -0.61320  -0.61131  -0.60509  -0.59469  -0.59232
 Alpha  occ. eigenvalues --   -0.58543  -0.57624  -0.57189  -0.57121  -0.56393
 Alpha  occ. eigenvalues --   -0.55702  -0.55239  -0.55099  -0.54731  -0.54416
 Alpha  occ. eigenvalues --   -0.54065  -0.53759  -0.53478  -0.53216  -0.53154
 Alpha  occ. eigenvalues --   -0.52885  -0.52735  -0.52537  -0.52099  -0.51409
 Alpha  occ. eigenvalues --   -0.50930  -0.50903  -0.50696  -0.50355  -0.50260
 Alpha  occ. eigenvalues --   -0.49691  -0.49208  -0.48694  -0.48456  -0.47278
 Alpha  occ. eigenvalues --   -0.46959  -0.46544  -0.46257  -0.45920  -0.45756
 Alpha  occ. eigenvalues --   -0.45608  -0.45316  -0.44699  -0.44272  -0.43834
 Alpha  occ. eigenvalues --   -0.43645  -0.43609  -0.43005  -0.42757  -0.41873
 Alpha  occ. eigenvalues --   -0.41327  -0.40395  -0.40225  -0.39726  -0.38262
 Alpha  occ. eigenvalues --   -0.38076  -0.37019  -0.36546  -0.36467  -0.36045
 Alpha  occ. eigenvalues --   -0.35802  -0.35364  -0.34659  -0.34143  -0.33931
 Alpha  occ. eigenvalues --   -0.33860  -0.32855  -0.32495  -0.32322  -0.31077
 Alpha  occ. eigenvalues --   -0.29992  -0.29801
 Alpha virt. eigenvalues --   -0.12724  -0.12168  -0.10385  -0.09324  -0.07384
 Alpha virt. eigenvalues --   -0.06106  -0.05374  -0.04248  -0.03971  -0.02876
 Alpha virt. eigenvalues --   -0.02415  -0.02260  -0.01576  -0.01080  -0.00489

 Mulliken charges:
               1
     1  N   -0.750492
     2  H    0.415829
     3  H    0.427360
     4  H    0.403349
     5  C   -0.114557
     6  H    0.212009
     7  C    0.671516
     8  C   -0.386402
     9  H    0.193570
    10  H    0.210177
    11  O   -0.529293
    12  C    0.139523
    13  C   -0.181047
    14  H    0.146773
    15  C   -0.229348
    16  H    0.150291
    17  C   -0.122571
    18  H    0.167223
    19  C   -0.120406
    20  H    0.166664
    21  C   -0.123906
    22  H    0.168649
    23  N   -0.595448
    24  H    0.366153
    25  C   -0.092419
    26  H    0.205890
    27  C    0.623029
    28  C   -0.022246
    29  H    0.162888
    30  H    0.144852
    31  O   -0.542189
    32  O   -0.615557
    33  H    0.412783
    34  N   -0.619320
    35  H    0.367895
    36  C   -0.069291
    37  H    0.199396
    38  C    0.615788
    39  C   -0.012145
    40  H    0.126858
    41  H    0.149168
    42  O   -0.555558
    43  O   -0.690221
    44  N   -0.596272
    45  H    0.378157
    46  C   -0.081464
    47  H    0.213869
    48  C    0.630929
    49  C   -0.369182
    50  H    0.189366
    51  H    0.215576
    52  O   -0.525368
    53  C    0.587106
    54  O   -0.460990
    55  O   -0.564284
    56  N   -0.627500
    57  H    0.372307
    58  C   -0.037458
    59  H    0.202572
    60  C    0.578670
    61  C   -0.272467
    62  H    0.160665
    63  H    0.140178
    64  O   -0.459998
    65  C   -0.272621
    66  H    0.162870
    67  H    0.155436
    68  C   -0.129037
    69  H    0.173965
    70  H    0.149166
    71  N   -0.598357
    72  H    0.333151
    73  N   -0.729954
    74  H    0.287943
    75  H    0.467858
    76  N   -0.756656
    77  H    0.337450
    78  H    0.335410
    79  C    0.662882
    80  O   -0.562316
    81  H    0.419593
    82  H    0.413590
 Sum of Mulliken charges =   1.00000

 Dipole moment (field-independent basis, Debye):
    X=            -33.9843    Y=              9.3082    Z=              6.4414  Tot=             35.8199
 Quadrupole moment (field-independent basis, Debye-Ang):
   XX=             78.2704   YY=           -200.0752   ZZ=           -121.7157
   XY=            -60.4725   XZ=           -114.2207   YZ=              5.9035

 Normal termination of Gaussian 16 at Thu May 26 21:38:30 2022.
