 Gaussian 16, Revision C.01,
 Gaussian 16:  ES64L-G16RevC.01  3-Jul-2019

 -------------------------------------------------------------------
 # B3LYP/6-31G* guess=read geom=check nosymm integral(ultrafinegrid)
 -------------------------------------------------------------------

 ------------------------------------------------------
 Candidate Structure: Conf:950 Charge calc in gas phase
 ------------------------------------------------------
 Structure from the checkpoint file:  "conf-950.chk"
 Charge =  1 Multiplicity = 1

                          Input orientation:
 ---------------------------------------------------------------------
 Center     Atomic      Atomic             Coordinates (Angstroms)
 Number     Number       Type             X           Y           Z
 ---------------------------------------------------------------------
      1          7           0       -6.645081    0.665480    5.921147
      2          1           0       -6.177616    0.533023    6.822362
      3          1           0       -6.473639    1.656853    5.602159
      4          1           0       -7.647117    0.447088    6.033853
      5          6           0       -6.029283   -0.155067    4.811310
      6          1           0       -5.493596   -0.991520    5.264855
      7          6           0       -5.077646    0.851557    4.114616
      8          6           0       -7.140159   -0.665695    3.858496
      9          1           0       -7.539692    0.188467    3.298753
     10          1           0       -6.658099   -1.324354    3.128239
     11          8           0       -5.251144    2.056362    4.348462
     12          6           0       -8.250607   -1.382181    4.598641
     13          6           0       -8.082326   -2.700151    5.049422
     14          1           0       -7.168050   -3.241228    4.814442
     15          6           0       -9.449075   -0.711456    4.893632
     16          1           0       -9.617940    0.292389    4.505777
     17          6           0       -9.089890   -3.332427    5.776273
     18          1           0       -8.952969   -4.357660    6.107159
     19          6           0      -10.457360   -1.345257    5.627767
     20          1           0      -11.384708   -0.819755    5.835445
     21          6           0      -10.276963   -2.654681    6.071198
     22          1           0      -11.061024   -3.151814    6.634169
     23          7           0       -4.175256    0.333443    3.289078
     24          1           0       -4.107254   -0.670045    3.100576
     25          6           0       -3.267521    1.104697    2.447143
     26          1           0       -3.804823    1.941446    1.989501
     27          6           0       -2.770042    0.111114    1.384893
     28          6           0       -2.067380    1.679913    3.264037
     29          1           0       -1.571580    0.851206    3.787853
     30          1           0       -2.474681    2.369168    4.009948
     31          8           0       -2.972591   -1.095947    1.523289
     32          8           0       -1.177815    2.394773    2.440271
     33          1           0       -0.493909    1.764156    2.118249
     34          7           0       -2.089575    0.671610    0.355826
     35          1           0       -1.829920    1.643564    0.504067
     36          6           0       -1.170998   -0.123250   -0.445467
     37          1           0       -1.616255   -1.111334   -0.582082
     38          6           0        0.168540   -0.278868    0.309786
     39          6           0       -0.983431    0.522294   -1.830190
     40          1           0       -0.530380    1.521379   -1.708214
     41          1           0       -1.986549    0.668954   -2.261452
     42          8           0        0.445851    0.425816    1.300353
     43          8           0       -0.183253   -0.328735   -2.608856
     44          7           0        0.995953   -1.220516   -0.166734
     45          1           0        0.824499   -1.577205   -1.106270
     46          6           0        2.310113   -1.482129    0.426755
     47          1           0        2.229126   -1.174941    1.474001
     48          6           0        3.406295   -0.621077   -0.244157
     49          6           0        2.681645   -2.969543    0.385943
     50          1           0        3.589888   -3.133730    0.968840
     51          1           0        1.876142   -3.543710    0.861330
     52          8           0        4.343049   -1.130998   -0.847488
     53          6           0        2.932976   -3.583035   -0.980176
     54          8           0        3.697934   -4.486147   -1.204541
     55          8           0        2.112947   -3.060598   -1.937114
     56          7           0        3.220658    0.721590   -0.120092
     57          1           0        2.470795    1.056308    0.475162
     58          6           0        4.118119    1.671046   -0.757839
     59          1           0        5.036255    1.110760   -0.972893
     60          6           0        4.517137    2.819575    0.163883
     61          6           0        3.579445    2.234767   -2.094658
     62          1           0        4.372161    2.866317   -2.513127
     63          1           0        2.725292    2.895958   -1.893351
     64          8           0        5.128289    3.794662   -0.208787
     65          6           0        3.171964    1.135447   -3.084083
     66          1           0        2.266602    0.630777   -2.731743
     67          1           0        3.957713    0.370849   -3.129455
     68          6           0        2.941831    1.640429   -4.514823
     69          1           0        3.879702    2.039173   -4.921466
     70          1           0        2.635182    0.804296   -5.149180
     71          7           0        1.933933    2.684747   -4.670747
     72          1           0        2.203557    3.640622   -4.490029
     73          7           0        0.089542    1.274031   -4.825137
     74          1           0       -0.833267    1.243062   -5.257721
     75          1           0        0.041438    0.161519   -3.453776
     76          7           0       -0.064447    3.603478   -5.347697
     77          1           0        0.431992    4.219025   -5.981995
     78          1           0       -1.026519    3.457841   -5.624489
     79          6           0        0.619358    2.454427   -4.954188
     80          8           0        4.116981    2.646238    1.445565
     81          1           0        4.435344    3.429559    1.934323
     82          1           0        2.336429   -3.511172   -2.773203
 ---------------------------------------------------------------------

 SCF Done:  E(RB3LYP) =  -2166.28256924     A.U. after    1 cycles

 Alpha  occ. eigenvalues --  -19.26729 -19.26177 -19.25197 -19.22593 -19.22544
 Alpha  occ. eigenvalues --  -19.21496 -19.20017 -19.19770 -19.18841 -19.18218
 Alpha  occ. eigenvalues --  -14.59850 -14.49656 -14.45570 -14.44048 -14.42368
 Alpha  occ. eigenvalues --  -14.42336 -14.42149 -14.36603 -10.43677 -10.41004
 Alpha  occ. eigenvalues --  -10.39237 -10.38349 -10.37763 -10.37561 -10.36314
 Alpha  occ. eigenvalues --  -10.35290 -10.34451 -10.34190 -10.33085 -10.32597
 Alpha  occ. eigenvalues --  -10.31869 -10.31318 -10.31206 -10.31088 -10.30950
 Alpha  occ. eigenvalues --  -10.30622 -10.30504 -10.30242 -10.30137 -10.28040
 Alpha  occ. eigenvalues --  -10.26749 -10.25085 -10.23754  -1.19171  -1.16923
 Alpha  occ. eigenvalues --   -1.15706  -1.14617  -1.13839  -1.12621  -1.10298
 Alpha  occ. eigenvalues --   -1.10030  -1.07785  -1.07582  -1.06735  -1.06121
 Alpha  occ. eigenvalues --   -1.05211  -1.02366  -1.00818  -0.98920  -0.97983
 Alpha  occ. eigenvalues --   -0.95988  -0.93503  -0.91657  -0.88618  -0.87058
 Alpha  occ. eigenvalues --   -0.86236  -0.85843  -0.85196  -0.82922  -0.80922
 Alpha  occ. eigenvalues --   -0.79752  -0.75959  -0.75815  -0.74135  -0.74048
 Alpha  occ. eigenvalues --   -0.73504  -0.72149  -0.71902  -0.70673  -0.70499
 Alpha  occ. eigenvalues --   -0.68826  -0.68720  -0.67372  -0.67131  -0.66151
 Alpha  occ. eigenvalues --   -0.65892  -0.64813  -0.64461  -0.63292  -0.63115
 Alpha  occ. eigenvalues --   -0.61986  -0.61595  -0.61439  -0.59911  -0.59301
 Alpha  occ. eigenvalues --   -0.58992  -0.58171  -0.58131  -0.57460  -0.57037
 Alpha  occ. eigenvalues --   -0.56906  -0.56366  -0.55907  -0.54938  -0.54584
 Alpha  occ. eigenvalues --   -0.54307  -0.53991  -0.53683  -0.53601  -0.53357
 Alpha  occ. eigenvalues --   -0.53279  -0.52815  -0.52503  -0.52318  -0.51902
 Alpha  occ. eigenvalues --   -0.51790  -0.51230  -0.51068  -0.50735  -0.50431
 Alpha  occ. eigenvalues --   -0.50200  -0.49113  -0.49053  -0.48698  -0.48119
 Alpha  occ. eigenvalues --   -0.47761  -0.47052  -0.46739  -0.46524  -0.46114
 Alpha  occ. eigenvalues --   -0.46067  -0.45773  -0.45727  -0.45191  -0.44820
 Alpha  occ. eigenvalues --   -0.44135  -0.43907  -0.43033  -0.41911  -0.41718
 Alpha  occ. eigenvalues --   -0.41356  -0.40753  -0.40336  -0.40099  -0.39708
 Alpha  occ. eigenvalues --   -0.37915  -0.37063  -0.37012  -0.36935  -0.36666
 Alpha  occ. eigenvalues --   -0.36539  -0.35812  -0.35585  -0.34788  -0.34472
 Alpha  occ. eigenvalues --   -0.34230  -0.32904  -0.32816  -0.32566  -0.31194
 Alpha  occ. eigenvalues --   -0.31100  -0.29913
 Alpha virt. eigenvalues --   -0.13430  -0.12698  -0.11295  -0.10133  -0.08368
 Alpha virt. eigenvalues --   -0.07363  -0.05314  -0.05042  -0.04085  -0.03775
 Alpha virt. eigenvalues --   -0.02978  -0.02563  -0.02194  -0.01506  -0.00960

 Mulliken charges:
               1
     1  N   -0.750434
     2  H    0.416154
     3  H    0.427663
     4  H    0.405199
     5  C   -0.112873
     6  H    0.213570
     7  C    0.657039
     8  C   -0.384551
     9  H    0.194859
    10  H    0.210050
    11  O   -0.538239
    12  C    0.137625
    13  C   -0.181331
    14  H    0.147879
    15  C   -0.230208
    16  H    0.151534
    17  C   -0.122129
    18  H    0.169335
    19  C   -0.119887
    20  H    0.168595
    21  C   -0.123415
    22  H    0.170775
    23  N   -0.617586
    24  H    0.371840
    25  C   -0.076480
    26  H    0.199975
    27  C    0.608814
    28  C   -0.035637
    29  H    0.149106
    30  H    0.175014
    31  O   -0.534153
    32  O   -0.644593
    33  H    0.445786
    34  N   -0.594215
    35  H    0.348918
    36  C   -0.101567
    37  H    0.209607
    38  C    0.638868
    39  C   -0.013887
    40  H    0.125027
    41  H    0.138093
    42  O   -0.587275
    43  O   -0.675466
    44  N   -0.590262
    45  H    0.406634
    46  C   -0.100066
    47  H    0.195812
    48  C    0.649175
    49  C   -0.361835
    50  H    0.205070
    51  H    0.184478
    52  O   -0.512583
    53  C    0.619690
    54  O   -0.447063
    55  O   -0.589441
    56  N   -0.621093
    57  H    0.357367
    58  C   -0.064218
    59  H    0.221000
    60  C    0.590010
    61  C   -0.264486
    62  H    0.165868
    63  H    0.133247
    64  O   -0.455735
    65  C   -0.282492
    66  H    0.160259
    67  H    0.167238
    68  C   -0.138073
    69  H    0.152930
    70  H    0.180450
    71  N   -0.592872
    72  H    0.333736
    73  N   -0.723390
    74  H    0.285232
    75  H    0.465787
    76  N   -0.756577
    77  H    0.336626
    78  H    0.332030
    79  C    0.650509
    80  O   -0.569759
    81  H    0.418719
    82  H    0.420681
 Sum of Mulliken charges =   1.00000

 Dipole moment (field-independent basis, Debye):
    X=            -28.2466    Y=              3.8468    Z=             15.8272  Tot=             32.6062
 Quadrupole moment (field-independent basis, Debye-Ang):
   XX=            -53.1370   YY=           -237.9700   ZZ=            -69.4259
   XY=             25.5713   XZ=           -152.0000   YZ=            -38.9272

 Normal termination of Gaussian 16 at Thu May 26 21:38:03 2022.
