 Gaussian 16, Revision C.01,
 Gaussian 16:  ES64L-G16RevC.01  3-Jul-2019

 -------------------------------------------------------------------
 # B3LYP/6-31G* guess=read geom=check nosymm integral(ultrafinegrid)
 -------------------------------------------------------------------

 ------------------------------------------------------
 Candidate Structure: Conf:883 Charge calc in gas phase
 ------------------------------------------------------
 Structure from the checkpoint file:  "conf-883.chk"
 Charge =  1 Multiplicity = 1

                          Input orientation:
 ---------------------------------------------------------------------
 Center     Atomic      Atomic             Coordinates (Angstroms)
 Number     Number       Type             X           Y           Z
 ---------------------------------------------------------------------
      1          7           0       -8.914306    4.235530    2.731244
      2          1           0       -8.357332    5.112156    2.514506
      3          1           0       -9.638500    4.117381    2.003440
      4          1           0       -9.358096    4.284121    3.650837
      5          6           0       -7.872264    3.148006    2.601000
      6          1           0       -7.536903    2.904315    3.614026
      7          6           0       -6.706863    3.890835    1.879522
      8          6           0       -8.458539    1.889331    1.919348
      9          1           0       -7.643024    1.172289    1.777249
     10          1           0       -9.149824    1.415639    2.626633
     11          8           0       -6.775661    5.126404    1.810886
     12          6           0       -9.164529    2.180641    0.610313
     13          6           0      -10.543758    2.453821    0.604361
     14          1           0      -11.121058    2.354476    1.523762
     15          6           0       -8.461080    2.215727   -0.603249
     16          1           0       -7.401728    1.972459   -0.625171
     17          6           0      -11.202659    2.777842   -0.585567
     18          1           0      -12.270745    2.973827   -0.575845
     19          6           0       -9.122882    2.531543   -1.789627
     20          1           0       -8.570360    2.542864   -2.724472
     21          6           0      -10.489861    2.822053   -1.783174
     22          1           0      -10.999159    3.064975   -2.710813
     23          7           0       -5.698237    3.146381    1.440117
     24          1           0       -5.759262    2.129193    1.383795
     25          6           0       -4.559267    3.659562    0.687180
     26          1           0       -4.863164    4.548129    0.125972
     27          6           0       -4.151119    2.516664   -0.256346
     28          6           0       -3.382378    4.052077    1.635384
     29          1           0       -3.139345    3.188433    2.269071
     30          1           0       -3.736216    4.863727    2.279740
     31          8           0       -4.648711    1.394802   -0.123802
     32          8           0       -2.263706    4.509773    0.915128
     33          1           0       -1.676503    3.734752    0.753305
     34          7           0       -3.215277    2.846093   -1.176696
     35          1           0       -2.771424    3.747055   -1.011284
     36          6           0       -2.367830    1.826950   -1.779069
     37          1           0       -2.981403    0.941752   -1.962011
     38          6           0       -1.235608    1.454660   -0.788733
     39          6           0       -1.812773    2.343513   -3.129247
     40          1           0       -1.312368    3.311224   -2.953180
     41          1           0       -2.666433    2.534349   -3.793197
     42          8           0       -0.984979    2.139767    0.215770
     43          8           0       -0.915307    1.406439   -3.668286
     44          7           0       -0.556990    0.340160   -1.101852
     45          1           0       -0.717675   -0.081818   -2.014272
     46          6           0        0.705427   -0.028235   -0.465315
     47          1           0        1.228868    0.886168   -0.175315
     48          6           0        1.487403   -0.791714   -1.552491
     49          6           0        0.473830   -0.888632    0.794830
     50          1           0       -0.156595   -0.311110    1.482207
     51          1           0       -0.061292   -1.807375    0.542399
     52          8           0        0.894444   -1.534801   -2.331015
     53          6           0        1.732991   -1.277990    1.546816
     54          8           0        1.870067   -2.283728    2.198904
     55          8           0        2.713409   -0.337650    1.431110
     56          7           0        2.815417   -0.533207   -1.618048
     57          1           0        3.277715   -0.073220   -0.840905
     58          6           0        3.665090   -1.143440   -2.628252
     59          1           0        3.211199   -2.094229   -2.926886
     60          6           0        5.018377   -1.418452   -1.987382
     61          6           0        3.823877   -0.248326   -3.890205
     62          1           0        4.444930   -0.790266   -4.612955
     63          1           0        4.375939    0.659372   -3.608021
     64          8           0        5.359256   -1.010210   -0.897139
     65          6           0        2.472656    0.138466   -4.503318
     66          1           0        1.859536    0.627201   -3.739310
     67          1           0        1.921548   -0.759131   -4.805508
     68          6           0        2.572615    1.104101   -5.693210
     69          1           0        3.237682    1.942663   -5.453885
     70          1           0        2.993139    0.607894   -6.572282
     71          7           0        1.262238    1.677666   -6.041426
     72          1           0        0.824231    2.126767   -5.241624
     73          7           0        0.774130    0.265288   -7.834002
     74          1           0        0.069584   -0.149639   -8.428870
     75          1           0        1.528822    0.700166   -8.350418
     76          7           0       -0.928203    0.991233   -6.327180
     77          1           0       -1.102220    1.237780   -4.645438
     78          1           0       -1.571320    0.559999   -6.988843
     79          6           0        0.303281    0.963830   -6.737014
     80          8           0        5.811637   -2.149002   -2.791664
     81          1           0        6.662454   -2.264464   -2.326391
     82          1           0        3.485480   -0.674717    1.925539
 ---------------------------------------------------------------------

 SCF Done:  E(RB3LYP) =  -2166.28535900     A.U. after    3 cycles

 Alpha  occ. eigenvalues --  -19.26895 -19.26457 -19.26182 -19.22268 -19.21987
 Alpha  occ. eigenvalues --  -19.21412 -19.20406 -19.20097 -19.19547 -19.18574
 Alpha  occ. eigenvalues --  -14.59039 -14.49198 -14.45077 -14.43168 -14.42964
 Alpha  occ. eigenvalues --  -14.42116 -14.40884 -14.36554 -10.43362 -10.40674
 Alpha  occ. eigenvalues --  -10.39391 -10.38874 -10.38545 -10.36851 -10.35855
 Alpha  occ. eigenvalues --  -10.35797 -10.34108 -10.33680 -10.32579 -10.32017
 Alpha  occ. eigenvalues --  -10.31342 -10.31035 -10.30976 -10.30867 -10.30827
 Alpha  occ. eigenvalues --  -10.30105 -10.30057 -10.29799 -10.29656 -10.28426
 Alpha  occ. eigenvalues --  -10.27073 -10.25991 -10.24306  -1.18901  -1.17919
 Alpha  occ. eigenvalues --   -1.16709  -1.14139  -1.13154  -1.11794  -1.10654
 Alpha  occ. eigenvalues --   -1.09658  -1.08966  -1.07795  -1.07199  -1.05772
 Alpha  occ. eigenvalues --   -1.04676  -1.01903  -0.99999  -0.99634  -0.97340
 Alpha  occ. eigenvalues --   -0.95549  -0.92914  -0.91591  -0.87996  -0.87258
 Alpha  occ. eigenvalues --   -0.85906  -0.85562  -0.85182  -0.82601  -0.81066
 Alpha  occ. eigenvalues --   -0.79578  -0.76351  -0.75132  -0.74042  -0.74009
 Alpha  occ. eigenvalues --   -0.72683  -0.71936  -0.71015  -0.70533  -0.69614
 Alpha  occ. eigenvalues --   -0.68938  -0.67919  -0.67505  -0.66856  -0.66174
 Alpha  occ. eigenvalues --   -0.65571  -0.65526  -0.65044  -0.63416  -0.62396
 Alpha  occ. eigenvalues --   -0.61240  -0.60966  -0.60337  -0.58982  -0.58679
 Alpha  occ. eigenvalues --   -0.58545  -0.58024  -0.57528  -0.57060  -0.56794
 Alpha  occ. eigenvalues --   -0.56528  -0.56181  -0.55658  -0.55374  -0.54844
 Alpha  occ. eigenvalues --   -0.54657  -0.54336  -0.54198  -0.53854  -0.53503
 Alpha  occ. eigenvalues --   -0.53020  -0.52740  -0.52399  -0.52077  -0.51904
 Alpha  occ. eigenvalues --   -0.51550  -0.51301  -0.50963  -0.50598  -0.50410
 Alpha  occ. eigenvalues --   -0.50146  -0.49681  -0.48903  -0.48529  -0.48143
 Alpha  occ. eigenvalues --   -0.47789  -0.47592  -0.47188  -0.46372  -0.46096
 Alpha  occ. eigenvalues --   -0.45844  -0.45428  -0.45324  -0.45110  -0.44748
 Alpha  occ. eigenvalues --   -0.44066  -0.43632  -0.43187  -0.42165  -0.41438
 Alpha  occ. eigenvalues --   -0.41347  -0.41094  -0.40332  -0.40032  -0.39675
 Alpha  occ. eigenvalues --   -0.38900  -0.38213  -0.36649  -0.36376  -0.36145
 Alpha  occ. eigenvalues --   -0.35979  -0.35322  -0.35047  -0.34799  -0.34270
 Alpha  occ. eigenvalues --   -0.33687  -0.33140  -0.32968  -0.32720  -0.32293
 Alpha  occ. eigenvalues --   -0.31875  -0.29647
 Alpha virt. eigenvalues --   -0.12620  -0.12126  -0.11969  -0.08521  -0.08098
 Alpha virt. eigenvalues --   -0.06577  -0.06221  -0.05739  -0.04183  -0.04088
 Alpha virt. eigenvalues --   -0.03158  -0.02405  -0.01516  -0.00742   0.00139

 Mulliken charges:
               1
     1  N   -0.757297
     2  H    0.434133
     3  H    0.404149
     4  H    0.410069
     5  C   -0.113489
     6  H    0.228620
     7  C    0.657357
     8  C   -0.393701
     9  H    0.208676
    10  H    0.189488
    11  O   -0.536312
    12  C    0.139755
    13  C   -0.235154
    14  H    0.141361
    15  C   -0.183376
    16  H    0.165946
    17  C   -0.118634
    18  H    0.165064
    19  C   -0.124773
    20  H    0.165742
    21  C   -0.121331
    22  H    0.167392
    23  N   -0.611516
    24  H    0.374330
    25  C   -0.093511
    26  H    0.205462
    27  C    0.617230
    28  C   -0.028900
    29  H    0.150295
    30  H    0.169810
    31  O   -0.543125
    32  O   -0.642435
    33  H    0.447882
    34  N   -0.591898
    35  H    0.351844
    36  C   -0.111449
    37  H    0.200875
    38  C    0.640683
    39  C   -0.020910
    40  H    0.128239
    41  H    0.151100
    42  O   -0.574543
    43  O   -0.675759
    44  N   -0.597913
    45  H    0.382380
    46  C   -0.027203
    47  H    0.189313
    48  C    0.597858
    49  C   -0.358435
    50  H    0.205044
    51  H    0.201342
    52  O   -0.528610
    53  C    0.579534
    54  O   -0.440842
    55  O   -0.576511
    56  N   -0.611343
    57  H    0.367346
    58  C   -0.045793
    59  H    0.208837
    60  C    0.586383
    61  C   -0.270789
    62  H    0.168311
    63  H    0.143464
    64  O   -0.470009
    65  C   -0.272892
    66  H    0.159670
    67  H    0.173391
    68  C   -0.157152
    69  H    0.155792
    70  H    0.156685
    71  N   -0.583606
    72  H    0.332721
    73  N   -0.739647
    74  H    0.336918
    75  H    0.343774
    76  N   -0.735999
    77  H    0.457792
    78  H    0.284926
    79  C    0.655639
    80  O   -0.558037
    81  H    0.424918
    82  H    0.425352
 Sum of Mulliken charges =   1.00000

 Dipole moment (field-independent basis, Debye):
    X=            -28.0663    Y=             13.0970    Z=             -1.6574  Tot=             31.0160
 Quadrupole moment (field-independent basis, Debye-Ang):
   XX=             98.4508   YY=           -220.8820   ZZ=           -139.8301
   XY=           -120.7108   XZ=            -88.7812   YZ=             28.0268

 Normal termination of Gaussian 16 at Thu May 26 21:38:26 2022.
