 Gaussian 16, Revision C.01,
 Gaussian 16:  ES64L-G16RevC.01  3-Jul-2019

 ----------------------------------------------------------------------
 # B3LYP/6-31G* empiricaldispersion=gd3 guess=read geom=check nosymm in
 tegral(ultrafinegrid)
 ----------------------------------------------------------------------

 ------------------------------------------------------
 Candidate Structure: Conf:102 Charge calc in gas phase
 ------------------------------------------------------
 Structure from the checkpoint file:  "conf-102.chk"
 Charge =  1 Multiplicity = 1

                          Input orientation:
 ---------------------------------------------------------------------
 Center     Atomic      Atomic             Coordinates (Angstroms)
 Number     Number       Type             X           Y           Z
 ---------------------------------------------------------------------
      1          7           0       -2.950829   -2.062110    3.455509
      2          1           0       -3.047254   -2.274371    4.446023
      3          1           0       -2.188293   -2.624146    3.083094
      4          6           0       -2.638450   -0.651904    3.270511
      5          1           0       -3.527174   -0.071301    3.530418
      6          6           0       -2.255092   -0.458334    1.799820
      7          6           0       -1.454963   -0.113959    4.146084
      8          1           0       -1.672000   -0.392850    5.184483
      9          1           0       -0.548007   -0.654892    3.846261
     10          8           0       -1.506344   -1.308899    1.277574
     11          6           0       -1.267410    1.380658    4.032171
     12          6           0       -0.446209    1.931535    3.040302
     13          1           0        0.123014    1.269658    2.393594
     14          6           0       -2.007003    2.253227    4.842159
     15          1           0       -2.649048    1.845710    5.620242
     16          6           0       -0.381727    3.309527    2.836246
     17          1           0        0.229042    3.703825    2.030201
     18          6           0       -1.934954    3.634899    4.657466
     19          1           0       -2.513414    4.295648    5.297188
     20          6           0       -1.128583    4.166745    3.647996
     21          1           0       -1.082367    5.241189    3.495196
     22          7           0       -2.651799    0.649928    1.137982
     23          6           0       -2.227171    0.902453   -0.263766
     24          1           0       -2.397630   -0.013851   -0.839196
     25          6           0       -0.721206    1.260034   -0.320682
     26          6           0       -3.112657    2.072341   -0.731552
     27          1           0       -2.529288    2.995239   -0.672599
     28          1           0       -3.437406    1.939908   -1.766561
     29          8           0       -0.295669    2.405094   -0.319744
     30          6           0       -4.275382    2.106427    0.271041
     31          1           0       -4.742045    3.092475    0.342855
     32          1           0       -5.049527    1.380093   -0.001140
     33          6           0       -3.608115    1.685319    1.581754
     34          1           0       -4.312882    1.277874    2.306066
     35          1           0       -3.063976    2.514056    2.047483
     36          7           0        0.093814    0.153173   -0.358689
     37          1           0       -0.359090   -0.699571   -0.014044
     38          6           0        1.518376    0.293227   -0.120095
     39          1           0        1.702995    1.348684    0.121259
     40          6           0        2.262917    0.003184   -1.424440
     41          6           0        1.994743   -0.624623    1.011093
     42          1           0        1.882213   -1.664696    0.677431
     43          1           0        1.299422   -0.524805    1.848980
     44          8           0        3.046810   -0.929656   -1.613674
     45          6           0        3.432575   -0.318094    1.481766
     46          1           0        4.026853    0.098346    0.657766
     47          1           0        3.385338    0.470956    2.238736
     48          6           0        4.177149   -1.535977    2.065601
     49          1           0        3.480746   -2.193606    2.603377
     50          1           0        4.913776   -1.208247    2.807888
     51          6           0        4.971987   -2.341954    1.038685
     52          1           0        5.717359   -1.717586    0.538772
     53          1           0        5.478828   -3.195185    1.496296
     54          7           0        4.094964   -2.892464   -0.071821
     55          1           0        4.643525   -3.446317   -0.737997
     56          1           0        3.624645   -2.112125   -0.620903
     57          1           0        3.362198   -3.503042    0.303455
     58          8           0        1.967074    0.868338   -2.380332
     59          1           0        2.438369    0.614122   -3.197991
 ---------------------------------------------------------------------

 SCF Done:  E(RB3LYP) =  -1300.60936366     A.U. after    3 cycles

 Alpha  occ. eigenvalues --  -19.33082 -19.29252 -19.21371 -19.20764 -14.60177
 Alpha  occ. eigenvalues --  -14.45793 -14.45121 -14.38662 -10.46348 -10.40150
 Alpha  occ. eigenvalues --  -10.37981 -10.37405 -10.35633 -10.33994 -10.32293
 Alpha  occ. eigenvalues --  -10.32082 -10.31991 -10.30437 -10.30063 -10.27143
 Alpha  occ. eigenvalues --  -10.27011 -10.26589 -10.26491 -10.26229 -10.26041
 Alpha  occ. eigenvalues --  -10.25988 -10.25975 -10.25853  -1.24853  -1.15978
 Alpha  occ. eigenvalues --   -1.14578  -1.13415  -1.12139  -1.02964  -1.02824
 Alpha  occ. eigenvalues --   -0.96371  -0.94895  -0.92676  -0.90446  -0.87813
 Alpha  occ. eigenvalues --   -0.85602  -0.85119  -0.82821  -0.81526  -0.79635
 Alpha  occ. eigenvalues --   -0.78757  -0.75585  -0.74663  -0.74054  -0.73035
 Alpha  occ. eigenvalues --   -0.71465  -0.70777  -0.68772  -0.67740  -0.66597
 Alpha  occ. eigenvalues --   -0.65949  -0.65031  -0.64780  -0.62873  -0.62346
 Alpha  occ. eigenvalues --   -0.61475  -0.60466  -0.59695  -0.59328  -0.58362
 Alpha  occ. eigenvalues --   -0.57543  -0.56638  -0.55613  -0.55129  -0.53978
 Alpha  occ. eigenvalues --   -0.53937  -0.53314  -0.53221  -0.52548  -0.52120
 Alpha  occ. eigenvalues --   -0.51271  -0.50983  -0.50514  -0.50027  -0.49329
 Alpha  occ. eigenvalues --   -0.49044  -0.48323  -0.48009  -0.47855  -0.47516
 Alpha  occ. eigenvalues --   -0.47014  -0.46886  -0.45688  -0.45594  -0.44993
 Alpha  occ. eigenvalues --   -0.44111  -0.43805  -0.43082  -0.42443  -0.42190
 Alpha  occ. eigenvalues --   -0.41254  -0.41086  -0.40952  -0.36216  -0.36133
 Alpha  occ. eigenvalues --   -0.34467  -0.33062  -0.32277  -0.31793  -0.30020
 Alpha virt. eigenvalues --   -0.13530  -0.11806  -0.08024  -0.07782  -0.07312
 Alpha virt. eigenvalues --   -0.06446  -0.06384  -0.04337  -0.03839  -0.03073
 Alpha virt. eigenvalues --   -0.02138  -0.00650   0.00457   0.00739   0.00907

 Mulliken charges:
               1
     1  N   -0.705505
     2  H    0.304220
     3  H    0.311543
     4  C   -0.046972
     5  H    0.154861
     6  C    0.634345
     7  C   -0.378076
     8  H    0.153539
     9  H    0.138007
    10  O   -0.597961
    11  C    0.165046
    12  C   -0.192754
    13  H    0.111598
    14  C   -0.190109
    15  H    0.134405
    16  C   -0.129948
    17  H    0.152633
    18  C   -0.127432
    19  H    0.147103
    20  C   -0.139208
    21  H    0.146503
    22  N   -0.434580
    23  C   -0.053832
    24  H    0.177612
    25  C    0.609880
    26  C   -0.316837
    27  H    0.195512
    28  H    0.166741
    29  O   -0.498765
    30  C   -0.295689
    31  H    0.169046
    32  H    0.162113
    33  C   -0.147847
    34  H    0.177007
    35  H    0.194410
    36  N   -0.627082
    37  H    0.384916
    38  C   -0.040874
    39  H    0.217709
    40  C    0.636803
    41  C   -0.312871
    42  H    0.113968
    43  H    0.206286
    44  O   -0.537598
    45  C   -0.295984
    46  H    0.154624
    47  H    0.192549
    48  C   -0.291645
    49  H    0.172933
    50  H    0.201322
    51  C   -0.201156
    52  H    0.219151
    53  H    0.215538
    54  N   -0.772383
    55  H    0.413286
    56  H    0.466179
    57  H    0.405508
    58  O   -0.507784
    59  H    0.435997
 Sum of Mulliken charges =   1.00000

 Dipole moment (field-independent basis, Debye):
    X=             13.0669    Y=             -7.4903    Z=              2.9713  Tot=             15.3518
 Quadrupole moment (field-independent basis, Debye-Ang):
   XX=            -77.1823   YY=           -129.9351   ZZ=           -132.4673
   XY=            -53.4731   XZ=             -6.8227   YZ=              1.0736

 Normal termination of Gaussian 16 at Thu Jun  2 02:26:12 2022.
