 Gaussian 16, Revision C.01,
 Gaussian 16:  ES64L-G16RevC.01  3-Jul-2019

 ----------------------------------------------------------------------
 # B3LYP/6-31G* empiricaldispersion=gd3 guess=read geom=check nosymm in
 tegral(ultrafinegrid)
 ----------------------------------------------------------------------

 ------------------------------------------------------
 Candidate Structure: Conf:879 Charge calc in gas phase
 ------------------------------------------------------
 Structure from the checkpoint file:  "conf-879.chk"
 Charge =  1 Multiplicity = 1

                          Input orientation:
 ---------------------------------------------------------------------
 Center     Atomic      Atomic             Coordinates (Angstroms)
 Number     Number       Type             X           Y           Z
 ---------------------------------------------------------------------
      1          7           0       -0.545089   -1.567244   -3.024755
      2          1           0       -0.502172   -1.469559   -4.037896
      3          1           0       -0.825490   -2.528695   -2.820737
      4          6           0       -1.575368   -0.669549   -2.465729
      5          1           0       -1.107718    0.304879   -2.304467
      6          6           0       -2.035647   -1.276351   -1.131928
      7          6           0       -2.808428   -0.452185   -3.393640
      8          1           0       -3.503231    0.223810   -2.880174
      9          1           0       -2.451847    0.084208   -4.281980
     10          8           0       -2.011938   -2.493814   -0.960310
     11          6           0       -3.508477   -1.727227   -3.801394
     12          6           0       -3.153811   -2.387425   -4.985044
     13          1           0       -2.407636   -1.946870   -5.643968
     14          6           0       -4.499208   -2.293810   -2.988845
     15          1           0       -4.789585   -1.789819   -2.069912
     16          6           0       -3.766006   -3.589093   -5.345515
     17          1           0       -3.483965   -4.083237   -6.271116
     18          6           0       -5.115730   -3.491885   -3.345821
     19          1           0       -5.885553   -3.914580   -2.706279
     20          6           0       -4.748039   -4.145002   -4.524472
     21          1           0       -5.231254   -5.076378   -4.805649
     22          7           0       -2.548469   -0.425070   -0.191430
     23          6           0       -2.241943    1.009433   -0.069568
     24          1           0       -2.488247    1.561564   -0.979075
     25          6           0       -0.743419    1.289003    0.196366
     26          6           0       -3.133765    1.449414    1.109627
     27          1           0       -2.746418    2.346253    1.599066
     28          1           0       -4.136803    1.674868    0.731393
     29          8           0       -0.240767    2.353064   -0.114837
     30          6           0       -3.165771    0.207214    2.015079
     31          1           0       -2.254090    0.165846    2.621903
     32          1           0       -4.020969    0.198824    2.695316
     33          6           0       -3.199739   -0.965275    1.022786
     34          1           0       -4.222943   -1.270037    0.774346
     35          1           0       -2.672250   -1.858189    1.370674
     36          7           0       -0.055873    0.270064    0.827518
     37          1           0       -0.553678   -0.608642    0.885250
     38          6           0        1.398519    0.145166    0.698040
     39          1           0        1.763144    1.136819    0.416630
     40          6           0        1.639740   -0.825130   -0.475651
     41          6           0        2.058836   -0.321230    1.998336
     42          1           0        1.981688    0.488120    2.730843
     43          1           0        3.128977   -0.448020    1.791425
     44          8           0        2.073559   -1.962195   -0.332173
     45          6           0        1.459810   -1.619971    2.597479
     46          1           0        0.826676   -1.374514    3.455684
     47          1           0        0.817736   -2.126512    1.869798
     48          6           0        2.518768   -2.634258    3.070164
     49          1           0        2.031951   -3.410074    3.677796
     50          1           0        3.251816   -2.128681    3.715677
     51          6           0        3.230167   -3.294383    1.894072
     52          1           0        2.551363   -3.857291    1.253229
     53          1           0        3.770483   -2.592449    1.261294
     54          7           0        4.270549   -4.299598    2.414036
     55          1           0        4.762923   -4.767318    1.643653
     56          1           0        3.829446   -5.026368    2.990435
     57          1           0        4.974953   -3.834128    2.998822
     58          8           0        1.223656   -0.306225   -1.611639
     59          1           0        0.800169   -1.001371   -2.253852
 ---------------------------------------------------------------------

 SCF Done:  E(RB3LYP) =  -1300.59036130     A.U. after    2 cycles

 Alpha  occ. eigenvalues --  -19.25037 -19.22673 -19.20627 -19.20308 -14.64053
 Alpha  occ. eigenvalues --  -14.45317 -14.45125 -14.42737 -10.40373 -10.40058
 Alpha  occ. eigenvalues --  -10.37375 -10.37308 -10.34170 -10.32690 -10.32279
 Alpha  occ. eigenvalues --  -10.31539 -10.30999 -10.30710 -10.29637 -10.27981
 Alpha  occ. eigenvalues --  -10.27744 -10.27506 -10.26312 -10.25450 -10.25270
 Alpha  occ. eigenvalues --  -10.25175 -10.25104 -10.24985  -1.17887  -1.17509
 Alpha  occ. eigenvalues --   -1.12805  -1.12096  -1.09059  -1.03702  -1.01327
 Alpha  occ. eigenvalues --   -0.98989  -0.94735  -0.91860  -0.88719  -0.88268
 Alpha  occ. eigenvalues --   -0.85197  -0.84374  -0.82691  -0.80664  -0.79591
 Alpha  occ. eigenvalues --   -0.78362  -0.76564  -0.75401  -0.74572  -0.71767
 Alpha  occ. eigenvalues --   -0.71138  -0.69518  -0.67663  -0.66907  -0.66624
 Alpha  occ. eigenvalues --   -0.65927  -0.65264  -0.64845  -0.62345  -0.61249
 Alpha  occ. eigenvalues --   -0.60799  -0.58923  -0.57384  -0.57238  -0.56464
 Alpha  occ. eigenvalues --   -0.55670  -0.55461  -0.54738  -0.53963  -0.53569
 Alpha  occ. eigenvalues --   -0.52987  -0.52565  -0.52312  -0.52162  -0.51712
 Alpha  occ. eigenvalues --   -0.51166  -0.50725  -0.50317  -0.49376  -0.49162
 Alpha  occ. eigenvalues --   -0.48301  -0.47885  -0.47333  -0.46717  -0.46155
 Alpha  occ. eigenvalues --   -0.45923  -0.45387  -0.44987  -0.44563  -0.43929
 Alpha  occ. eigenvalues --   -0.43677  -0.43039  -0.42455  -0.41995  -0.40508
 Alpha  occ. eigenvalues --   -0.40305  -0.39277  -0.37384  -0.36146  -0.35541
 Alpha  occ. eigenvalues --   -0.34267  -0.33602  -0.32123  -0.31147  -0.30552
 Alpha virt. eigenvalues --   -0.14726  -0.09642  -0.08106  -0.08027  -0.07879
 Alpha virt. eigenvalues --   -0.06549  -0.06248  -0.05547  -0.04999  -0.02703
 Alpha virt. eigenvalues --   -0.01528  -0.00518   0.00123   0.01041   0.01106

 Mulliken charges:
               1
     1  N   -0.791322
     2  H    0.333489
     3  H    0.359114
     4  C   -0.058225
     5  H    0.180727
     6  C    0.600281
     7  C   -0.392478
     8  H    0.166846
     9  H    0.166873
    10  O   -0.527311
    11  C    0.182153
    12  C   -0.199804
    13  H    0.120455
    14  C   -0.162606
    15  H    0.124080
    16  C   -0.126397
    17  H    0.141795
    18  C   -0.127325
    19  H    0.139952
    20  C   -0.127985
    21  H    0.143289
    22  N   -0.478838
    23  C   -0.071536
    24  H    0.188783
    25  C    0.618704
    26  C   -0.294164
    27  H    0.186012
    28  H    0.172893
    29  O   -0.492684
    30  C   -0.315543
    31  H    0.153723
    32  H    0.173173
    33  C   -0.127098
    34  H    0.176724
    35  H    0.168734
    36  N   -0.616403
    37  H    0.349421
    38  C   -0.057807
    39  H    0.214810
    40  C    0.585653
    41  C   -0.267794
    42  H    0.174965
    43  H    0.137500
    44  O   -0.512826
    45  C   -0.270764
    46  H    0.172413
    47  H    0.165464
    48  C   -0.304063
    49  H    0.160722
    50  H    0.163215
    51  C   -0.193741
    52  H    0.243798
    53  H    0.240598
    54  N   -0.735733
    55  H    0.430961
    56  H    0.421527
    57  H    0.421643
    58  O   -0.586455
    59  H    0.458411
 Sum of Mulliken charges =   1.00000

 Dipole moment (field-independent basis, Debye):
    X=             11.0750    Y=            -17.0454    Z=              8.9850  Tot=             22.2246
 Quadrupole moment (field-independent basis, Debye-Ang):
   XX=            -72.8102   YY=            -97.5203   ZZ=           -111.8264
   XY=            -67.8971   XZ=             45.6512   YZ=            -33.7663

 Normal termination of Gaussian 16 at Thu Jun  2 02:33:23 2022.
