 Gaussian 16, Revision C.01,
 Gaussian 16:  ES64L-G16RevC.01  3-Jul-2019

 ----------------------------------------------------------------------
 # B3LYP/6-31G* empiricaldispersion=gd3 guess=read geom=check nosymm in
 tegral(ultrafinegrid)
 ----------------------------------------------------------------------

 ------------------------------------------------------
 Candidate Structure: Conf:472 Charge calc in gas phase
 ------------------------------------------------------
 Structure from the checkpoint file:  "conf-472.chk"
 Charge =  1 Multiplicity = 1

                          Input orientation:
 ---------------------------------------------------------------------
 Center     Atomic      Atomic             Coordinates (Angstroms)
 Number     Number       Type             X           Y           Z
 ---------------------------------------------------------------------
      1          7           0       -2.116630   -4.055458   -1.911453
      2          1           0       -1.568068   -3.541248   -2.603992
      3          1           0       -3.022894   -4.231484   -2.340404
      4          6           0       -2.272480   -3.181097   -0.754833
      5          1           0       -3.193376   -3.437700   -0.225379
      6          6           0       -2.193830   -1.685123   -1.134832
      7          6           0       -1.055759   -3.326761    0.206076
      8          1           0       -0.188196   -3.071557   -0.413951
      9          1           0       -1.114891   -2.548308    0.976153
     10          8           0       -1.464773   -1.365853   -2.085708
     11          6           0       -0.803789   -4.660617    0.865515
     12          6           0       -0.699503   -4.738313    2.264816
     13          1           0       -0.917499   -3.858106    2.866338
     14          6           0       -0.543171   -5.817837    0.108197
     15          1           0       -0.663182   -5.768287   -0.969154
     16          6           0       -0.320923   -5.928331    2.897515
     17          1           0       -0.252263   -5.966357    3.981044
     18          6           0       -0.169003   -7.009616    0.739626
     19          1           0        0.014491   -7.899027    0.142554
     20          6           0       -0.044363   -7.066896    2.135936
     21          1           0        0.243103   -7.994808    2.621853
     22          7           0       -2.748628   -0.779676   -0.301904
     23          6           0       -2.352693    0.648105   -0.358819
     24          1           0       -2.301907    0.969840   -1.401859
     25          6           0       -0.965352    0.739009    0.317565
     26          6           0       -3.450738    1.347967    0.446211
     27          1           0       -3.094317    2.277893    0.893192
     28          1           0       -4.291256    1.576707   -0.217605
     29          8           0       -0.836717    0.954236    1.517977
     30          6           0       -3.850878    0.306075    1.506643
     31          1           0       -3.146049    0.356721    2.338726
     32          1           0       -4.862145    0.457216    1.892490
     33          6           0       -3.715119   -1.046726    0.784390
     34          1           0       -4.665644   -1.379379    0.351179
     35          1           0       -3.352844   -1.832302    1.455865
     36          7           0        0.085988    0.458981   -0.508463
     37          1           0       -0.131071    0.133246   -1.445266
     38          6           0        1.410358    0.216244    0.032191
     39          1           0        1.272148    0.172394    1.121709
     40          6           0        2.391499    1.371813   -0.193292
     41          6           0        2.020477   -1.108901   -0.480075
     42          1           0        2.577350   -0.920103   -1.404900
     43          1           0        1.194128   -1.777463   -0.735877
     44          8           0        3.592885    1.217412   -0.270004
     45          6           0        2.960895   -1.761033    0.544281
     46          1           0        3.721039   -1.026263    0.824310
     47          1           0        2.401905   -1.987325    1.467529
     48          6           0        3.686281   -3.013028    0.020310
     49          1           0        4.515875   -3.279066    0.690611
     50          1           0        4.151383   -2.780292   -0.945097
     51          6           0        2.818988   -4.251565   -0.202152
     52          1           0        1.914856   -4.046181   -0.778604
     53          1           0        3.373445   -5.050895   -0.699623
     54          7           0        2.338244   -4.841110    1.113679
     55          1           0        1.774236   -5.697452    0.967935
     56          1           0        1.710205   -4.201949    1.616571
     57          1           0        3.124572   -5.065724    1.732398
     58          8           0        1.783117    2.565648   -0.248725
     59          1           0        2.483683    3.239983   -0.340185
 ---------------------------------------------------------------------

 SCF Done:  E(RB3LYP) =  -1300.60096151     A.U. after    1 cycles

 Alpha  occ. eigenvalues --  -19.28348 -19.22833 -19.21844 -19.20517 -14.61296
 Alpha  occ. eigenvalues --  -14.46637 -14.44861 -14.41514 -10.40946 -10.40109
 Alpha  occ. eigenvalues --  -10.38346 -10.37542 -10.33574 -10.33568 -10.33292
 Alpha  occ. eigenvalues --  -10.32546 -10.32244 -10.32035 -10.31886 -10.31872
 Alpha  occ. eigenvalues --  -10.31779 -10.31765 -10.31254 -10.31047 -10.31001
 Alpha  occ. eigenvalues --  -10.30207 -10.27322 -10.27232  -1.19421  -1.15831
 Alpha  occ. eigenvalues --   -1.13828  -1.12282  -1.10412  -1.04082  -1.01752
 Alpha  occ. eigenvalues --   -0.99449  -0.97929  -0.94400  -0.90141  -0.89208
 Alpha  occ. eigenvalues --   -0.88475  -0.87023  -0.85180  -0.83475  -0.82680
 Alpha  occ. eigenvalues --   -0.78315  -0.76352  -0.74895  -0.73551  -0.73088
 Alpha  occ. eigenvalues --   -0.72903  -0.72018  -0.70080  -0.69889  -0.68452
 Alpha  occ. eigenvalues --   -0.67134  -0.64967  -0.64115  -0.63932  -0.62104
 Alpha  occ. eigenvalues --   -0.61803  -0.60689  -0.59854  -0.59258  -0.58398
 Alpha  occ. eigenvalues --   -0.57826  -0.56842  -0.56535  -0.56365  -0.55477
 Alpha  occ. eigenvalues --   -0.55072  -0.54563  -0.54426  -0.54150  -0.53455
 Alpha  occ. eigenvalues --   -0.52688  -0.51594  -0.51394  -0.50793  -0.50527
 Alpha  occ. eigenvalues --   -0.49758  -0.49132  -0.48611  -0.48236  -0.48077
 Alpha  occ. eigenvalues --   -0.47740  -0.47314  -0.46399  -0.46142  -0.45856
 Alpha  occ. eigenvalues --   -0.45518  -0.45122  -0.44772  -0.44252  -0.43664
 Alpha  occ. eigenvalues --   -0.42448  -0.40422  -0.38414  -0.37750  -0.37454
 Alpha  occ. eigenvalues --   -0.36423  -0.35900  -0.34033  -0.33648  -0.32753
 Alpha virt. eigenvalues --   -0.13867  -0.13507  -0.11493  -0.09058  -0.08132
 Alpha virt. eigenvalues --   -0.06588  -0.06319  -0.04758  -0.03873  -0.02848
 Alpha virt. eigenvalues --   -0.02468  -0.01189  -0.00669  -0.00165   0.00531

 Mulliken charges:
               1
     1  N   -0.719961
     2  H    0.325573
     3  H    0.322793
     4  C   -0.058948
     5  H    0.161145
     6  C    0.584194
     7  C   -0.382221
     8  H    0.156582
     9  H    0.169502
    10  O   -0.558789
    11  C    0.149187
    12  C   -0.243066
    13  H    0.159778
    14  C   -0.201972
    15  H    0.196299
    16  C   -0.136330
    17  H    0.170014
    18  C   -0.170148
    19  H    0.170977
    20  C   -0.154254
    21  H    0.170955
    22  N   -0.431052
    23  C   -0.078386
    24  H    0.185004
    25  C    0.616780
    26  C   -0.287940
    27  H    0.186578
    28  H    0.162481
    29  O   -0.515612
    30  C   -0.312001
    31  H    0.191747
    32  H    0.167179
    33  C   -0.132258
    34  H    0.174195
    35  H    0.154948
    36  N   -0.612450
    37  H    0.369250
    38  C   -0.046142
    39  H    0.207845
    40  C    0.600331
    41  C   -0.301949
    42  H    0.176042
    43  H    0.153899
    44  O   -0.464443
    45  C   -0.291329
    46  H    0.212928
    47  H    0.115694
    48  C   -0.296764
    49  H    0.165096
    50  H    0.203815
    51  C   -0.205181
    52  H    0.224130
    53  H    0.217693
    54  N   -0.744410
    55  H    0.415920
    56  H    0.414222
    57  H    0.409019
    58  O   -0.542347
    59  H    0.426155
 Sum of Mulliken charges =   1.00000

 Dipole moment (field-independent basis, Debye):
    X=              4.2154    Y=            -19.4778    Z=              3.4383  Tot=             20.2232
 Quadrupole moment (field-independent basis, Debye-Ang):
   XX=           -119.0312   YY=            -50.4044   ZZ=           -152.9424
   XY=            -35.5726   XZ=              7.5724   YZ=            -25.6146

 Normal termination of Gaussian 16 at Thu Jun  2 02:25:18 2022.
