 Gaussian 16, Revision C.01,
 Gaussian 16:  ES64L-G16RevC.01  3-Jul-2019

 ----------------------------------------------------------------------
 # B3LYP/6-31G* empiricaldispersion=gd3 guess=read geom=check nosymm in
 tegral(ultrafinegrid)
 ----------------------------------------------------------------------

 ------------------------------------------------------
 Candidate Structure: Conf:883 Charge calc in gas phase
 ------------------------------------------------------
 Structure from the checkpoint file:  "conf-883.chk"
 Charge =  1 Multiplicity = 1

                          Input orientation:
 ---------------------------------------------------------------------
 Center     Atomic      Atomic             Coordinates (Angstroms)
 Number     Number       Type             X           Y           Z
 ---------------------------------------------------------------------
      1          7           0       -3.689941    1.815014    2.033417
      2          1           0       -4.138462    0.907736    2.157140
      3          1           0       -4.266670    2.487722    2.537411
      4          6           0       -3.700810    2.170394    0.604907
      5          1           0       -4.718894    2.183832    0.183862
      6          6           0       -2.905656    1.102269   -0.159205
      7          6           0       -3.125555    3.603279    0.417417
      8          1           0       -3.183587    3.872625   -0.641050
      9          1           0       -3.803150    4.287631    0.942883
     10          8           0       -2.092248    0.360624    0.433248
     11          6           0       -1.710033    3.804045    0.907553
     12          6           0       -1.460400    4.324817    2.185870
     13          1           0       -2.294978    4.594812    2.828145
     14          6           0       -0.622150    3.478650    0.084882
     15          1           0       -0.789541    3.066351   -0.906042
     16          6           0       -0.150351    4.510381    2.640707
     17          1           0        0.025754    4.926076    3.628957
     18          6           0        0.686531    3.673537    0.532456
     19          1           0        1.517079    3.437055   -0.126023
     20          6           0        0.929132    4.184928    1.811390
     21          1           0        1.947562    4.346689    2.152878
     22          7           0       -3.114577    0.945640   -1.474168
     23          6           0       -2.360540   -0.090909   -2.205335
     24          1           0       -2.549676   -1.062778   -1.738807
     25          6           0       -0.855629    0.229460   -2.167436
     26          6           0       -2.928868   -0.006540   -3.639843
     27          1           0       -2.180767   -0.267679   -4.392391
     28          1           0       -3.767728   -0.703706   -3.741740
     29          8           0       -0.437380    1.371498   -2.344784
     30          6           0       -3.413357    1.446404   -3.750158
     31          1           0       -2.558799    2.109688   -3.912258
     32          1           0       -4.141008    1.599084   -4.550823
     33          6           0       -4.009238    1.713507   -2.364320
     34          1           0       -5.034569    1.329872   -2.282304
     35          1           0       -4.013479    2.772610   -2.106995
     36          7           0       -0.052673   -0.842613   -1.973398
     37          1           0       -0.463704   -1.742446   -1.768542
     38          6           0        1.392154   -0.712510   -1.809275
     39          1           0        1.786783   -0.151298   -2.663748
     40          6           0        2.088793   -2.069367   -1.826192
     41          6           0        1.778858    0.054111   -0.521212
     42          1           0        1.468349    1.092738   -0.662122
     43          1           0        2.870353    0.033462   -0.436810
     44          8           0        3.282319   -2.196692   -1.705455
     45          6           0        1.109348   -0.506455    0.738601
     46          1           0        0.028396   -0.504326    0.573930
     47          1           0        1.398352   -1.554579    0.894541
     48          6           0        1.457534    0.306704    2.001019
     49          1           0        1.647646    1.355454    1.739675
     50          1           0        2.385316   -0.064928    2.449601
     51          6           0        0.369208    0.273359    3.075959
     52          1           0       -0.022473   -0.736309    3.228019
     53          1           0        0.735612    0.651976    4.033924
     54          7           0       -0.795540    1.142644    2.680613
     55          1           0       -1.559968    1.149939    3.361864
     56          1           0       -1.270086    0.854891    1.777921
     57          1           0       -0.509109    2.123627    2.570088
     58          8           0        1.233343   -3.113280   -1.958367
     59          1           0        1.773265   -3.927063   -1.956634
 ---------------------------------------------------------------------

 SCF Done:  E(RB3LYP) =  -1300.64729432     A.U. after    1 cycles

 Alpha  occ. eigenvalues --  -19.29955 -19.25047 -19.23514 -19.21947 -14.54573
 Alpha  occ. eigenvalues --  -14.49092 -14.46547 -14.45006 -10.42007 -10.41400
 Alpha  occ. eigenvalues --  -10.39192 -10.36406 -10.35434 -10.34440 -10.34033
 Alpha  occ. eigenvalues --  -10.33799 -10.31181 -10.30812 -10.30593 -10.30137
 Alpha  occ. eigenvalues --  -10.30083 -10.29932 -10.29866 -10.29671 -10.29250
 Alpha  occ. eigenvalues --  -10.29134 -10.28794 -10.28490  -1.20526  -1.16762
 Alpha  occ. eigenvalues --   -1.13805  -1.11516  -1.09986  -1.06410  -1.03165
 Alpha  occ. eigenvalues --   -1.01829  -0.96534  -0.91834  -0.91191  -0.89150
 Alpha  occ. eigenvalues --   -0.88410  -0.85943  -0.85231  -0.83317  -0.82162
 Alpha  occ. eigenvalues --   -0.78240  -0.76154  -0.74624  -0.72324  -0.71681
 Alpha  occ. eigenvalues --   -0.71257  -0.69970  -0.69101  -0.68793  -0.67803
 Alpha  occ. eigenvalues --   -0.67231  -0.66455  -0.63889  -0.63533  -0.61805
 Alpha  occ. eigenvalues --   -0.61375  -0.61106  -0.60366  -0.58294  -0.58000
 Alpha  occ. eigenvalues --   -0.57770  -0.57469  -0.56913  -0.56383  -0.56083
 Alpha  occ. eigenvalues --   -0.55540  -0.54820  -0.54428  -0.53664  -0.52887
 Alpha  occ. eigenvalues --   -0.52519  -0.51993  -0.51657  -0.51426  -0.51044
 Alpha  occ. eigenvalues --   -0.50464  -0.50190  -0.49784  -0.48886  -0.48571
 Alpha  occ. eigenvalues --   -0.47963  -0.47571  -0.46541  -0.46069  -0.45274
 Alpha  occ. eigenvalues --   -0.44945  -0.44758  -0.44599  -0.44511  -0.43968
 Alpha  occ. eigenvalues --   -0.43344  -0.41627  -0.38892  -0.37971  -0.37567
 Alpha  occ. eigenvalues --   -0.37472  -0.36081  -0.35863  -0.35594  -0.34957
 Alpha virt. eigenvalues --   -0.12082  -0.11509  -0.10736  -0.09167  -0.08086
 Alpha virt. eigenvalues --   -0.06270  -0.03988  -0.02797  -0.01759  -0.00952
 Alpha virt. eigenvalues --   -0.00452  -0.00099   0.00610   0.01030   0.01135

 Mulliken charges:
               1
     1  N   -0.756132
     2  H    0.322757
     3  H    0.322301
     4  C   -0.072610
     5  H    0.160978
     6  C    0.641363
     7  C   -0.387608
     8  H    0.183694
     9  H    0.172497
    10  O   -0.581937
    11  C    0.173891
    12  C   -0.202661
    13  H    0.141228
    14  C   -0.204867
    15  H    0.198493
    16  C   -0.167577
    17  H    0.160716
    18  C   -0.155498
    19  H    0.166638
    20  C   -0.146305
    21  H    0.161947
    22  N   -0.428311
    23  C   -0.062866
    24  H    0.166329
    25  C    0.661257
    26  C   -0.311162
    27  H    0.185804
    28  H    0.170966
    29  O   -0.532087
    30  C   -0.296450
    31  H    0.193884
    32  H    0.176597
    33  C   -0.147224
    34  H    0.175716
    35  H    0.178108
    36  N   -0.622990
    37  H    0.358752
    38  C   -0.038848
    39  H    0.214320
    40  C    0.591763
    41  C   -0.295596
    42  H    0.175403
    43  H    0.182479
    44  O   -0.440906
    45  C   -0.310202
    46  H    0.175829
    47  H    0.154948
    48  C   -0.287462
    49  H    0.163420
    50  H    0.184144
    51  C   -0.188399
    52  H    0.198639
    53  H    0.194349
    54  N   -0.784849
    55  H    0.392055
    56  H    0.468560
    57  H    0.406926
    58  O   -0.584985
    59  H    0.430781
 Sum of Mulliken charges =   1.00000

 Dipole moment (field-independent basis, Debye):
    X=             -9.7535    Y=              4.0921    Z=              4.8116  Tot=             11.6202
 Quadrupole moment (field-independent basis, Debye-Ang):
   XX=           -121.4779   YY=           -133.5851   ZZ=           -119.0654
   XY=            -16.3061   XZ=              6.3895   YZ=             18.8972

 Normal termination of Gaussian 16 at Thu Jun  2 02:33:16 2022.
