 Gaussian 16, Revision C.01,
 Gaussian 16:  ES64L-G16RevC.01  3-Jul-2019

 ----------------------------------------------------------------------
 # B3LYP/6-31G* empiricaldispersion=gd3 guess=read geom=check nosymm in
 tegral(ultrafinegrid)
 ----------------------------------------------------------------------

 ------------------------------------------------------
 Candidate Structure: Conf:535 Charge calc in gas phase
 ------------------------------------------------------
 Structure from the checkpoint file:  "conf-535.chk"
 Charge =  1 Multiplicity = 1

                          Input orientation:
 ---------------------------------------------------------------------
 Center     Atomic      Atomic             Coordinates (Angstroms)
 Number     Number       Type             X           Y           Z
 ---------------------------------------------------------------------
      1          7           0       -3.760037    0.233798    4.387056
      2          1           0       -3.209317   -0.622170    4.310448
      3          1           0       -4.685572   -0.005050    4.032483
      4          6           0       -3.145733    1.234208    3.516409
      5          1           0       -3.853850    2.058510    3.393721
      6          6           0       -2.739184    0.637763    2.155499
      7          6           0       -1.864812    1.781652    4.211563
      8          1           0       -2.156329    2.034313    5.235448
      9          1           0       -1.147132    0.952531    4.271992
     10          8           0       -2.248844   -0.508796    2.140374
     11          6           0       -1.252428    2.974471    3.512927
     12          6           0       -1.600210    4.278299    3.892367
     13          1           0       -2.255331    4.428412    4.747648
     14          6           0       -0.402541    2.809569    2.410972
     15          1           0       -0.138199    1.807132    2.091794
     16          6           0       -1.127150    5.381393    3.178443
     17          1           0       -1.408600    6.384357    3.487427
     18          6           0        0.060921    3.904641    1.682018
     19          1           0        0.679603    3.740100    0.804741
     20          6           0       -0.302701    5.197519    2.065639
     21          1           0        0.052664    6.055280    1.501687
     22          7           0       -2.864747    1.379409    1.034662
     23          6           0       -2.445953    0.855765   -0.288194
     24          1           0       -2.803725   -0.173696   -0.389255
     25          6           0       -0.902304    0.867139   -0.399607
     26          6           0       -3.097968    1.825885   -1.280270
     27          1           0       -2.531291    1.891092   -2.210680
     28          1           0       -4.113724    1.483773   -1.507666
     29          8           0       -0.277190    1.757413   -0.961043
     30          6           0       -3.127770    3.153233   -0.507869
     31          1           0       -2.133826    3.607998   -0.528922
     32          1           0       -3.851572    3.869128   -0.905950
     33          6           0       -3.470151    2.727595    0.923880
     34          1           0       -4.554870    2.653650    1.074297
     35          1           0       -3.053455    3.405455    1.668859
     36          7           0       -0.308653   -0.210908    0.201900
     37          1           0       -0.904080   -0.732399    0.849838
     38          6           0        1.130359   -0.284897    0.356838
     39          1           0        1.529400    0.684337    0.028708
     40          6           0        1.711564   -1.345163   -0.587220
     41          6           0        1.534070   -0.582876    1.807638
     42          1           0        1.229254   -1.610899    2.039390
     43          1           0        0.950496    0.061815    2.469424
     44          8           0        2.415617   -2.280324   -0.238990
     45          6           0        3.041828   -0.374147    2.071629
     46          1           0        3.602684   -0.378513    1.130703
     47          1           0        3.201980    0.611951    2.519029
     48          6           0        3.658036   -1.430857    3.007747
     49          1           0        3.033631   -1.533606    3.907111
     50          1           0        4.651034   -1.095062    3.336937
     51          6           0        3.789154   -2.779463    2.308487
     52          1           0        2.839202   -3.180853    1.958773
     53          1           0        4.467245   -2.743371    1.454484
     54          7           0        4.372399   -3.817669    3.277824
     55          1           0        4.483487   -4.736443    2.832341
     56          1           0        3.763593   -3.938899    4.096251
     57          1           0        5.293468   -3.524868    3.626107
     58          8           0        1.361346   -1.128424   -1.858054
     59          1           0        1.751901   -1.838528   -2.402486
 ---------------------------------------------------------------------

 SCF Done:  E(RB3LYP) =  -1300.59190950     A.U. after    1 cycles

 Alpha  occ. eigenvalues --  -19.29657 -19.24808 -19.19641 -19.19580 -14.64599
 Alpha  occ. eigenvalues --  -14.44601 -14.43573 -14.38007 -10.42473 -10.40739
 Alpha  occ. eigenvalues --  -10.36422 -10.35917 -10.34564 -10.33441 -10.31352
 Alpha  occ. eigenvalues --  -10.30747 -10.30048 -10.29469 -10.29176 -10.26219
 Alpha  occ. eigenvalues --  -10.25890 -10.25734 -10.25375 -10.25347 -10.25296
 Alpha  occ. eigenvalues --  -10.25280 -10.25251 -10.25198  -1.20974  -1.18434
 Alpha  occ. eigenvalues --   -1.11919  -1.11801  -1.10775  -1.01830  -1.00996
 Alpha  occ. eigenvalues --   -0.95556  -0.95291  -0.91921  -0.89170  -0.86840
 Alpha  occ. eigenvalues --   -0.84472  -0.84260  -0.81798  -0.80795  -0.79218
 Alpha  occ. eigenvalues --   -0.77941  -0.77085  -0.76395  -0.73434  -0.72325
 Alpha  occ. eigenvalues --   -0.70223  -0.68913  -0.67414  -0.66956  -0.66619
 Alpha  occ. eigenvalues --   -0.65724  -0.64554  -0.63015  -0.61749  -0.60798
 Alpha  occ. eigenvalues --   -0.59668  -0.59040  -0.58588  -0.57893  -0.57482
 Alpha  occ. eigenvalues --   -0.56749  -0.54483  -0.54335  -0.53587  -0.53305
 Alpha  occ. eigenvalues --   -0.52831  -0.52451  -0.52235  -0.51678  -0.51154
 Alpha  occ. eigenvalues --   -0.50586  -0.49470  -0.48868  -0.48725  -0.48245
 Alpha  occ. eigenvalues --   -0.47812  -0.47396  -0.47162  -0.46209  -0.46043
 Alpha  occ. eigenvalues --   -0.45568  -0.45407  -0.44828  -0.43648  -0.43106
 Alpha  occ. eigenvalues --   -0.42540  -0.42064  -0.41853  -0.40820  -0.40578
 Alpha  occ. eigenvalues --   -0.40232  -0.39965  -0.38833  -0.34668  -0.34290
 Alpha  occ. eigenvalues --   -0.33174  -0.31826  -0.31331  -0.30779  -0.30117
 Alpha virt. eigenvalues --   -0.15175  -0.10002  -0.08556  -0.08446  -0.07076
 Alpha virt. eigenvalues --   -0.06796  -0.06533  -0.05453  -0.05243  -0.02130
 Alpha virt. eigenvalues --   -0.01778  -0.00981  -0.00230   0.00651   0.01934

 Mulliken charges:
               1
     1  N   -0.695090
     2  H    0.309335
     3  H    0.305727
     4  C   -0.062736
     5  H    0.153616
     6  C    0.591536
     7  C   -0.350984
     8  H    0.174872
     9  H    0.139171
    10  O   -0.591072
    11  C    0.148969
    12  C   -0.191758
    13  H    0.138518
    14  C   -0.196013
    15  H    0.126405
    16  C   -0.126192
    17  H    0.145028
    18  C   -0.137883
    19  H    0.150985
    20  C   -0.136895
    21  H    0.143673
    22  N   -0.429934
    23  C   -0.071253
    24  H    0.174361
    25  C    0.623456
    26  C   -0.293782
    27  H    0.181562
    28  H    0.153878
    29  O   -0.511193
    30  C   -0.310335
    31  H    0.190337
    32  H    0.161089
    33  C   -0.138780
    34  H    0.160090
    35  H    0.192818
    36  N   -0.628686
    37  H    0.381739
    38  C   -0.043788
    39  H    0.210317
    40  C    0.603688
    41  C   -0.297467
    42  H    0.141755
    43  H    0.188331
    44  O   -0.508269
    45  C   -0.269254
    46  H    0.167016
    47  H    0.182693
    48  C   -0.303323
    49  H    0.166202
    50  H    0.165379
    51  C   -0.197080
    52  H    0.245856
    53  H    0.234333
    54  N   -0.734606
    55  H    0.431260
    56  H    0.423901
    57  H    0.423183
    58  O   -0.528507
    59  H    0.423802
 Sum of Mulliken charges =   1.00000

 Dipole moment (field-independent basis, Debye):
    X=             14.5019    Y=            -12.3114    Z=             12.6810  Tot=             22.8623
 Quadrupole moment (field-independent basis, Debye-Ang):
   XX=            -65.3079   YY=            -92.1459   ZZ=           -118.6442
   XY=            -75.5934   XZ=             56.9105   YZ=            -39.4583

 Normal termination of Gaussian 16 at Thu Jun  2 02:25:18 2022.
