 Gaussian 16, Revision C.01,
 Gaussian 16:  ES64L-G16RevC.01  3-Jul-2019

 ----------------------------------------------------------------------
 # B3LYP/6-31G* empiricaldispersion=gd3 guess=read geom=check nosymm in
 tegral(ultrafinegrid)
 ----------------------------------------------------------------------

 ------------------------------------------------------
 Candidate Structure: Conf:497 Charge calc in gas phase
 ------------------------------------------------------
 Structure from the checkpoint file:  "conf-497.chk"
 Charge =  1 Multiplicity = 1

                          Input orientation:
 ---------------------------------------------------------------------
 Center     Atomic      Atomic             Coordinates (Angstroms)
 Number     Number       Type             X           Y           Z
 ---------------------------------------------------------------------
      1          7           0       -1.430285   -1.867616    4.318127
      2          1           0       -1.954696   -2.594224    3.829441
      3          1           0       -1.735109   -1.904168    5.290354
      4          6           0       -1.781531   -0.537490    3.769869
      5          1           0       -2.832916   -0.286110    3.958751
      6          6           0       -1.519883   -0.535987    2.257002
      7          6           0       -0.896549    0.525164    4.483968
      8          1           0       -0.905037    0.273450    5.552881
      9          1           0        0.137225    0.405001    4.138158
     10          8           0       -0.648244   -1.287728    1.757543
     11          6           0       -1.362710    1.948191    4.289204
     12          6           0       -2.477912    2.420593    4.995769
     13          1           0       -2.963395    1.779762    5.729781
     14          6           0       -0.737110    2.788110    3.362810
     15          1           0        0.110467    2.430528    2.789639
     16          6           0       -2.973769    3.703005    4.763525
     17          1           0       -3.837647    4.058488    5.317885
     18          6           0       -1.233544    4.071887    3.126579
     19          1           0       -0.744093    4.707677    2.394602
     20          6           0       -2.354188    4.530407    3.821865
     21          1           0       -2.739498    5.529414    3.638997
     22          7           0       -2.188556    0.305201    1.460913
     23          6           0       -1.776503    0.416942    0.041199
     24          1           0       -1.980462   -0.537380   -0.459084
     25          6           0       -0.282465    0.774924   -0.044479
     26          6           0       -2.672761    1.546969   -0.494933
     27          1           0       -2.169042    2.503194   -0.319405
     28          1           0       -2.864126    1.442069   -1.565399
     29          8           0        0.165390    1.746408    0.557883
     30          6           0       -3.935529    1.446609    0.371936
     31          1           0       -4.533208    2.361490    0.362360
     32          1           0       -4.571121    0.619352    0.035656
     33          6           0       -3.365459    1.154259    1.763793
     34          1           0       -4.064487    0.622893    2.414041
     35          1           0       -3.046504    2.071785    2.260882
     36          7           0        0.482216   -0.014237   -0.835998
     37          1           0        0.088910   -0.842734   -1.258029
     38          6           0        1.921013    0.205650   -0.919016
     39          1           0        2.072785    1.282509   -1.064988
     40          6           0        2.542099   -0.482972   -2.129015
     41          6           0        2.665287   -0.190995    0.376101
     42          1           0        2.205065    0.387290    1.183022
     43          1           0        3.704382    0.140074    0.279311
     44          8           0        3.733589   -0.626676   -2.267087
     45          6           0        2.633630   -1.695671    0.671208
     46          1           0        1.599583   -2.060356    0.612374
     47          1           0        3.194305   -2.220621   -0.110191
     48          6           0        3.261443   -2.065388    2.028758
     49          1           0        4.233373   -1.567596    2.130235
     50          1           0        3.473215   -3.143537    2.061937
     51          6           0        2.430870   -1.696682    3.260679
     52          1           0        2.970735   -1.912427    4.185989
     53          1           0        2.147860   -0.641004    3.263391
     54          7           0        1.145060   -2.473229    3.287331
     55          1           0        0.505889   -2.280523    4.092128
     56          1           0        1.309420   -3.481321    3.225819
     57          1           0        0.499741   -2.154018    2.511652
     58          8           0        1.625721   -0.914564   -3.026226
     59          1           0        2.121557   -1.317294   -3.765403
 ---------------------------------------------------------------------

 SCF Done:  E(RB3LYP) =  -1300.63804606     A.U. after    1 cycles

 Alpha  occ. eigenvalues --  -19.29783 -19.25232 -19.23578 -19.21633 -14.54918
 Alpha  occ. eigenvalues --  -14.49067 -14.46848 -14.46517 -10.42025 -10.41648
 Alpha  occ. eigenvalues --  -10.39043 -10.36939 -10.35789 -10.34283 -10.34069
 Alpha  occ. eigenvalues --  -10.32853 -10.31465 -10.31014 -10.29567 -10.29220
 Alpha  occ. eigenvalues --  -10.29198 -10.28817 -10.28789 -10.27850 -10.27540
 Alpha  occ. eigenvalues --  -10.27372 -10.27255 -10.27117  -1.20486  -1.16877
 Alpha  occ. eigenvalues --   -1.13720  -1.11481  -1.10511  -1.06107  -1.03010
 Alpha  occ. eigenvalues --   -1.02903  -0.94542  -0.92234  -0.91123  -0.88387
 Alpha  occ. eigenvalues --   -0.88333  -0.85621  -0.82923  -0.82366  -0.82224
 Alpha  occ. eigenvalues --   -0.77578  -0.76975  -0.74556  -0.72461  -0.71600
 Alpha  occ. eigenvalues --   -0.70065  -0.69635  -0.69199  -0.67971  -0.67503
 Alpha  occ. eigenvalues --   -0.67401  -0.66105  -0.64321  -0.62965  -0.62014
 Alpha  occ. eigenvalues --   -0.61419  -0.60835  -0.59264  -0.58819  -0.58318
 Alpha  occ. eigenvalues --   -0.57739  -0.57464  -0.56967  -0.56095  -0.55647
 Alpha  occ. eigenvalues --   -0.54364  -0.54108  -0.54003  -0.53390  -0.52346
 Alpha  occ. eigenvalues --   -0.51998  -0.51728  -0.51393  -0.51097  -0.50216
 Alpha  occ. eigenvalues --   -0.50039  -0.49647  -0.49372  -0.48783  -0.48458
 Alpha  occ. eigenvalues --   -0.48124  -0.47799  -0.46027  -0.45618  -0.44987
 Alpha  occ. eigenvalues --   -0.44658  -0.44460  -0.43712  -0.43489  -0.42856
 Alpha  occ. eigenvalues --   -0.42461  -0.41524  -0.39702  -0.39303  -0.37530
 Alpha  occ. eigenvalues --   -0.37271  -0.35830  -0.34997  -0.33486  -0.33231
 Alpha virt. eigenvalues --   -0.11720  -0.09331  -0.09199  -0.08670  -0.08099
 Alpha virt. eigenvalues --   -0.07484  -0.04589  -0.04118  -0.02680  -0.01430
 Alpha virt. eigenvalues --   -0.00794  -0.00165   0.00034   0.01049   0.01383

 Mulliken charges:
               1
     1  N   -0.775883
     2  H    0.330458
     3  H    0.337059
     4  C   -0.063170
     5  H    0.166847
     6  C    0.632705
     7  C   -0.363913
     8  H    0.164928
     9  H    0.150434
    10  O   -0.605936
    11  C    0.151727
    12  C   -0.184952
    13  H    0.126509
    14  C   -0.179513
    15  H    0.163613
    16  C   -0.132441
    17  H    0.151429
    18  C   -0.142524
    19  H    0.154671
    20  C   -0.131244
    21  H    0.153021
    22  N   -0.429639
    23  C   -0.027913
    24  H    0.159696
    25  C    0.650393
    26  C   -0.313663
    27  H    0.192311
    28  H    0.176145
    29  O   -0.534703
    30  C   -0.305742
    31  H    0.180367
    32  H    0.163526
    33  C   -0.145754
    34  H    0.167839
    35  H    0.213056
    36  N   -0.606486
    37  H    0.348662
    38  C   -0.049167
    39  H    0.219796
    40  C    0.586056
    41  C   -0.271379
    42  H    0.165450
    43  H    0.180198
    44  O   -0.446593
    45  C   -0.298656
    46  H    0.141670
    47  H    0.179467
    48  C   -0.289678
    49  H    0.188723
    50  H    0.156855
    51  C   -0.191745
    52  H    0.201510
    53  H    0.208257
    54  N   -0.776977
    55  H    0.416056
    56  H    0.380603
    57  H    0.451550
    58  O   -0.573284
    59  H    0.429366
 Sum of Mulliken charges =   1.00000

 Dipole moment (field-independent basis, Debye):
    X=             -3.3291    Y=             -6.5611    Z=             11.7219  Tot=             13.8396
 Quadrupole moment (field-independent basis, Debye-Ang):
   XX=           -132.8644   YY=           -130.7395   ZZ=            -96.9856
   XY=            -17.1361   XZ=             -6.5582   YZ=            -20.2552

 Normal termination of Gaussian 16 at Thu Jun  2 02:25:19 2022.
