 Gaussian 16, Revision C.01,
 Gaussian 16:  ES64L-G16RevC.01  3-Jul-2019

 ----------------------------------------------------------------------
 # B3LYP/6-31G* empiricaldispersion=gd3 guess=read geom=check nosymm in
 tegral(ultrafinegrid)
 ----------------------------------------------------------------------

 ------------------------------------------------------
 Candidate Structure: Conf:222 Charge calc in gas phase
 ------------------------------------------------------
 Structure from the checkpoint file:  "conf-222.chk"
 Charge =  1 Multiplicity = 1

                          Input orientation:
 ---------------------------------------------------------------------
 Center     Atomic      Atomic             Coordinates (Angstroms)
 Number     Number       Type             X           Y           Z
 ---------------------------------------------------------------------
      1          7           0       -1.402792   -0.440100   -4.011334
      2          1           0       -2.268269   -0.612239   -4.525590
      3          1           0       -1.032777   -1.368396   -3.802929
      4          6           0       -1.748440    0.211100   -2.751623
      5          1           0       -0.841994    0.199751   -2.147432
      6          6           0       -2.853204   -0.562223   -1.990932
      7          6           0       -2.123113    1.696343   -2.992298
      8          1           0       -2.656745    1.757096   -3.949040
      9          1           0       -2.830557    2.048141   -2.233269
     10          8           0       -3.637874   -1.280281   -2.592701
     11          6           0       -0.915399    2.615019   -3.011620
     12          6           0       -0.924366    3.817162   -2.292225
     13          1           0       -1.802049    4.087851   -1.710675
     14          6           0        0.236046    2.283492   -3.748912
     15          1           0        0.240212    1.355971   -4.314590
     16          6           0        0.167419    4.691350   -2.333057
     17          1           0        0.122398    5.636303   -1.797665
     18          6           0        1.335716    3.142973   -3.778765
     19          1           0        2.205140    2.884006   -4.377666
     20          6           0        1.304832    4.358786   -3.080261
     21          1           0        2.141351    5.050516   -3.143650
     22          7           0       -2.863584   -0.498774   -0.609333
     23          6           0       -2.255544    0.544645    0.224315
     24          1           0       -2.502932    1.551377   -0.126542
     25          6           0       -0.729194    0.523079    0.228958
     26          6           0       -2.868382    0.304631    1.634220
     27          1           0       -2.153413    0.512930    2.434598
     28          1           0       -3.718353    0.981451    1.765082
     29          8           0       -0.107817    1.575417    0.457334
     30          6           0       -3.350435   -1.153861    1.587267
     31          1           0       -2.516572   -1.840827    1.775893
     32          1           0       -4.130596   -1.360994    2.323830
     33          6           0       -3.842300   -1.304958    0.147371
     34          1           0       -4.854244   -0.901996    0.013138
     35          1           0       -3.839942   -2.329444   -0.228811
     36          7           0       -0.121162   -0.640533   -0.060726
     37          1           0       -0.715126   -1.399579   -0.387043
     38          6           0        1.257247   -0.660265   -0.530279
     39          1           0        1.416933    0.248383   -1.127105
     40          6           0        1.353848   -1.806815   -1.539023
     41          6           0        2.275116   -0.703876    0.634201
     42          1           0        2.298225   -1.725970    1.027482
     43          1           0        1.859599   -0.078280    1.432470
     44          8           0        0.402118   -2.463120   -1.904254
     45          6           0        3.708522   -0.242461    0.306941
     46          1           0        4.371289   -0.685743    1.058396
     47          1           0        4.029943   -0.655911   -0.653814
     48          6           0        3.985437    1.274576    0.330646
     49          1           0        5.071038    1.405256    0.265442
     50          1           0        3.699836    1.691296    1.307534
     51          6           0        3.368213    2.133695   -0.788789
     52          1           0        4.049233    2.929904   -1.099060
     53          1           0        3.121465    1.551774   -1.680246
     54          7           0        2.098773    2.824164   -0.362103
     55          1           0        1.696252    3.375871   -1.143275
     56          1           0        2.280846    3.474647    0.407865
     57          1           0        1.330337    2.173788   -0.030199
     58          8           0        2.600358   -1.967720   -2.005321
     59          1           0        2.584134   -2.699825   -2.653296
 ---------------------------------------------------------------------

 SCF Done:  E(RB3LYP) =  -1300.61928428     A.U. after    2 cycles

 Alpha  occ. eigenvalues --  -19.33160 -19.27689 -19.26510 -19.21018 -14.56983
 Alpha  occ. eigenvalues --  -14.49399 -14.46482 -14.40652 -10.45800 -10.42504
 Alpha  occ. eigenvalues --  -10.38525 -10.37922 -10.37760 -10.35133 -10.33013
 Alpha  occ. eigenvalues --  -10.32257 -10.31928 -10.31156 -10.31121 -10.30843
 Alpha  occ. eigenvalues --  -10.30571 -10.30504 -10.30354 -10.30254 -10.30020
 Alpha  occ. eigenvalues --  -10.29508 -10.29325 -10.28894  -1.24240  -1.17966
 Alpha  occ. eigenvalues --   -1.15351  -1.13126  -1.12234  -1.06844  -1.04230
 Alpha  occ. eigenvalues --   -0.98524  -0.96410  -0.94059  -0.90852  -0.89652
 Alpha  occ. eigenvalues --   -0.88394  -0.86177  -0.85407  -0.84409  -0.81969
 Alpha  occ. eigenvalues --   -0.79103  -0.77062  -0.75704  -0.73330  -0.72462
 Alpha  occ. eigenvalues --   -0.71633  -0.71469  -0.71154  -0.69926  -0.68960
 Alpha  occ. eigenvalues --   -0.68573  -0.67384  -0.64556  -0.63808  -0.62767
 Alpha  occ. eigenvalues --   -0.62093  -0.61354  -0.60866  -0.60331  -0.59107
 Alpha  occ. eigenvalues --   -0.58588  -0.58189  -0.56556  -0.56354  -0.56156
 Alpha  occ. eigenvalues --   -0.55353  -0.55093  -0.55050  -0.54099  -0.53949
 Alpha  occ. eigenvalues --   -0.53456  -0.53282  -0.52717  -0.52245  -0.51747
 Alpha  occ. eigenvalues --   -0.51424  -0.51122  -0.50275  -0.49282  -0.47854
 Alpha  occ. eigenvalues --   -0.47802  -0.47174  -0.46904  -0.46411  -0.46054
 Alpha  occ. eigenvalues --   -0.45643  -0.45258  -0.45145  -0.44861  -0.44640
 Alpha  occ. eigenvalues --   -0.44172  -0.43406  -0.41381  -0.40461  -0.39775
 Alpha  occ. eigenvalues --   -0.36424  -0.36148  -0.35478  -0.34141  -0.32963
 Alpha virt. eigenvalues --   -0.12909  -0.12274  -0.11986  -0.11643  -0.08485
 Alpha virt. eigenvalues --   -0.08012  -0.04831  -0.04396  -0.03299  -0.02714
 Alpha virt. eigenvalues --   -0.02304  -0.01746  -0.00145  -0.00016   0.00400

 Mulliken charges:
               1
     1  N   -0.712181
     2  H    0.327847
     3  H    0.320407
     4  C   -0.087950
     5  H    0.128258
     6  C    0.565030
     7  C   -0.335622
     8  H    0.195024
     9  H    0.156907
    10  O   -0.486707
    11  C    0.145191
    12  C   -0.178942
    13  H    0.149166
    14  C   -0.186287
    15  H    0.193647
    16  C   -0.163630
    17  H    0.159232
    18  C   -0.142473
    19  H    0.156233
    20  C   -0.202200
    21  H    0.156793
    22  N   -0.496193
    23  C   -0.023016
    24  H    0.181961
    25  C    0.603309
    26  C   -0.312553
    27  H    0.176375
    28  H    0.180026
    29  O   -0.582097
    30  C   -0.300154
    31  H    0.156385
    32  H    0.180844
    33  C   -0.120419
    34  H    0.175593
    35  H    0.192601
    36  N   -0.574062
    37  H    0.379914
    38  C   -0.059539
    39  H    0.164844
    40  C    0.602736
    41  C   -0.276704
    42  H    0.179289
    43  H    0.170011
    44  O   -0.453020
    45  C   -0.290978
    46  H    0.177256
    47  H    0.184074
    48  C   -0.297018
    49  H    0.192075
    50  H    0.159306
    51  C   -0.190352
    52  H    0.204829
    53  H    0.208364
    54  N   -0.795482
    55  H    0.410110
    56  H    0.393448
    57  H    0.454369
    58  O   -0.554579
    59  H    0.440706
 Sum of Mulliken charges =   1.00000

 Dipole moment (field-independent basis, Debye):
    X=              7.7339    Y=              7.0463    Z=             -1.0767  Tot=             10.5177
 Quadrupole moment (field-independent basis, Debye-Ang):
   XX=           -121.1590   YY=           -126.1731   ZZ=           -154.0359
   XY=              9.6566   XZ=            -16.6303   YZ=             -5.5162

 Normal termination of Gaussian 16 at Thu Jun  2 02:25:42 2022.
