 Gaussian 16, Revision C.01,
 Gaussian 16:  ES64L-G16RevC.01  3-Jul-2019

 ----------------------------------------------------------------------
 # B3LYP/6-31G* empiricaldispersion=gd3 guess=read geom=check nosymm in
 tegral(ultrafinegrid)
 ----------------------------------------------------------------------

 ------------------------------------------------------
 Candidate Structure: Conf:445 Charge calc in gas phase
 ------------------------------------------------------
 Structure from the checkpoint file:  "conf-445.chk"
 Charge =  1 Multiplicity = 1

                          Input orientation:
 ---------------------------------------------------------------------
 Center     Atomic      Atomic             Coordinates (Angstroms)
 Number     Number       Type             X           Y           Z
 ---------------------------------------------------------------------
      1          7           0       -4.055913   -1.334721    3.384740
      2          1           0       -3.291804   -1.933901    3.070730
      3          1           0       -4.861432   -1.611187    2.825467
      4          6           0       -3.681485    0.037757    3.046684
      5          1           0       -4.599534    0.623351    2.932306
      6          6           0       -2.869646    0.101567    1.738058
      7          6           0       -2.890590    0.683048    4.220957
      8          1           0       -2.576757    1.692965    3.937506
      9          1           0       -3.601802    0.786044    5.047189
     10          8           0       -2.195431   -0.875671    1.380976
     11          6           0       -1.681262   -0.076794    4.724853
     12          6           0       -1.837641   -1.187866    5.569360
     13          1           0       -2.839816   -1.543743    5.786040
     14          6           0       -0.381897    0.376943    4.447593
     15          1           0       -0.242030    1.213481    3.766699
     16          6           0       -0.725714   -1.797625    6.164072
     17          1           0       -0.877128   -2.594382    6.891388
     18          6           0        0.730514   -0.226776    5.038483
     19          1           0        1.723527    0.166483    4.839936
     20          6           0        0.565177   -1.305554    5.913031
     21          1           0        1.424765   -1.728211    6.429334
     22          7           0       -2.898991    1.241157    1.009288
     23          6           0       -2.107036    1.333305   -0.226592
     24          1           0       -2.413555    0.536045   -0.912136
     25          6           0       -0.613249    1.195397    0.107879
     26          6           0       -2.446100    2.738056   -0.772903
     27          1           0       -1.612743    3.176681   -1.327815
     28          1           0       -3.303053    2.666176   -1.451767
     29          8           0       -0.105430    1.810620    1.042675
     30          6           0       -2.817398    3.532585    0.488142
     31          1           0       -1.906997    3.823568    1.019856
     32          1           0       -3.408715    4.426881    0.275516
     33          6           0       -3.589277    2.505952    1.324123
     34          1           0       -4.643219    2.448427    1.020077
     35          1           0       -3.552083    2.726475    2.392167
     36          7           0        0.077655    0.359163   -0.713454
     37          1           0       -0.437909   -0.170242   -1.402972
     38          6           0        1.447085   -0.054694   -0.458563
     39          1           0        1.908895    0.734658    0.143904
     40          6           0        2.281646   -0.186754   -1.728825
     41          6           0        1.491617   -1.388665    0.332470
     42          1           0        2.523971   -1.753479    0.344231
     43          1           0        0.891261   -2.125185   -0.219696
     44          8           0        3.439352   -0.534657   -1.718200
     45          6           0        0.924693   -1.188821    1.744118
     46          1           0        1.697118   -0.764723    2.397346
     47          1           0        0.132921   -0.448150    1.705940
     48          6           0        0.281813   -2.411050    2.413496
     49          1           0       -0.302976   -2.980024    1.681095
     50          1           0       -0.435715   -2.027554    3.146359
     51          6           0        1.268420   -3.319141    3.136025
     52          1           0        1.774809   -4.042859    2.492946
     53          1           0        2.012135   -2.745179    3.693021
     54          7           0        0.503826   -4.108591    4.194177
     55          1           0        1.096927   -4.763048    4.715919
     56          1           0       -0.265871   -4.640524    3.773033
     57          1           0        0.089307   -3.426243    4.865273
     58          8           0        1.589831    0.090260   -2.855665
     59          1           0        2.209000   -0.030568   -3.601469
 ---------------------------------------------------------------------

 SCF Done:  E(RB3LYP) =  -1300.60210326     A.U. after    1 cycles

 Alpha  occ. eigenvalues --  -19.28673 -19.22499 -19.21056 -19.20502 -14.61394
 Alpha  occ. eigenvalues --  -14.45900 -14.45447 -14.40679 -10.40923 -10.39187
 Alpha  occ. eigenvalues --  -10.37797 -10.37543 -10.33235 -10.32409 -10.32000
 Alpha  occ. eigenvalues --  -10.31527 -10.31354 -10.30813 -10.30740 -10.30473
 Alpha  occ. eigenvalues --  -10.30044 -10.29734 -10.29481 -10.28879 -10.28762
 Alpha  occ. eigenvalues --  -10.28338 -10.28111 -10.27403  -1.19399  -1.15639
 Alpha  occ. eigenvalues --   -1.13273  -1.12010  -1.10376  -1.03543  -1.02104
 Alpha  occ. eigenvalues --   -0.98326  -0.96295  -0.92890  -0.89119  -0.88189
 Alpha  occ. eigenvalues --   -0.87869  -0.85358  -0.84643  -0.82435  -0.81696
 Alpha  occ. eigenvalues --   -0.77527  -0.75749  -0.74332  -0.73876  -0.72551
 Alpha  occ. eigenvalues --   -0.71294  -0.70320  -0.69342  -0.68951  -0.68753
 Alpha  occ. eigenvalues --   -0.67110  -0.64486  -0.64156  -0.62314  -0.61624
 Alpha  occ. eigenvalues --   -0.60669  -0.60055  -0.59034  -0.58138  -0.57246
 Alpha  occ. eigenvalues --   -0.56546  -0.56436  -0.55670  -0.55561  -0.54959
 Alpha  occ. eigenvalues --   -0.54264  -0.53689  -0.53140  -0.52707  -0.52263
 Alpha  occ. eigenvalues --   -0.51732  -0.51024  -0.50546  -0.50239  -0.49862
 Alpha  occ. eigenvalues --   -0.49436  -0.48556  -0.47844  -0.47777  -0.47143
 Alpha  occ. eigenvalues --   -0.46926  -0.46519  -0.45346  -0.44731  -0.44546
 Alpha  occ. eigenvalues --   -0.44300  -0.44083  -0.43640  -0.43054  -0.43032
 Alpha  occ. eigenvalues --   -0.42784  -0.40321  -0.37234  -0.36442  -0.36034
 Alpha  occ. eigenvalues --   -0.35254  -0.34892  -0.34315  -0.33153  -0.32841
 Alpha virt. eigenvalues --   -0.12751  -0.12012  -0.11255  -0.07970  -0.07705
 Alpha virt. eigenvalues --   -0.06903  -0.06255  -0.04125  -0.02822  -0.01729
 Alpha virt. eigenvalues --   -0.01482  -0.00732  -0.00651   0.00137   0.00662

 Mulliken charges:
               1
     1  N   -0.707858
     2  H    0.304584
     3  H    0.314690
     4  C   -0.085316
     5  H    0.158875
     6  C    0.600039
     7  C   -0.350378
     8  H    0.167566
     9  H    0.182155
    10  O   -0.567373
    11  C    0.155908
    12  C   -0.163700
    13  H    0.178625
    14  C   -0.187398
    15  H    0.188333
    16  C   -0.212236
    17  H    0.155329
    18  C   -0.128938
    19  H    0.160259
    20  C   -0.175042
    21  H    0.148048
    22  N   -0.429745
    23  C   -0.055777
    24  H    0.157514
    25  C    0.654929
    26  C   -0.310243
    27  H    0.179167
    28  H    0.166069
    29  O   -0.542774
    30  C   -0.294913
    31  H    0.188661
    32  H    0.168025
    33  C   -0.139842
    34  H    0.166872
    35  H    0.171968
    36  N   -0.588344
    37  H    0.342710
    38  C   -0.072735
    39  H    0.218219
    40  C    0.592409
    41  C   -0.271279
    42  H    0.175179
    43  H    0.140070
    44  O   -0.449992
    45  C   -0.293411
    46  H    0.141890
    47  H    0.219119
    48  C   -0.296672
    49  H    0.172468
    50  H    0.176389
    51  C   -0.193541
    52  H    0.215544
    53  H    0.211442
    54  N   -0.746862
    55  H    0.413436
    56  H    0.413369
    57  H    0.405339
    58  O   -0.567035
    59  H    0.426206
 Sum of Mulliken charges =   1.00000

 Dipole moment (field-independent basis, Debye):
    X=             -3.0934    Y=            -11.6568    Z=             13.4231  Tot=             18.0452
 Quadrupole moment (field-independent basis, Debye-Ang):
   XX=           -143.2575   YY=            -92.3971   ZZ=            -83.7170
   XY=            -20.1640   XZ=              5.4083   YZ=            -59.6092

 Normal termination of Gaussian 16 at Thu Jun  2 02:25:20 2022.
