 Gaussian 16, Revision C.01,
 Gaussian 16:  ES64L-G16RevC.01  3-Jul-2019

 ----------------------------------------------------------------------
 # B3LYP/6-31G* empiricaldispersion=gd3 guess=read geom=check nosymm in
 tegral(ultrafinegrid)
 ----------------------------------------------------------------------

 ------------------------------------------------------
 Candidate Structure: Conf:304 Charge calc in gas phase
 ------------------------------------------------------
 Structure from the checkpoint file:  "conf-304.chk"
 Charge =  1 Multiplicity = 1

                          Input orientation:
 ---------------------------------------------------------------------
 Center     Atomic      Atomic             Coordinates (Angstroms)
 Number     Number       Type             X           Y           Z
 ---------------------------------------------------------------------
      1          7           0       -1.902971   -2.193379    2.834147
      2          1           0       -2.307123   -3.081228    2.538184
      3          1           0       -2.317845   -1.985452    3.744125
      4          6           0       -2.329539   -1.149140    1.894876
      5          1           0       -1.996516   -1.454822    0.897346
      6          6           0       -1.617953    0.152882    2.287674
      7          6           0       -3.877293   -0.922902    1.861359
      8          1           0       -4.124450   -0.180269    1.094732
      9          1           0       -4.333121   -1.867998    1.541652
     10          8           0       -1.096639    0.265456    3.415878
     11          6           0       -4.438069   -0.491659    3.197349
     12          6           0       -4.881716   -1.441091    4.128443
     13          1           0       -4.886802   -2.495531    3.859543
     14          6           0       -4.477147    0.864736    3.550184
     15          1           0       -4.146300    1.613286    2.833662
     16          6           0       -5.345745   -1.046366    5.385358
     17          1           0       -5.695935   -1.794163    6.091230
     18          6           0       -4.941352    1.262251    4.803118
     19          1           0       -4.972357    2.317792    5.057829
     20          6           0       -5.373737    0.306566    5.725858
     21          1           0       -5.740959    0.616347    6.699847
     22          7           0       -1.630400    1.192904    1.434898
     23          6           0       -1.847388    1.142987   -0.023206
     24          1           0       -2.695226    0.499751   -0.268961
     25          6           0       -0.541872    0.631360   -0.672586
     26          6           0       -2.125883    2.616509   -0.362297
     27          1           0       -1.918729    2.844790   -1.410775
     28          1           0       -3.185703    2.818430   -0.172690
     29          8           0        0.497946    1.273663   -0.588436
     30          6           0       -1.228982    3.407209    0.612301
     31          1           0       -0.247128    3.564307    0.165614
     32          1           0       -1.659409    4.380868    0.859006
     33          6           0       -1.098008    2.508720    1.858046
     34          1           0       -1.688786    2.851898    2.712473
     35          1           0       -0.062288    2.398575    2.189340
     36          7           0       -0.611914   -0.610031   -1.235740
     37          1           0       -1.524978   -0.977500   -1.471887
     38          6           0        0.517009   -1.186096   -1.980584
     39          1           0        0.767678   -0.507710   -2.811058
     40          6           0        0.077787   -2.499377   -2.634962
     41          6           0        1.805102   -1.399073   -1.162497
     42          1           0        2.218477   -0.417128   -0.924889
     43          1           0        2.502777   -1.896653   -1.840962
     44          8           0        0.816387   -3.418611   -2.885697
     45          6           0        1.650631   -2.244048    0.118519
     46          1           0        0.826214   -2.960418    0.003247
     47          1           0        2.555258   -2.849222    0.252709
     48          6           0        1.426962   -1.403438    1.386245
     49          1           0        0.531109   -0.790399    1.273291
     50          1           0        2.265965   -0.707184    1.518336
     51          6           0        1.283285   -2.294019    2.615740
     52          1           0        0.461529   -3.000177    2.495485
     53          1           0        2.207697   -2.832827    2.842698
     54          7           0        0.918517   -1.479427    3.836357
     55          1           0        0.808444   -2.074649    4.662015
     56          1           0        0.002717   -0.955707    3.690640
     57          1           0        1.634370   -0.777581    4.048507
     58          8           0       -1.245576   -2.501971   -2.940314
     59          1           0       -1.435524   -3.346060   -3.393344
 ---------------------------------------------------------------------

 SCF Done:  E(RB3LYP) =  -1300.62041833     A.U. after    1 cycles

 Alpha  occ. eigenvalues --  -19.31033 -19.24938 -19.24567 -19.23060 -14.57307
 Alpha  occ. eigenvalues --  -14.48791 -14.48064 -14.44573 -10.43178 -10.40988
 Alpha  occ. eigenvalues --  -10.40227 -10.37047 -10.35396 -10.35206 -10.34885
 Alpha  occ. eigenvalues --  -10.32172 -10.31399 -10.30385 -10.29967 -10.29749
 Alpha  occ. eigenvalues --  -10.29069 -10.28807 -10.28310 -10.28047 -10.27900
 Alpha  occ. eigenvalues --  -10.27693 -10.27635 -10.27431  -1.21696  -1.16396
 Alpha  occ. eigenvalues --   -1.15092  -1.12776  -1.11960  -1.06201  -1.04199
 Alpha  occ. eigenvalues --   -1.01553  -0.94459  -0.92650  -0.90701  -0.89137
 Alpha  occ. eigenvalues --   -0.87699  -0.85747  -0.83243  -0.82868  -0.82088
 Alpha  occ. eigenvalues --   -0.77464  -0.77181  -0.74522  -0.73633  -0.71438
 Alpha  occ. eigenvalues --   -0.70608  -0.69690  -0.69457  -0.69338  -0.67699
 Alpha  occ. eigenvalues --   -0.67600  -0.66850  -0.64745  -0.63741  -0.62372
 Alpha  occ. eigenvalues --   -0.61310  -0.60649  -0.59808  -0.59001  -0.58638
 Alpha  occ. eigenvalues --   -0.57653  -0.57432  -0.56898  -0.55903  -0.55087
 Alpha  occ. eigenvalues --   -0.54920  -0.54466  -0.53922  -0.53510  -0.52992
 Alpha  occ. eigenvalues --   -0.52853  -0.52115  -0.51523  -0.51172  -0.50789
 Alpha  occ. eigenvalues --   -0.50365  -0.50100  -0.49264  -0.48807  -0.48386
 Alpha  occ. eigenvalues --   -0.47937  -0.47305  -0.45992  -0.45428  -0.45285
 Alpha  occ. eigenvalues --   -0.44903  -0.44719  -0.44042  -0.43926  -0.42993
 Alpha  occ. eigenvalues --   -0.42946  -0.42835  -0.38650  -0.38553  -0.38077
 Alpha  occ. eigenvalues --   -0.37776  -0.37210  -0.35081  -0.33799  -0.33264
 Alpha virt. eigenvalues --   -0.12066  -0.10437  -0.09618  -0.09397  -0.09197
 Alpha virt. eigenvalues --   -0.08774  -0.05197  -0.03897  -0.03323  -0.02687
 Alpha virt. eigenvalues --   -0.01724  -0.00949   0.00260   0.01363   0.01443

 Mulliken charges:
               1
     1  N   -0.757321
     2  H    0.319491
     3  H    0.330019
     4  C   -0.080778
     5  H    0.152348
     6  C    0.637186
     7  C   -0.377977
     8  H    0.165039
     9  H    0.164140
    10  O   -0.587059
    11  C    0.165442
    12  C   -0.204273
    13  H    0.126639
    14  C   -0.173184
    15  H    0.127637
    16  C   -0.126428
    17  H    0.150612
    18  C   -0.126853
    19  H    0.149135
    20  C   -0.126665
    21  H    0.153828
    22  N   -0.425586
    23  C   -0.109504
    24  H    0.156009
    25  C    0.647512
    26  C   -0.286682
    27  H    0.179871
    28  H    0.168657
    29  O   -0.512361
    30  C   -0.311928
    31  H    0.198008
    32  H    0.170908
    33  C   -0.112449
    34  H    0.180163
    35  H    0.175073
    36  N   -0.641325
    37  H    0.361356
    38  C   -0.034992
    39  H    0.210470
    40  C    0.583970
    41  C   -0.284204
    42  H    0.190528
    43  H    0.187989
    44  O   -0.434446
    45  C   -0.271471
    46  H    0.144650
    47  H    0.164221
    48  C   -0.299092
    49  H    0.177989
    50  H    0.164475
    51  C   -0.174714
    52  H    0.215043
    53  H    0.195050
    54  N   -0.768261
    55  H    0.399995
    56  H    0.470729
    57  H    0.396528
    58  O   -0.586779
    59  H    0.433621
 Sum of Mulliken charges =   1.00000

 Dipole moment (field-independent basis, Debye):
    X=             -4.4386    Y=             -5.5536    Z=             10.0207  Tot=             12.2865
 Quadrupole moment (field-independent basis, Debye-Ang):
   XX=           -133.4638   YY=           -136.2042   ZZ=           -101.8818
   XY=             -0.0065   XZ=              3.4010   YZ=            -16.0703

 Normal termination of Gaussian 16 at Thu Jun  2 02:25:21 2022.
