 Gaussian 16, Revision C.01,
 Gaussian 16:  ES64L-G16RevC.01  3-Jul-2019

 ----------------------------------------------------------------------
 # B3LYP/6-31G* empiricaldispersion=gd3 guess=read geom=check nosymm in
 tegral(ultrafinegrid)
 ----------------------------------------------------------------------

 ------------------------------------------------------
 Candidate Structure: Conf:950 Charge calc in gas phase
 ------------------------------------------------------
 Structure from the checkpoint file:  "conf-950.chk"
 Charge =  1 Multiplicity = 1

                          Input orientation:
 ---------------------------------------------------------------------
 Center     Atomic      Atomic             Coordinates (Angstroms)
 Number     Number       Type             X           Y           Z
 ---------------------------------------------------------------------
      1          7           0       -4.652348    0.864107   -3.442510
      2          1           0       -5.046435    0.798078   -4.380198
      3          1           0       -4.964825    1.761255   -3.070049
      4          6           0       -3.186047    0.868334   -3.538540
      5          1           0       -2.903307   -0.067392   -4.039661
      6          6           0       -2.641794    0.832302   -2.106110
      7          6           0       -2.566416    2.043483   -4.328309
      8          1           0       -2.816313    2.976527   -3.811739
      9          1           0       -1.473877    1.955134   -4.293743
     10          8           0       -2.058138    1.781294   -1.589140
     11          6           0       -3.055621    2.059102   -5.757414
     12          6           0       -2.432877    1.266505   -6.731881
     13          1           0       -1.554257    0.682813   -6.463020
     14          6           0       -4.179866    2.810327   -6.126905
     15          1           0       -4.666499    3.442475   -5.387295
     16          6           0       -2.916608    1.226124   -8.039554
     17          1           0       -2.415600    0.612464   -8.783345
     18          6           0       -4.668840    2.772460   -7.434560
     19          1           0       -5.536890    3.367847   -7.703950
     20          6           0       -4.038782    1.978792   -8.394226
     21          1           0       -4.414622    1.951699   -9.413016
     22          7           0       -2.826150   -0.331562   -1.390365
     23          6           0       -2.574780   -0.291483    0.051805
     24          1           0       -2.972372    0.629850    0.487644
     25          6           0       -1.086659   -0.269471    0.417431
     26          6           0       -3.292019   -1.552743    0.591069
     27          1           0       -2.778553   -1.981683    1.456198
     28          1           0       -4.303636   -1.279036    0.907361
     29          8           0       -0.774852    0.030646    1.586892
     30          6           0       -3.349554   -2.488214   -0.627651
     31          1           0       -2.386364   -2.995755   -0.763705
     32          1           0       -4.125579   -3.253133   -0.543189
     33          6           0       -3.605861   -1.521480   -1.789084
     34          1           0       -4.662337   -1.258626   -1.897375
     35          1           0       -3.256040   -1.908100   -2.750032
     36          7           0       -0.241881   -0.633036   -0.558190
     37          1           0       -0.703087   -0.768479   -1.453175
     38          6           0        1.211205   -0.440889   -0.648759
     39          1           0        1.385249    0.563659   -1.065339
     40          6           0        1.779952   -1.416389   -1.687977
     41          6           0        1.974751   -0.544450    0.675344
     42          1           0        1.665047    0.304756    1.287257
     43          1           0        3.035690   -0.411078    0.440930
     44          8           0        2.857949   -1.952094   -1.605815
     45          6           0        1.778258   -1.874270    1.413984
     46          1           0        0.708290   -2.106933    1.481105
     47          1           0        2.227709   -2.680184    0.826504
     48          6           0        2.405727   -1.897805    2.819044
     49          1           0        3.496785   -1.814962    2.746219
     50          1           0        2.204962   -2.867396    3.293394
     51          6           0        1.950351   -0.775733    3.753787
     52          1           0        2.314896   -0.929959    4.772223
     53          1           0        2.283249    0.206988    3.414292
     54          7           0        0.439155   -0.695979    3.819176
     55          1           0        0.128689    0.014191    4.489677
     56          1           0        0.034960   -1.590750    4.113085
     57          1           0        0.011249   -0.440321    2.872455
     58          8           0        0.942012   -1.564187   -2.739265
     59          1           0        1.374636   -2.162071   -3.379102
 ---------------------------------------------------------------------

 SCF Done:  E(RB3LYP) =  -1300.60868121     A.U. after    2 cycles

 Alpha  occ. eigenvalues --  -19.31558 -19.25738 -19.25225 -19.20822 -14.58874
 Alpha  occ. eigenvalues --  -14.48741 -14.45970 -14.40044 -10.43903 -10.41779
 Alpha  occ. eigenvalues --  -10.39061 -10.37448 -10.36580 -10.33643 -10.33057
 Alpha  occ. eigenvalues --  -10.31339 -10.31179 -10.31025 -10.30686 -10.29897
 Alpha  occ. eigenvalues --  -10.29025 -10.25987 -10.25744 -10.25153 -10.25089
 Alpha  occ. eigenvalues --  -10.25050 -10.24994 -10.24801  -1.22361  -1.16491
 Alpha  occ. eigenvalues --   -1.13592  -1.13505  -1.12876  -1.05902  -1.03585
 Alpha  occ. eigenvalues --   -0.97369  -0.94219  -0.91524  -0.90669  -0.89180
 Alpha  occ. eigenvalues --   -0.85664  -0.84305  -0.84010  -0.80456  -0.79501
 Alpha  occ. eigenvalues --   -0.79125  -0.75566  -0.74030  -0.73570  -0.71948
 Alpha  occ. eigenvalues --   -0.71436  -0.70902  -0.69367  -0.68369  -0.66634
 Alpha  occ. eigenvalues --   -0.66241  -0.64749  -0.63923  -0.63348  -0.61373
 Alpha  occ. eigenvalues --   -0.60981  -0.60651  -0.60447  -0.59359  -0.57737
 Alpha  occ. eigenvalues --   -0.57027  -0.56015  -0.55393  -0.54913  -0.54488
 Alpha  occ. eigenvalues --   -0.53809  -0.53474  -0.52755  -0.52663  -0.52289
 Alpha  occ. eigenvalues --   -0.51869  -0.51363  -0.51161  -0.50761  -0.50245
 Alpha  occ. eigenvalues --   -0.49777  -0.49597  -0.48078  -0.47500  -0.47029
 Alpha  occ. eigenvalues --   -0.46507  -0.46321  -0.45999  -0.45720  -0.45292
 Alpha  occ. eigenvalues --   -0.44411  -0.44126  -0.43540  -0.43058  -0.41725
 Alpha  occ. eigenvalues --   -0.40452  -0.40034  -0.39986  -0.39451  -0.37743
 Alpha  occ. eigenvalues --   -0.34490  -0.33918  -0.32689  -0.31045  -0.30282
 Alpha virt. eigenvalues --   -0.11375  -0.10864  -0.10376  -0.07857  -0.06377
 Alpha virt. eigenvalues --   -0.06233  -0.05255  -0.04138  -0.03003  -0.02077
 Alpha virt. eigenvalues --   -0.01592  -0.00192   0.00624   0.01186   0.01392

 Mulliken charges:
               1
     1  N   -0.724390
     2  H    0.327209
     3  H    0.310393
     4  C   -0.084590
     5  H    0.150014
     6  C    0.606522
     7  C   -0.350849
     8  H    0.165804
     9  H    0.148230
    10  O   -0.516065
    11  C    0.163220
    12  C   -0.179842
    13  H    0.116032
    14  C   -0.197429
    15  H    0.126138
    16  C   -0.126786
    17  H    0.139686
    18  C   -0.126827
    19  H    0.143613
    20  C   -0.129297
    21  H    0.144541
    22  N   -0.501567
    23  C   -0.019108
    24  H    0.199946
    25  C    0.655994
    26  C   -0.307045
    27  H    0.145101
    28  H    0.179492
    29  O   -0.611950
    30  C   -0.300518
    31  H    0.148174
    32  H    0.176608
    33  C   -0.115143
    34  H    0.200340
    35  H    0.163647
    36  N   -0.608666
    37  H    0.380406
    38  C   -0.043767
    39  H    0.220301
    40  C    0.602225
    41  C   -0.281654
    42  H    0.153713
    43  H    0.187396
    44  O   -0.437422
    45  C   -0.297767
    46  H    0.135289
    47  H    0.196842
    48  C   -0.292709
    49  H    0.198026
    50  H    0.169476
    51  C   -0.198219
    52  H    0.212011
    53  H    0.218362
    54  N   -0.771637
    55  H    0.410405
    56  H    0.399273
    57  H    0.471588
    58  O   -0.578545
    59  H    0.435774
 Sum of Mulliken charges =   1.00000

 Dipole moment (field-independent basis, Debye):
    X=             -1.7247    Y=             -5.6195    Z=              6.3960  Tot=              8.6869
 Quadrupole moment (field-independent basis, Debye-Ang):
   XX=           -134.2876   YY=           -154.2149   ZZ=            -72.4743
   XY=             -1.9984   XZ=             28.2565   YZ=             -9.2689

 Normal termination of Gaussian 16 at Thu Jun  2 02:33:21 2022.
