 Gaussian 16, Revision C.01,
 Gaussian 16:  ES64L-G16RevC.01  3-Jul-2019

 ----------------------------------------------------------------------
 # B3LYP/6-31G* empiricaldispersion=gd3 guess=read geom=check nosymm in
 tegral(ultrafinegrid)
 ----------------------------------------------------------------------

 ------------------------------------------------------
 Candidate Structure: Conf:797 Charge calc in gas phase
 ------------------------------------------------------
 Structure from the checkpoint file:  "conf-797.chk"
 Charge =  1 Multiplicity = 1

                          Input orientation:
 ---------------------------------------------------------------------
 Center     Atomic      Atomic             Coordinates (Angstroms)
 Number     Number       Type             X           Y           Z
 ---------------------------------------------------------------------
      1          7           0       -3.844822   -1.784438   -3.408172
      2          1           0       -3.904966   -2.350580   -4.251839
      3          1           0       -3.417965   -0.892654   -3.653237
      4          6           0       -3.017600   -2.454180   -2.419163
      5          1           0       -3.573924   -3.321684   -2.047451
      6          6           0       -2.744804   -1.461706   -1.294093
      7          6           0       -1.619348   -2.957951   -2.919490
      8          1           0       -1.060131   -2.077742   -3.260402
      9          1           0       -1.058535   -3.391834   -2.079436
     10          8           0       -2.472042   -0.286350   -1.524241
     11          6           0       -1.753062   -3.973898   -4.025630
     12          6           0       -1.924289   -5.332459   -3.725652
     13          1           0       -1.902037   -5.657621   -2.686949
     14          6           0       -1.778263   -3.575964   -5.369526
     15          1           0       -1.636480   -2.526785   -5.618814
     16          6           0       -2.114225   -6.270415   -4.739911
     17          1           0       -2.239772   -7.320258   -4.489515
     18          6           0       -1.970079   -4.511917   -6.388256
     19          1           0       -1.982864   -4.186476   -7.424780
     20          6           0       -2.139346   -5.861408   -6.075674
     21          1           0       -2.285897   -6.590992   -6.866934
     22          7           0       -2.680188   -1.941712   -0.005944
     23          6           0       -2.454722   -0.986008    1.077759
     24          1           0       -3.084773   -0.100959    0.955616
     25          6           0       -1.020434   -0.446969    1.114563
     26          6           0       -2.800698   -1.791553    2.352325
     27          1           0       -2.215487   -1.468025    3.217872
     28          1           0       -3.858289   -1.641784    2.592129
     29          8           0       -0.783565    0.566665    1.803496
     30          6           0       -2.546143   -3.250589    1.938030
     31          1           0       -1.473388   -3.476668    1.975145
     32          1           0       -3.066124   -3.974064    2.570752
     33          6           0       -3.032501   -3.287687    0.482988
     34          1           0       -4.115948   -3.451497    0.424033
     35          1           0       -2.533900   -4.061257   -0.106730
     36          7           0       -0.116124   -1.163986    0.440743
     37          1           0       -0.491490   -1.953534   -0.077450
     38          6           0        1.266370   -0.844177    0.112732
     39          1           0        1.281171   -0.143106   -0.735385
     40          6           0        1.879855   -2.147444   -0.414379
     41          6           0        2.072980   -0.208316    1.258411
     42          1           0        1.678102    0.799971    1.394751
     43          1           0        3.104483   -0.091596    0.913172
     44          8           0        1.242000   -3.150167   -0.648915
     45          6           0        2.048925   -1.015815    2.566306
     46          1           0        1.042500   -1.412521    2.748133
     47          1           0        2.699977   -1.888778    2.446524
     48          6           0        2.510236   -0.211545    3.798203
     49          1           0        3.319981    0.480294    3.527181
     50          1           0        2.936801   -0.889541    4.546191
     51          6           0        1.401929    0.547558    4.528873
     52          1           0        0.597250   -0.127116    4.834114
     53          1           0        1.787583    1.055265    5.416602
     54          7           0        0.742454    1.599113    3.663139
     55          1           0        0.053690    2.140498    4.195417
     56          1           0        0.211745    1.155513    2.839538
     57          1           0        1.430419    2.261611    3.292563
     58          8           0        3.199908   -2.023755   -0.617713
     59          1           0        3.521396   -2.861060   -1.005468
 ---------------------------------------------------------------------

 SCF Done:  E(RB3LYP) =  -1300.61012336     A.U. after    2 cycles

 Alpha  occ. eigenvalues --  -19.32097 -19.26675 -19.25602 -19.20461 -14.58946
 Alpha  occ. eigenvalues --  -14.48848 -14.46190 -14.37712 -10.44726 -10.42004
 Alpha  occ. eigenvalues --  -10.39661 -10.37221 -10.37183 -10.33877 -10.33837
 Alpha  occ. eigenvalues --  -10.32401 -10.32388 -10.32216 -10.30220 -10.29980
 Alpha  occ. eigenvalues --  -10.29547 -10.26576 -10.26177 -10.25276 -10.25185
 Alpha  occ. eigenvalues --  -10.25124 -10.25072 -10.24879  -1.23181  -1.16868
 Alpha  occ. eigenvalues --   -1.14379  -1.13726  -1.12746  -1.06255  -1.03908
 Alpha  occ. eigenvalues --   -0.95858  -0.94901  -0.91576  -0.91520  -0.89662
 Alpha  occ. eigenvalues --   -0.86338  -0.84737  -0.84183  -0.80553  -0.79180
 Alpha  occ. eigenvalues --   -0.79031  -0.76435  -0.74857  -0.74240  -0.72906
 Alpha  occ. eigenvalues --   -0.71583  -0.71248  -0.70097  -0.68835  -0.66733
 Alpha  occ. eigenvalues --   -0.66383  -0.64438  -0.64328  -0.63756  -0.62100
 Alpha  occ. eigenvalues --   -0.61269  -0.60432  -0.60103  -0.59821  -0.58248
 Alpha  occ. eigenvalues --   -0.57448  -0.57220  -0.56060  -0.55139  -0.54584
 Alpha  occ. eigenvalues --   -0.54134  -0.53910  -0.53654  -0.53133  -0.52714
 Alpha  occ. eigenvalues --   -0.52447  -0.51898  -0.51104  -0.50515  -0.50198
 Alpha  occ. eigenvalues --   -0.50037  -0.49052  -0.48256  -0.47995  -0.47664
 Alpha  occ. eigenvalues --   -0.47535  -0.47190  -0.46308  -0.45706  -0.45269
 Alpha  occ. eigenvalues --   -0.44680  -0.44481  -0.44198  -0.43293  -0.41739
 Alpha  occ. eigenvalues --   -0.40456  -0.40240  -0.40105  -0.39754  -0.39001
 Alpha  occ. eigenvalues --   -0.34284  -0.34055  -0.31417  -0.30994  -0.29490
 Alpha virt. eigenvalues --   -0.12027  -0.10892  -0.10467  -0.07876  -0.06400
 Alpha virt. eigenvalues --   -0.06141  -0.05674  -0.04550  -0.04099  -0.03273
 Alpha virt. eigenvalues --   -0.01775  -0.00905   0.00207   0.00853   0.01114

 Mulliken charges:
               1
     1  N   -0.713824
     2  H    0.315821
     3  H    0.316328
     4  C   -0.057458
     5  H    0.152777
     6  C    0.608640
     7  C   -0.392593
     8  H    0.151205
     9  H    0.152382
    10  O   -0.527983
    11  C    0.174562
    12  C   -0.178949
    13  H    0.117613
    14  C   -0.196686
    15  H    0.129145
    16  C   -0.126878
    17  H    0.141320
    18  C   -0.127159
    19  H    0.144338
    20  C   -0.128135
    21  H    0.145243
    22  N   -0.500731
    23  C   -0.020480
    24  H    0.206894
    25  C    0.656346
    26  C   -0.308434
    27  H    0.147513
    28  H    0.182763
    29  O   -0.614710
    30  C   -0.305722
    31  H    0.155092
    32  H    0.178705
    33  C   -0.131965
    34  H    0.182568
    35  H    0.178901
    36  N   -0.612888
    37  H    0.390027
    38  C   -0.029264
    39  H    0.220844
    40  C    0.596877
    41  C   -0.294828
    42  H    0.131958
    43  H    0.196221
    44  O   -0.451949
    45  C   -0.289026
    46  H    0.158757
    47  H    0.181267
    48  C   -0.291228
    49  H    0.169661
    50  H    0.198025
    51  C   -0.196520
    52  H    0.211332
    53  H    0.212574
    54  N   -0.770856
    55  H    0.410626
    56  H    0.472882
    57  H    0.400104
    58  O   -0.559493
    59  H    0.438451
 Sum of Mulliken charges =   1.00000

 Dipole moment (field-independent basis, Debye):
    X=              4.7531    Y=             -2.7066    Z=             12.3523  Tot=             13.5091
 Quadrupole moment (field-independent basis, Debye-Ang):
   XX=           -144.7100   YY=           -127.2549   ZZ=            -87.5545
   XY=             13.5221   XZ=              9.4830   YZ=             25.5213

 Normal termination of Gaussian 16 at Thu Jun  2 02:33:26 2022.
