 Gaussian 16, Revision C.01,
 Gaussian 16:  ES64L-G16RevC.01  3-Jul-2019

 ----------------------------------------------------------------------
 # B3LYP/6-31G* empiricaldispersion=gd3 guess=read geom=check nosymm in
 tegral(ultrafinegrid)
 ----------------------------------------------------------------------

 ------------------------------------------------------
 Candidate Structure: Conf:123 Charge calc in gas phase
 ------------------------------------------------------
 Structure from the checkpoint file:  "conf-123.chk"
 Charge =  1 Multiplicity = 1

                          Input orientation:
 ---------------------------------------------------------------------
 Center     Atomic      Atomic             Coordinates (Angstroms)
 Number     Number       Type             X           Y           Z
 ---------------------------------------------------------------------
      1          7           0       -4.712337    3.077509    0.970612
      2          1           0       -4.370062    2.516164    1.751830
      3          1           0       -5.699783    2.852757    0.865658
      4          6           0       -3.974030    2.684044   -0.218657
      5          1           0       -4.531115    2.989687   -1.108001
      6          6           0       -3.589685    1.192349   -0.242045
      7          6           0       -2.569612    3.357064   -0.238571
      8          1           0       -2.132061    3.127359    0.742691
      9          1           0       -1.971686    2.825962   -0.987157
     10          8           0       -3.266392    0.636013    0.813009
     11          6           0       -2.482695    4.838140   -0.508926
     12          6           0       -1.758082    5.294316   -1.621726
     13          1           0       -1.340634    4.571303   -2.323534
     14          6           0       -3.058100    5.782516    0.355632
     15          1           0       -3.635197    5.432408    1.204982
     16          6           0       -1.605237    6.661973   -1.869534
     17          1           0       -1.049262    6.997376   -2.740771
     18          6           0       -2.911752    7.145850    0.103723
     19          1           0       -3.367809    7.867586    0.775612
     20          6           0       -2.181746    7.590463   -1.003726
     21          1           0       -2.069506    8.654305   -1.191531
     22          7           0       -3.390013    0.579974   -1.439807
     23          6           0       -2.496060   -0.584619   -1.490448
     24          1           0       -2.931165   -1.418860   -0.930669
     25          6           0       -1.146823   -0.175821   -0.886191
     26          6           0       -2.362278   -0.887226   -3.004586
     27          1           0       -1.439687   -0.436915   -3.383589
     28          1           0       -2.326369   -1.961006   -3.201798
     29          8           0       -0.581630    0.853085   -1.314193
     30          6           0       -3.580292   -0.190012   -3.636005
     31          1           0       -3.433610    0.037556   -4.694882
     32          1           0       -4.473563   -0.816716   -3.541525
     33          6           0       -3.740903    1.070475   -2.779732
     34          1           0       -4.759128    1.466150   -2.791816
     35          1           0       -3.051547    1.864004   -3.100596
     36          7           0       -0.616023   -0.958783    0.061337
     37          1           0       -1.167473   -1.725826    0.425821
     38          6           0        0.657673   -0.676065    0.712027
     39          1           0        1.207421   -0.006331    0.050456
     40          6           0        1.524422   -1.924095    0.855350
     41          6           0        0.478565   -0.042992    2.116959
     42          1           0        1.473565    0.047363    2.570000
     43          1           0       -0.074204   -0.767413    2.726122
     44          8           0        2.724487   -1.876260    0.968060
     45          6           0       -0.265767    1.306995    2.142513
     46          1           0       -1.027216    1.327858    1.359200
     47          1           0       -0.838377    1.360623    3.074459
     48          6           0        0.618558    2.568076    2.113131
     49          1           0        1.287575    2.556612    2.982665
     50          1           0       -0.017181    3.455650    2.237325
     51          6           0        1.521523    2.783553    0.900116
     52          1           0        2.144012    3.671598    1.034997
     53          1           0        2.179591    1.930960    0.714287
     54          7           0        0.727831    2.993847   -0.370803
     55          1           0        1.343626    3.228823   -1.155449
     56          1           0        0.051048    3.765587   -0.283343
     57          1           0        0.197034    2.117099   -0.653348
     58          8           0        0.788356   -3.053742    0.916995
     59          1           0        1.401572   -3.800801    1.059919
 ---------------------------------------------------------------------

 SCF Done:  E(RB3LYP) =  -1300.61741754     A.U. after    2 cycles

 Alpha  occ. eigenvalues --  -19.31352 -19.26130 -19.25253 -19.22190 -14.58020
 Alpha  occ. eigenvalues --  -14.49997 -14.47167 -14.40807 -10.43660 -10.42658
 Alpha  occ. eigenvalues --  -10.38660 -10.38569 -10.36646 -10.35063 -10.32989
 Alpha  occ. eigenvalues --  -10.32648 -10.32639 -10.31417 -10.30509 -10.30141
 Alpha  occ. eigenvalues --  -10.29674 -10.29489 -10.29181 -10.28576 -10.28030
 Alpha  occ. eigenvalues --  -10.27591 -10.27533 -10.27201  -1.22066  -1.17637
 Alpha  occ. eigenvalues --   -1.14117  -1.13220  -1.12891  -1.06426  -1.05184
 Alpha  occ. eigenvalues --   -0.98569  -0.94428  -0.93785  -0.90981  -0.89965
 Alpha  occ. eigenvalues --   -0.87425  -0.86507  -0.84302  -0.83220  -0.81510
 Alpha  occ. eigenvalues --   -0.78605  -0.76632  -0.74498  -0.73494  -0.72373
 Alpha  occ. eigenvalues --   -0.72088  -0.71441  -0.70577  -0.69817  -0.69385
 Alpha  occ. eigenvalues --   -0.67300  -0.66780  -0.63878  -0.63337  -0.62673
 Alpha  occ. eigenvalues --   -0.62250  -0.60532  -0.59425  -0.59328  -0.59198
 Alpha  occ. eigenvalues --   -0.58625  -0.58415  -0.57200  -0.55991  -0.55461
 Alpha  occ. eigenvalues --   -0.54807  -0.54435  -0.54017  -0.53555  -0.53307
 Alpha  occ. eigenvalues --   -0.52691  -0.52475  -0.52013  -0.51292  -0.51129
 Alpha  occ. eigenvalues --   -0.50907  -0.50595  -0.50110  -0.49458  -0.48200
 Alpha  occ. eigenvalues --   -0.47185  -0.46702  -0.46584  -0.46188  -0.45834
 Alpha  occ. eigenvalues --   -0.45760  -0.45525  -0.44600  -0.43712  -0.43131
 Alpha  occ. eigenvalues --   -0.43028  -0.42706  -0.41023  -0.40287  -0.37878
 Alpha  occ. eigenvalues --   -0.36484  -0.35219  -0.34263  -0.33613  -0.32598
 Alpha virt. eigenvalues --   -0.12138  -0.10680  -0.10169  -0.10051  -0.08626
 Alpha virt. eigenvalues --   -0.08104  -0.04365  -0.03855  -0.03587  -0.02472
 Alpha virt. eigenvalues --   -0.01794  -0.01061  -0.00151   0.00243   0.00562

 Mulliken charges:
               1
     1  N   -0.700338
     2  H    0.319208
     3  H    0.318462
     4  C   -0.057917
     5  H    0.156804
     6  C    0.572467
     7  C   -0.406864
     8  H    0.153763
     9  H    0.150985
    10  O   -0.549706
    11  C    0.154250
    12  C   -0.234818
    13  H    0.113413
    14  C   -0.169334
    15  H    0.173351
    16  C   -0.126921
    17  H    0.145987
    18  C   -0.129780
    19  H    0.155026
    20  C   -0.126467
    21  H    0.154357
    22  N   -0.426494
    23  C   -0.020295
    24  H    0.173699
    25  C    0.656923
    26  C   -0.320343
    27  H    0.177611
    28  H    0.178843
    29  O   -0.602472
    30  C   -0.297566
    31  H    0.176026
    32  H    0.175224
    33  C   -0.131811
    34  H    0.181262
    35  H    0.161810
    36  N   -0.564261
    37  H    0.371236
    38  C   -0.078277
    39  H    0.174783
    40  C    0.600934
    41  C   -0.283564
    42  H    0.179143
    43  H    0.177520
    44  O   -0.437382
    45  C   -0.304444
    46  H    0.187122
    47  H    0.182476
    48  C   -0.298405
    49  H    0.190919
    50  H    0.174167
    51  C   -0.200256
    52  H    0.212114
    53  H    0.212865
    54  N   -0.790231
    55  H    0.403757
    56  H    0.409881
    57  H    0.466302
    58  O   -0.571527
    59  H    0.436785
 Sum of Mulliken charges =   1.00000

 Dipole moment (field-independent basis, Debye):
    X=             -2.9624    Y=              7.7487    Z=             -2.2771  Tot=              8.6026
 Quadrupole moment (field-independent basis, Debye-Ang):
   XX=           -139.7255   YY=           -101.9851   ZZ=           -142.0815
   XY=              3.2549   XZ=             12.8579   YZ=             -4.0390

 Normal termination of Gaussian 16 at Thu Jun  2 02:25:39 2022.
