 Gaussian 16, Revision C.01,
 Gaussian 16:  ES64L-G16RevC.01  3-Jul-2019

 ----------------------------------------------------------------------
 # B3LYP/6-31G* empiricaldispersion=gd3 guess=read geom=check nosymm in
 tegral(ultrafinegrid)
 ----------------------------------------------------------------------

 ------------------------------------------------------
 Candidate Structure: Conf:684 Charge calc in gas phase
 ------------------------------------------------------
 Structure from the checkpoint file:  "conf-684.chk"
 Charge =  1 Multiplicity = 1

                          Input orientation:
 ---------------------------------------------------------------------
 Center     Atomic      Atomic             Coordinates (Angstroms)
 Number     Number       Type             X           Y           Z
 ---------------------------------------------------------------------
      1          7           0       -1.197749    3.628341    1.495948
      2          1           0       -0.617022    3.574820    0.661072
      3          1           0       -0.583285    3.529538    2.301462
      4          6           0       -2.190230    2.562586    1.477136
      5          1           0       -1.739509    1.550576    1.410342
      6          6           0       -3.054226    2.825473    0.217940
      7          6           0       -3.056661    2.612364    2.754072
      8          1           0       -2.431955    2.935654    3.593912
      9          1           0       -3.821098    3.382169    2.607031
     10          8           0       -3.946598    3.658252    0.233892
     11          6           0       -3.672096    1.268430    3.069875
     12          6           0       -4.525300    0.629041    2.150462
     13          1           0       -4.822588    1.155553    1.247774
     14          6           0       -3.357251    0.590567    4.261139
     15          1           0       -2.723735    1.078744    4.998275
     16          6           0       -5.024663   -0.651198    2.403838
     17          1           0       -5.698522   -1.117336    1.689854
     18          6           0       -3.868210   -0.687199    4.526091
     19          1           0       -3.634117   -1.177462    5.467295
     20          6           0       -4.692797   -1.319216    3.591306
     21          1           0       -5.103227   -2.303355    3.798707
     22          7           0       -2.694676    2.193305   -0.951070
     23          6           0       -2.114203    0.863259   -1.070236
     24          1           0       -2.665839    0.139677   -0.449459
     25          6           0       -0.641976    0.788036   -0.659865
     26          6           0       -2.292842    0.501871   -2.579903
     27          1           0       -1.443361   -0.062207   -2.977901
     28          1           0       -3.190551   -0.114385   -2.694598
     29          8           0        0.093892    1.743027   -0.520599
     30          6           0       -2.489794    1.867112   -3.256911
     31          1           0       -1.522076    2.353727   -3.419196
     32          1           0       -3.001254    1.785762   -4.219138
     33          6           0       -3.297157    2.643738   -2.218762
     34          1           0       -4.365747    2.392337   -2.251297
     35          1           0       -3.208094    3.728644   -2.296680
     36          7           0       -0.224917   -0.531197   -0.380423
     37          1           0       -0.712204   -1.221494   -0.948483
     38          6           0        1.223990   -0.794764   -0.270755
     39          1           0        1.712471    0.186853   -0.293248
     40          6           0        1.775373   -1.571811   -1.465806
     41          6           0        1.573211   -1.495608    1.052529
     42          1           0        2.639390   -1.733180    1.038324
     43          1           0        1.057097   -2.464469    1.075238
     44          8           0        2.843686   -2.128958   -1.463689
     45          6           0        1.213779   -0.624580    2.280542
     46          1           0        2.125070   -0.187038    2.699823
     47          1           0        0.611738    0.238470    1.963372
     48          6           0        0.480965   -1.361661    3.418143
     49          1           0        0.247268   -0.645722    4.216245
     50          1           0        1.134812   -2.119554    3.865172
     51          6           0       -0.805239   -2.081963    3.005314
     52          1           0       -0.612108   -2.964125    2.391205
     53          1           0       -1.392959   -2.387284    3.873520
     54          7           0       -1.689860   -1.179679    2.182168
     55          1           0       -2.603937   -1.605650    1.986278
     56          1           0       -1.223283   -0.913792    1.284781
     57          1           0       -1.926388   -0.316237    2.697650
     58          8           0        0.934390   -1.549665   -2.531083
     59          1           0        1.376056   -2.034450   -3.255693
 ---------------------------------------------------------------------

 SCF Done:  E(RB3LYP) =  -1300.59207238     A.U. after    3 cycles

 Alpha  occ. eigenvalues --  -19.32373 -19.26845 -19.26117 -19.21423 -14.59218
 Alpha  occ. eigenvalues --  -14.50888 -14.46615 -14.41043 -10.44495 -10.42973
 Alpha  occ. eigenvalues --  -10.39621 -10.38294 -10.36932 -10.36568 -10.33815
 Alpha  occ. eigenvalues --  -10.33421 -10.32562 -10.32467 -10.32156 -10.32144
 Alpha  occ. eigenvalues --  -10.32123 -10.31924 -10.31829 -10.31555 -10.31413
 Alpha  occ. eigenvalues --  -10.31392 -10.29264 -10.29197  -1.22910  -1.18579
 Alpha  occ. eigenvalues --   -1.14463  -1.14053  -1.13601  -1.06832  -1.05002
 Alpha  occ. eigenvalues --   -0.99260  -0.98052  -0.94990  -0.91430  -0.89895
 Alpha  occ. eigenvalues --   -0.89771  -0.87301  -0.86994  -0.84722  -0.82618
 Alpha  occ. eigenvalues --   -0.79545  -0.77504  -0.74986  -0.74061  -0.73493
 Alpha  occ. eigenvalues --   -0.73075  -0.72514  -0.71927  -0.71632  -0.70609
 Alpha  occ. eigenvalues --   -0.69304  -0.67145  -0.65067  -0.63626  -0.63360
 Alpha  occ. eigenvalues --   -0.63259  -0.61659  -0.61187  -0.60346  -0.59732
 Alpha  occ. eigenvalues --   -0.58930  -0.58528  -0.58320  -0.57580  -0.57033
 Alpha  occ. eigenvalues --   -0.56235  -0.55852  -0.54919  -0.54729  -0.54649
 Alpha  occ. eigenvalues --   -0.54279  -0.54078  -0.52884  -0.52315  -0.52027
 Alpha  occ. eigenvalues --   -0.51623  -0.51326  -0.50752  -0.50487  -0.49659
 Alpha  occ. eigenvalues --   -0.48016  -0.47955  -0.47364  -0.47098  -0.46979
 Alpha  occ. eigenvalues --   -0.46673  -0.46403  -0.45998  -0.45662  -0.44962
 Alpha  occ. eigenvalues --   -0.44097  -0.43684  -0.42927  -0.39716  -0.38959
 Alpha  occ. eigenvalues --   -0.38467  -0.37404  -0.35691  -0.34255  -0.32959
 Alpha virt. eigenvalues --   -0.14232  -0.13549  -0.13040  -0.11526  -0.10000
 Alpha virt. eigenvalues --   -0.08945  -0.05764  -0.05517  -0.04415  -0.03033
 Alpha virt. eigenvalues --   -0.02478  -0.02183  -0.01479  -0.01046  -0.00400

 Mulliken charges:
               1
     1  N   -0.711887
     2  H    0.340234
     3  H    0.303913
     4  C   -0.018863
     5  H    0.043742
     6  C    0.598274
     7  C   -0.354983
     8  H    0.151437
     9  H    0.227429
    10  O   -0.485081
    11  C    0.131762
    12  C   -0.193969
    13  H    0.182319
    14  C   -0.244474
    15  H    0.161478
    16  C   -0.161897
    17  H    0.168017
    18  C   -0.130633
    19  H    0.167206
    20  C   -0.166807
    21  H    0.168550
    22  N   -0.448956
    23  C   -0.054305
    24  H    0.127699
    25  C    0.614800
    26  C   -0.330123
    27  H    0.177889
    28  H    0.170532
    29  O   -0.465338
    30  C   -0.294191
    31  H    0.178623
    32  H    0.178367
    33  C   -0.119729
    34  H    0.166447
    35  H    0.199570
    36  N   -0.676851
    37  H    0.354962
    38  C   -0.076100
    39  H    0.241884
    40  C    0.593910
    41  C   -0.282060
    42  H    0.213950
    43  H    0.137569
    44  O   -0.424016
    45  C   -0.310500
    46  H    0.194562
    47  H    0.151451
    48  C   -0.293207
    49  H    0.173420
    50  H    0.197697
    51  C   -0.192569
    52  H    0.204240
    53  H    0.213810
    54  N   -0.799866
    55  H    0.400104
    56  H    0.437874
    57  H    0.408577
    58  O   -0.583593
    59  H    0.437699
 Sum of Mulliken charges =   1.00000

 Dipole moment (field-independent basis, Debye):
    X=             -6.8376    Y=             -8.0221    Z=              5.9461  Tot=             12.1022
 Quadrupole moment (field-independent basis, Debye-Ang):
   XX=           -147.7223   YY=           -165.6257   ZZ=           -108.1791
   XY=             21.4816   XZ=             -5.8862   YZ=            -13.0922

 Normal termination of Gaussian 16 at Thu Jun  2 02:25:43 2022.
