 Gaussian 16, Revision C.01,
 Gaussian 16:  ES64L-G16RevC.01  3-Jul-2019

 ----------------------------------------------------------------------
 # B3LYP/6-31G* empiricaldispersion=gd3 guess=read geom=check nosymm in
 tegral(ultrafinegrid)
 ----------------------------------------------------------------------

 ------------------------------------------------------
 Candidate Structure: Conf:474 Charge calc in gas phase
 ------------------------------------------------------
 Structure from the checkpoint file:  "conf-474.chk"
 Charge =  1 Multiplicity = 1

                          Input orientation:
 ---------------------------------------------------------------------
 Center     Atomic      Atomic             Coordinates (Angstroms)
 Number     Number       Type             X           Y           Z
 ---------------------------------------------------------------------
      1          7           0       -3.331330    2.597557    0.868435
      2          1           0       -3.454084    3.598278    1.015064
      3          1           0       -2.449009    2.342966    1.306660
      4          6           0       -3.286552    2.321275   -0.563244
      5          1           0       -4.248273    2.636462   -0.971856
      6          6           0       -3.073608    0.832403   -0.787743
      7          6           0       -2.179154    3.058266   -1.386606
      8          1           0       -1.199614    2.758822   -0.988805
      9          1           0       -2.207186    2.695585   -2.421255
     10          8           0       -2.096706    0.245011   -0.253964
     11          6           0       -2.344690    4.554918   -1.320137
     12          6           0       -1.748134    5.302340   -0.295448
     13          1           0       -1.101242    4.804495    0.425975
     14          6           0       -3.160604    5.219245   -2.245923
     15          1           0       -3.625484    4.654241   -3.051074
     16          6           0       -1.957315    6.679123   -0.195702
     17          1           0       -1.481146    7.243903    0.600791
     18          6           0       -3.372159    6.594548   -2.151352
     19          1           0       -4.000856    7.095419   -2.881886
     20          6           0       -2.772207    7.327839   -1.124638
     21          1           0       -2.934135    8.399243   -1.053082
     22          7           0       -3.874628    0.177852   -1.633639
     23          6           0       -3.475641   -1.130266   -2.177154
     24          1           0       -3.452100   -1.868586   -1.368396
     25          6           0       -2.093568   -0.995124   -2.843762
     26          6           0       -4.567606   -1.446068   -3.227600
     27          1           0       -4.223458   -1.119661   -4.214944
     28          1           0       -4.786334   -2.515106   -3.279416
     29          8           0       -1.749564    0.053000   -3.380191
     30          6           0       -5.767261   -0.595882   -2.785529
     31          1           0       -6.472756   -0.399860   -3.596763
     32          1           0       -6.310418   -1.087275   -1.970794
     33          6           0       -5.107523    0.686049   -2.270193
     34          1           0       -5.725546    1.217936   -1.544711
     35          1           0       -4.849718    1.363722   -3.093538
     36          7           0       -1.335530   -2.116985   -2.813034
     37          1           0       -1.693377   -2.951534   -2.369807
     38          6           0        0.028985   -2.157941   -3.338194
     39          1           0       -0.003537   -1.964299   -4.419700
     40          6           0        0.626317   -3.556696   -3.179550
     41          6           0        0.950790   -1.100148   -2.694212
     42          1           0        0.645462   -0.122719   -3.074893
     43          1           0        1.971546   -1.300371   -3.033400
     44          8           0        1.810986   -3.786168   -3.192797
     45          6           0        0.870043   -1.101568   -1.165794
     46          1           0       -0.178314   -0.994007   -0.871640
     47          1           0        1.215577   -2.065617   -0.768408
     48          6           0        1.701466    0.021683   -0.530954
     49          1           0        1.591982    0.954478   -1.103973
     50          1           0        2.768497   -0.225400   -0.565539
     51          6           0        1.327265    0.281269    0.927571
     52          1           0        1.119125   -0.649285    1.462051
     53          1           0        2.103071    0.829025    1.468825
     54          7           0        0.065749    1.121767    1.024663
     55          1           0       -0.225197    1.230262    2.001339
     56          1           0       -0.790235    0.742856    0.479280
     57          1           0        0.242785    2.061327    0.655677
     58          8           0       -0.319043   -4.518453   -3.044771
     59          1           0        0.148836   -5.373373   -2.980298
 ---------------------------------------------------------------------

 SCF Done:  E(RB3LYP) =  -1300.61369551     A.U. after    1 cycles

 Alpha  occ. eigenvalues --  -19.30274 -19.25330 -19.24118 -19.21858 -14.58331
 Alpha  occ. eigenvalues --  -14.48753 -14.46802 -14.42887 -10.42491 -10.41099
 Alpha  occ. eigenvalues --  -10.39218 -10.38579 -10.34512 -10.34349 -10.33711
 Alpha  occ. eigenvalues --  -10.33357 -10.32089 -10.29860 -10.29849 -10.29494
 Alpha  occ. eigenvalues --  -10.29404 -10.28975 -10.28477 -10.28274 -10.27742
 Alpha  occ. eigenvalues --  -10.27721 -10.27484 -10.27321  -1.20964  -1.16565
 Alpha  occ. eigenvalues --   -1.13838  -1.12943  -1.11987  -1.06312  -1.03333
 Alpha  occ. eigenvalues --   -1.00372  -0.94356  -0.92990  -0.91197  -0.89003
 Alpha  occ. eigenvalues --   -0.87509  -0.86019  -0.83204  -0.83112  -0.82004
 Alpha  occ. eigenvalues --   -0.77451  -0.77261  -0.74152  -0.73480  -0.72057
 Alpha  occ. eigenvalues --   -0.70820  -0.70493  -0.69682  -0.69379  -0.67805
 Alpha  occ. eigenvalues --   -0.67243  -0.66481  -0.64339  -0.63764  -0.62934
 Alpha  occ. eigenvalues --   -0.61769  -0.59980  -0.59523  -0.58828  -0.58014
 Alpha  occ. eigenvalues --   -0.57437  -0.56903  -0.56771  -0.55879  -0.55348
 Alpha  occ. eigenvalues --   -0.54757  -0.54408  -0.54200  -0.53491  -0.52481
 Alpha  occ. eigenvalues --   -0.51983  -0.51696  -0.51524  -0.51278  -0.51068
 Alpha  occ. eigenvalues --   -0.50775  -0.50711  -0.49208  -0.48783  -0.48057
 Alpha  occ. eigenvalues --   -0.47451  -0.47270  -0.45837  -0.45555  -0.45338
 Alpha  occ. eigenvalues --   -0.44700  -0.44441  -0.44392  -0.43906  -0.43003
 Alpha  occ. eigenvalues --   -0.42829  -0.42130  -0.39487  -0.37862  -0.37096
 Alpha  occ. eigenvalues --   -0.36036  -0.35407  -0.35254  -0.33754  -0.32937
 Alpha virt. eigenvalues --   -0.11982  -0.11190  -0.09563  -0.09083  -0.08554
 Alpha virt. eigenvalues --   -0.07712  -0.06294  -0.04299  -0.03169  -0.01696
 Alpha virt. eigenvalues --   -0.00928  -0.00345   0.00005   0.00218   0.00946

 Mulliken charges:
               1
     1  N   -0.696397
     2  H    0.329695
     3  H    0.264045
     4  C   -0.090621
     5  H    0.174983
     6  C    0.687216
     7  C   -0.378466
     8  H    0.094684
     9  H    0.197543
    10  O   -0.617383
    11  C    0.183037
    12  C   -0.191302
    13  H    0.084556
    14  C   -0.179620
    15  H    0.134729
    16  C   -0.124319
    17  H    0.147725
    18  C   -0.124922
    19  H    0.154212
    20  C   -0.126574
    21  H    0.155527
    22  N   -0.431097
    23  C   -0.040641
    24  H    0.171325
    25  C    0.645629
    26  C   -0.316588
    27  H    0.184767
    28  H    0.176663
    29  O   -0.534036
    30  C   -0.299422
    31  H    0.181240
    32  H    0.173352
    33  C   -0.143733
    34  H    0.191340
    35  H    0.181595
    36  N   -0.637635
    37  H    0.357368
    38  C   -0.027244
    39  H    0.213687
    40  C    0.582454
    41  C   -0.287053
    42  H    0.182027
    43  H    0.183843
    44  O   -0.440820
    45  C   -0.303971
    46  H    0.172258
    47  H    0.157650
    48  C   -0.284554
    49  H    0.158048
    50  H    0.194984
    51  C   -0.188257
    52  H    0.212944
    53  H    0.204826
    54  N   -0.795673
    55  H    0.401756
    56  H    0.471195
    57  H    0.400633
    58  O   -0.579376
    59  H    0.432166
 Sum of Mulliken charges =   1.00000

 Dipole moment (field-independent basis, Debye):
    X=             -6.7330    Y=              2.8543    Z=             -1.4104  Tot=              7.4478
 Quadrupole moment (field-independent basis, Debye-Ang):
   XX=           -123.6160   YY=           -107.6910   ZZ=           -145.0093
   XY=             -3.1311   XZ=             29.8198   YZ=             12.6800

 Normal termination of Gaussian 16 at Thu Jun  2 02:25:18 2022.
