 Gaussian 16, Revision C.01,
 Gaussian 16:  ES64L-G16RevC.01  3-Jul-2019

 ----------------------------------------------------------------------
 # B3LYP/6-31G* empiricaldispersion=gd3 guess=read geom=check nosymm in
 tegral(ultrafinegrid)
 ----------------------------------------------------------------------

 ------------------------------------------------------
 Candidate Structure: Conf:962 Charge calc in gas phase
 ------------------------------------------------------
 Structure from the checkpoint file:  "conf-962.chk"
 Charge =  1 Multiplicity = 1

                          Input orientation:
 ---------------------------------------------------------------------
 Center     Atomic      Atomic             Coordinates (Angstroms)
 Number     Number       Type             X           Y           Z
 ---------------------------------------------------------------------
      1          7           0       -0.611180    2.680442   -3.272090
      2          1           0       -0.332742    3.653437   -3.414986
      3          1           0       -0.922448    2.256705   -4.162615
      4          6           0       -1.770066    2.534493   -2.320921
      5          1           0       -1.365500    2.587412   -1.310568
      6          6           0       -2.351078    1.150997   -2.684895
      7          6           0       -2.815638    3.640901   -2.586199
      8          1           0       -2.341673    4.615477   -2.411340
      9          1           0       -3.102129    3.591177   -3.643791
     10          8           0       -2.371102    0.855820   -3.885593
     11          6           0       -4.032974    3.482625   -1.701122
     12          6           0       -5.097615    2.666313   -2.106824
     13          1           0       -5.076713    2.207580   -3.092864
     14          6           0       -4.071065    4.072871   -0.431679
     15          1           0       -3.251255    4.709920   -0.107462
     16          6           0       -6.173772    2.430322   -1.250379
     17          1           0       -6.996828    1.801471   -1.578158
     18          6           0       -5.146725    3.837472    0.426720
     19          1           0       -5.163860    4.299353    1.409437
     20          6           0       -6.197144    3.010893    0.020838
     21          1           0       -7.035884    2.830278    0.686861
     22          7           0       -2.848302    0.363501   -1.715761
     23          6           0       -2.842296    0.630495   -0.262937
     24          1           0       -3.188363    1.639561   -0.045140
     25          6           0       -1.441690    0.524035    0.366485
     26          6           0       -3.841965   -0.415557    0.281464
     27          1           0       -3.611261   -0.701021    1.310597
     28          1           0       -4.843209    0.027343    0.266431
     29          8           0       -1.129668    1.276024    1.278917
     30          6           0       -3.752970   -1.578177   -0.719964
     31          1           0       -2.877488   -2.200108   -0.501857
     32          1           0       -4.635089   -2.222972   -0.701637
     33          6           0       -3.584071   -0.869710   -2.068600
     34          1           0       -4.548280   -0.590533   -2.510831
     35          1           0       -3.026314   -1.438858   -2.816041
     36          7           0       -0.624200   -0.462631   -0.127224
     37          1           0       -0.888445   -0.803307   -1.043472
     38          6           0        0.816015   -0.371167    0.096974
     39          1           0        0.928269    0.334327    0.929312
     40          6           0        1.483365    0.294557   -1.145914
     41          6           0        1.442310   -1.718249    0.490391
     42          1           0        1.613386   -2.306134   -0.420586
     43          1           0        0.718416   -2.282587    1.086275
     44          8           0        2.697807    0.061745   -1.423393
     45          6           0        2.745828   -1.531059    1.295957
     46          1           0        3.205629   -0.573496    1.023088
     47          1           0        2.502310   -1.440065    2.360153
     48          6           0        3.784599   -2.652622    1.128612
     49          1           0        3.384022   -3.608682    1.486612
     50          1           0        4.659402   -2.432524    1.754747
     51          6           0        4.243596   -2.871815   -0.315818
     52          1           0        5.117869   -3.526983   -0.359490
     53          1           0        3.458046   -3.313826   -0.932383
     54          7           0        4.591890   -1.563215   -0.971951
     55          1           0        4.972829   -1.705325   -1.911145
     56          1           0        5.300947   -1.057661   -0.432901
     57          1           0        3.695510   -0.881430   -1.081880
     58          8           0        0.745204    1.064519   -1.797959
     59          1           0        0.195982    2.095955   -2.881108
 ---------------------------------------------------------------------

 SCF Done:  E(RB3LYP) =  -1300.63125539     A.U. after    1 cycles

 Alpha  occ. eigenvalues --  -19.23075 -19.21461 -19.20892 -19.20692 -14.54524
 Alpha  occ. eigenvalues --  -14.54351 -14.47626 -14.44753 -10.40166 -10.39024
 Alpha  occ. eigenvalues --  -10.37606 -10.36700 -10.36335 -10.32783 -10.31809
 Alpha  occ. eigenvalues --  -10.31788 -10.31268 -10.30902 -10.29331 -10.29282
 Alpha  occ. eigenvalues --  -10.28712 -10.28640 -10.28462 -10.28035 -10.28012
 Alpha  occ. eigenvalues --  -10.27835 -10.27715 -10.27647  -1.15545  -1.14587
 Alpha  occ. eigenvalues --   -1.12529  -1.09692  -1.09328  -1.05626  -1.05266
 Alpha  occ. eigenvalues --   -1.01091  -0.95080  -0.91663  -0.90721  -0.88898
 Alpha  occ. eigenvalues --   -0.86789  -0.84805  -0.83328  -0.83030  -0.80547
 Alpha  occ. eigenvalues --   -0.77557  -0.75174  -0.73949  -0.70386  -0.70076
 Alpha  occ. eigenvalues --   -0.69765  -0.69343  -0.69015  -0.68671  -0.68319
 Alpha  occ. eigenvalues --   -0.67600  -0.66763  -0.65853  -0.63997  -0.61530
 Alpha  occ. eigenvalues --   -0.60708  -0.59949  -0.59702  -0.59104  -0.57834
 Alpha  occ. eigenvalues --   -0.56204  -0.55822  -0.55545  -0.55310  -0.54634
 Alpha  occ. eigenvalues --   -0.54195  -0.54146  -0.53228  -0.52511  -0.51919
 Alpha  occ. eigenvalues --   -0.51019  -0.50821  -0.50584  -0.50277  -0.50052
 Alpha  occ. eigenvalues --   -0.49467  -0.49274  -0.48769  -0.48409  -0.47641
 Alpha  occ. eigenvalues --   -0.46895  -0.46560  -0.45544  -0.44963  -0.44317
 Alpha  occ. eigenvalues --   -0.44115  -0.43916  -0.43422  -0.43211  -0.42963
 Alpha  occ. eigenvalues --   -0.42907  -0.37824  -0.37339  -0.36845  -0.36794
 Alpha  occ. eigenvalues --   -0.35202  -0.34143  -0.33688  -0.33536  -0.33067
 Alpha virt. eigenvalues --   -0.10245  -0.09650  -0.09103  -0.07773  -0.07642
 Alpha virt. eigenvalues --   -0.05877  -0.05485  -0.02393  -0.01723  -0.00910
 Alpha virt. eigenvalues --    0.00123   0.00398   0.00499   0.01621   0.01944

 Mulliken charges:
               1
     1  N   -0.756642
     2  H    0.391003
     3  H    0.405444
     4  C   -0.096117
     5  H    0.222315
     6  C    0.637174
     7  C   -0.372307
     8  H    0.169058
     9  H    0.183116
    10  O   -0.546431
    11  C    0.144577
    12  C   -0.180735
    13  H    0.151573
    14  C   -0.185375
    15  H    0.142836
    16  C   -0.137734
    17  H    0.152420
    18  C   -0.123325
    19  H    0.158885
    20  C   -0.129955
    21  H    0.156325
    22  N   -0.470557
    23  C   -0.074477
    24  H    0.201945
    25  C    0.607912
    26  C   -0.304519
    27  H    0.184155
    28  H    0.177343
    29  O   -0.511680
    30  C   -0.313137
    31  H    0.160579
    32  H    0.176634
    33  C   -0.128510
    34  H    0.177750
    35  H    0.184974
    36  N   -0.583619
    37  H    0.331975
    38  C   -0.085582
    39  H    0.210349
    40  C    0.613152
    41  C   -0.271198
    42  H    0.127182
    43  H    0.171894
    44  O   -0.616003
    45  C   -0.294495
    46  H    0.146685
    47  H    0.177209
    48  C   -0.289186
    49  H    0.183173
    50  H    0.164928
    51  C   -0.180619
    52  H    0.198747
    53  H    0.200842
    54  N   -0.774521
    55  H    0.393691
    56  H    0.387332
    57  H    0.475743
    58  O   -0.583567
    59  H    0.441371
 Sum of Mulliken charges =   1.00000

 Dipole moment (field-independent basis, Debye):
    X=              4.2788    Y=             -0.6207    Z=             -6.6212  Tot=              7.9078
 Quadrupole moment (field-independent basis, Debye-Ang):
   XX=            -65.8902   YY=           -118.6148   ZZ=           -146.9052
   XY=            -34.9238   XZ=             -1.9200   YZ=            -17.7850

 Normal termination of Gaussian 16 at Thu Jun  2 02:33:15 2022.
