 Gaussian 16, Revision C.01,
 Gaussian 16:  ES64L-G16RevC.01  3-Jul-2019

 ----------------------------------------------------------------------
 # B3LYP/6-31G* empiricaldispersion=gd3 guess=read geom=check nosymm in
 tegral(ultrafinegrid)
 ----------------------------------------------------------------------

 ------------------------------------------------------
 Candidate Structure: Conf:578 Charge calc in gas phase
 ------------------------------------------------------
 Structure from the checkpoint file:  "conf-578.chk"
 Charge =  1 Multiplicity = 1

                          Input orientation:
 ---------------------------------------------------------------------
 Center     Atomic      Atomic             Coordinates (Angstroms)
 Number     Number       Type             X           Y           Z
 ---------------------------------------------------------------------
      1          7           0       -0.750685    0.906277    3.535081
      2          1           0       -0.152533    1.299605    2.811203
      3          1           0       -0.212436    0.288073    4.133679
      4          6           0       -1.901550    0.240890    2.926906
      5          1           0       -1.623938   -0.532084    2.186047
      6          6           0       -2.717089    1.365499    2.251193
      7          6           0       -2.781133   -0.422362    4.007072
      8          1           0       -3.097496    0.368982    4.691278
      9          1           0       -3.683416   -0.815049    3.525059
     10          8           0       -3.417652    2.106746    2.925739
     11          6           0       -2.083208   -1.537488    4.750775
     12          6           0       -2.133358   -2.863119    4.285092
     13          1           0       -2.698512   -3.086523    3.383029
     14          6           0       -1.365646   -1.281764    5.936659
     15          1           0       -1.332640   -0.266081    6.322804
     16          6           0       -1.516897   -3.903143    4.988956
     17          1           0       -1.606069   -4.924879    4.629091
     18          6           0       -0.747051   -2.320479    6.646511
     19          1           0       -0.229257   -2.102232    7.576474
     20          6           0       -0.823901   -3.636734    6.177171
     21          1           0       -0.376363   -4.447739    6.744782
     22          7           0       -2.572867    1.560389    0.904200
     23          6           0       -2.022900    0.653096   -0.097506
     24          1           0       -2.375585   -0.374250    0.062014
     25          6           0       -0.476052    0.600500   -0.085315
     26          6           0       -2.597574    1.216179   -1.426434
     27          1           0       -1.977166    0.990315   -2.298259
     28          1           0       -3.587925    0.780738   -1.597150
     29          8           0        0.216673    1.183896    0.745768
     30          6           0       -2.717593    2.719458   -1.142180
     31          1           0       -1.734201    3.198164   -1.217401
     32          1           0       -3.397175    3.227754   -1.830465
     33          6           0       -3.212351    2.748662    0.303906
     34          1           0       -4.303242    2.657825    0.372257
     35          1           0       -2.920532    3.642814    0.858783
     36          7           0        0.060160   -0.203069   -1.046927
     37          1           0       -0.541022   -0.538828   -1.787393
     38          6           0        1.502905   -0.271034   -1.292787
     39          1           0        1.881943    0.753704   -1.421158
     40          6           0        1.787431   -0.999285   -2.606200
     41          6           0        2.279775   -0.919189   -0.135777
     42          1           0        2.151566   -0.258873    0.724750
     43          1           0        3.341340   -0.911448   -0.398509
     44          8           0        2.801871   -1.613173   -2.829875
     45          6           0        1.828855   -2.357244    0.180060
     46          1           0        0.775067   -2.491367   -0.100135
     47          1           0        2.402195   -3.064032   -0.426021
     48          6           0        1.986683   -2.715637    1.668726
     49          1           0        2.983190   -2.408987    2.017408
     50          1           0        1.914524   -3.802105    1.807739
     51          6           0        0.907005   -2.024838    2.494620
     52          1           0        0.889696   -0.940823    2.361304
     53          1           0       -0.089591   -2.408889    2.268091
     54          7           0        1.097034   -2.265053    3.977578
     55          1           0        0.392342   -1.757823    4.543648
     56          1           0        2.030214   -1.978052    4.291311
     57          1           0        0.964596   -3.252469    4.225853
     58          8           0        0.782104   -0.854816   -3.502625
     59          1           0        1.050973   -1.318871   -4.319157
 ---------------------------------------------------------------------

 SCF Done:  E(RB3LYP) =  -1300.59287204     A.U. after    1 cycles

 Alpha  occ. eigenvalues --  -19.31174 -19.25138 -19.23629 -19.19394 -14.61322
 Alpha  occ. eigenvalues --  -14.47809 -14.45121 -14.41637 -10.43435 -10.40311
 Alpha  occ. eigenvalues --  -10.39523 -10.36724 -10.35580 -10.34446 -10.33790
 Alpha  occ. eigenvalues --  -10.32750 -10.32646 -10.32283 -10.32195 -10.32007
 Alpha  occ. eigenvalues --  -10.31862 -10.31769 -10.31043 -10.29929 -10.29928
 Alpha  occ. eigenvalues --  -10.29642 -10.29012 -10.27875  -1.21874  -1.15941
 Alpha  occ. eigenvalues --   -1.15358  -1.12979  -1.11761  -1.04349  -1.03190
 Alpha  occ. eigenvalues --   -0.99504  -0.97997  -0.94707  -0.90306  -0.89536
 Alpha  occ. eigenvalues --   -0.88455  -0.87346  -0.85423  -0.83467  -0.82807
 Alpha  occ. eigenvalues --   -0.79191  -0.76454  -0.75319  -0.74522  -0.73661
 Alpha  occ. eigenvalues --   -0.73139  -0.71845  -0.71043  -0.69690  -0.68656
 Alpha  occ. eigenvalues --   -0.68232  -0.66375  -0.65338  -0.63471  -0.63063
 Alpha  occ. eigenvalues --   -0.61170  -0.60737  -0.60379  -0.60197  -0.59424
 Alpha  occ. eigenvalues --   -0.58760  -0.58282  -0.56966  -0.56822  -0.56133
 Alpha  occ. eigenvalues --   -0.55864  -0.54636  -0.54450  -0.53825  -0.53480
 Alpha  occ. eigenvalues --   -0.53103  -0.52705  -0.52405  -0.51596  -0.50887
 Alpha  occ. eigenvalues --   -0.50564  -0.50480  -0.49626  -0.49138  -0.48086
 Alpha  occ. eigenvalues --   -0.47724  -0.47125  -0.46531  -0.46204  -0.45870
 Alpha  occ. eigenvalues --   -0.45649  -0.45319  -0.44941  -0.44292  -0.43992
 Alpha  occ. eigenvalues --   -0.43079  -0.42644  -0.38811  -0.38641  -0.37798
 Alpha  occ. eigenvalues --   -0.37522  -0.36995  -0.34364  -0.32666  -0.32423
 Alpha virt. eigenvalues --   -0.14269  -0.13562  -0.11578  -0.10689  -0.09941
 Alpha virt. eigenvalues --   -0.07114  -0.06398  -0.05183  -0.04728  -0.03616
 Alpha virt. eigenvalues --   -0.02381  -0.01557  -0.00589  -0.00246   0.00088

 Mulliken charges:
               1
     1  N   -0.729111
     2  H    0.357982
     3  H    0.266413
     4  C   -0.060265
     5  H    0.085965
     6  C    0.629382
     7  C   -0.348677
     8  H    0.213749
     9  H    0.166313
    10  O   -0.498566
    11  C    0.143160
    12  C   -0.196933
    13  H    0.155302
    14  C   -0.240089
    15  H    0.187043
    16  C   -0.164117
    17  H    0.168306
    18  C   -0.145036
    19  H    0.174321
    20  C   -0.169257
    21  H    0.170834
    22  N   -0.448621
    23  C   -0.080611
    24  H    0.166114
    25  C    0.628647
    26  C   -0.314177
    27  H    0.160227
    28  H    0.173746
    29  O   -0.531477
    30  C   -0.307204
    31  H    0.167416
    32  H    0.175938
    33  C   -0.108513
    34  H    0.172826
    35  H    0.190731
    36  N   -0.627635
    37  H    0.361934
    38  C   -0.035627
    39  H    0.213593
    40  C    0.586249
    41  C   -0.285860
    42  H    0.169968
    43  H    0.188348
    44  O   -0.438673
    45  C   -0.279145
    46  H    0.145605
    47  H    0.192922
    48  C   -0.292871
    49  H    0.164882
    50  H    0.166233
    51  C   -0.208549
    52  H    0.222456
    53  H    0.211198
    54  N   -0.751871
    55  H    0.412629
    56  H    0.408671
    57  H    0.408293
    58  O   -0.579838
    59  H    0.435328
 Sum of Mulliken charges =   1.00000

 Dipole moment (field-independent basis, Debye):
    X=              2.1951    Y=            -11.6556    Z=              9.2590  Tot=             15.0466
 Quadrupole moment (field-independent basis, Debye-Ang):
   XX=           -155.9240   YY=           -135.2143   ZZ=            -84.1178
   XY=             -2.5093   XZ=             27.5240   YZ=            -51.0072

 Normal termination of Gaussian 16 at Thu Jun  2 02:25:18 2022.
