 Gaussian 16, Revision C.01,
 Gaussian 16:  ES64L-G16RevC.01  3-Jul-2019

 ----------------------------------------------------------------------
 # B3LYP/6-31G* empiricaldispersion=gd3 guess=read geom=check nosymm in
 tegral(ultrafinegrid)
 ----------------------------------------------------------------------

 ------------------------------------------------------
 Candidate Structure: Conf:981 Charge calc in gas phase
 ------------------------------------------------------
 Structure from the checkpoint file:  "conf-981.chk"
 Charge =  1 Multiplicity = 1

                          Input orientation:
 ---------------------------------------------------------------------
 Center     Atomic      Atomic             Coordinates (Angstroms)
 Number     Number       Type             X           Y           Z
 ---------------------------------------------------------------------
      1          7           0       -0.864872    2.903527   -2.091298
      2          1           0       -0.583380    3.851288   -1.843799
      3          1           0       -1.112014    2.915391   -3.081126
      4          6           0       -2.056144    2.524799   -1.326280
      5          1           0       -1.734936    2.331479   -0.298503
      6          6           0       -2.607519    1.255002   -1.994615
      7          6           0       -3.213309    3.558930   -1.262198
      8          1           0       -2.819055    4.496802   -0.851611
      9          1           0       -3.557814    3.753159   -2.283188
     10          8           0       -2.937250    1.287013   -3.175911
     11          6           0       -4.331493    3.018075   -0.397154
     12          6           0       -5.353731    2.236834   -0.955860
     13          1           0       -5.389800    2.102603   -2.033763
     14          6           0       -4.289885    3.170946    0.996161
     15          1           0       -3.507851    3.781544    1.443396
     16          6           0       -6.302915    1.616503   -0.141722
     17          1           0       -7.092435    1.021132   -0.592641
     18          6           0       -5.238375    2.552347    1.813564
     19          1           0       -5.195066    2.689176    2.890803
     20          6           0       -6.245395    1.767800    1.246143
     21          1           0       -6.988731    1.291372    1.879417
     22          7           0       -2.697917    0.104725   -1.260808
     23          6           0       -2.475554   -0.037571    0.180433
     24          1           0       -2.937631    0.779166    0.742999
     25          6           0       -0.989872   -0.030749    0.585631
     26          6           0       -3.167313   -1.375982    0.514844
     27          1           0       -2.711013   -1.853094    1.386829
     28          1           0       -4.218780   -1.179284    0.748037
     29          8           0       -0.684068   -0.108749    1.784379
     30          6           0       -3.049402   -2.174103   -0.793346
     31          1           0       -2.037943   -2.589441   -0.897861
     32          1           0       -3.762985   -2.999287   -0.862524
     33          6           0       -3.285218   -1.104102   -1.864822
     34          1           0       -4.353965   -0.938003   -2.049511
     35          1           0       -2.809179   -1.313959   -2.824836
     36          7           0       -0.104172    0.061506   -0.427460
     37          1           0       -0.480379    0.126255   -1.367376
     38          6           0        1.285388    0.478352   -0.311110
     39          1           0        1.332818    1.505039    0.072677
     40          6           0        1.854217    0.492689   -1.727815
     41          6           0        2.130694   -0.420756    0.615739
     42          1           0        1.729182   -0.281130    1.622013
     43          1           0        3.153971   -0.033290    0.619958
     44          8           0        1.309968    0.007806   -2.693166
     45          6           0        2.121980   -1.913080    0.219242
     46          1           0        1.258820   -2.128026   -0.423601
     47          1           0        3.008791   -2.155026   -0.374295
     48          6           0        2.079449   -2.841344    1.450159
     49          1           0        2.798479   -2.476719    2.198384
     50          1           0        2.381276   -3.861065    1.179879
     51          6           0        0.670515   -2.851064    2.036913
     52          1           0        0.245434   -1.847127    2.145705
     53          1           0       -0.016100   -3.458636    1.441490
     54          7           0        0.663337   -3.464514    3.440564
     55          1           0       -0.283023   -3.483144    3.839136
     56          1           0        1.252995   -2.912467    4.074952
     57          1           0        1.027539   -4.424954    3.441427
     58          8           0        3.062352    1.083573   -1.752185
     59          1           0        3.377566    1.063730   -2.676159
 ---------------------------------------------------------------------

 SCF Done:  E(RB3LYP) =  -1300.59012165     A.U. after    1 cycles

 Alpha  occ. eigenvalues --  -19.29555 -19.24032 -19.22272 -19.19105 -14.64308
 Alpha  occ. eigenvalues --  -14.46251 -14.44895 -14.39515 -10.42073 -10.40044
 Alpha  occ. eigenvalues --  -10.39180 -10.36142 -10.34530 -10.34329 -10.32652
 Alpha  occ. eigenvalues --  -10.31270 -10.30205 -10.30182 -10.30077 -10.28987
 Alpha  occ. eigenvalues --  -10.28453 -10.26547 -10.25985 -10.25913 -10.25792
 Alpha  occ. eigenvalues --  -10.25771 -10.25701 -10.25425  -1.20578  -1.18128
 Alpha  occ. eigenvalues --   -1.13879  -1.11763  -1.11426  -1.03939  -1.02260
 Alpha  occ. eigenvalues --   -0.96519  -0.95197  -0.92288  -0.89697  -0.88597
 Alpha  occ. eigenvalues --   -0.85300  -0.84847  -0.83294  -0.81114  -0.79105
 Alpha  occ. eigenvalues --   -0.78534  -0.76780  -0.76053  -0.74838  -0.72890
 Alpha  occ. eigenvalues --   -0.71914  -0.70148  -0.68294  -0.67298  -0.66887
 Alpha  occ. eigenvalues --   -0.66334  -0.65695  -0.64667  -0.62180  -0.60983
 Alpha  occ. eigenvalues --   -0.60440  -0.59914  -0.58719  -0.57813  -0.57768
 Alpha  occ. eigenvalues --   -0.56723  -0.56251  -0.54455  -0.54221  -0.53596
 Alpha  occ. eigenvalues --   -0.53072  -0.52842  -0.52253  -0.52207  -0.52012
 Alpha  occ. eigenvalues --   -0.51650  -0.51145  -0.50361  -0.49948  -0.49179
 Alpha  occ. eigenvalues --   -0.48740  -0.48598  -0.47968  -0.47027  -0.46679
 Alpha  occ. eigenvalues --   -0.46113  -0.45882  -0.45634  -0.44625  -0.44077
 Alpha  occ. eigenvalues --   -0.43830  -0.43380  -0.42791  -0.42248  -0.41708
 Alpha  occ. eigenvalues --   -0.40872  -0.40460  -0.37621  -0.36823  -0.36353
 Alpha  occ. eigenvalues --   -0.33395  -0.32596  -0.32291  -0.31628  -0.30332
 Alpha virt. eigenvalues --   -0.14911  -0.09709  -0.08662  -0.08361  -0.07862
 Alpha virt. eigenvalues --   -0.07349  -0.07153  -0.06326  -0.05780  -0.03148
 Alpha virt. eigenvalues --   -0.01683  -0.00866   0.00443   0.00926   0.01605

 Mulliken charges:
               1
     1  N   -0.741619
     2  H    0.307645
     3  H    0.329996
     4  C   -0.036151
     5  H    0.130949
     6  C    0.590915
     7  C   -0.362321
     8  H    0.146739
     9  H    0.176112
    10  O   -0.524271
    11  C    0.146247
    12  C   -0.185189
    13  H    0.159110
    14  C   -0.194908
    15  H    0.129905
    16  C   -0.138052
    17  H    0.142350
    18  C   -0.129635
    19  H    0.138879
    20  C   -0.136742
    21  H    0.139615
    22  N   -0.483153
    23  C   -0.036147
    24  H    0.210410
    25  C    0.599198
    26  C   -0.300912
    27  H    0.130047
    28  H    0.181058
    29  O   -0.570041
    30  C   -0.308645
    31  H    0.135609
    32  H    0.168293
    33  C   -0.110712
    34  H    0.174383
    35  H    0.188930
    36  N   -0.613666
    37  H    0.388707
    38  C   -0.010924
    39  H    0.201836
    40  C    0.595755
    41  C   -0.298430
    42  H    0.169587
    43  H    0.184877
    44  O   -0.453871
    45  C   -0.282370
    46  H    0.173827
    47  H    0.180945
    48  C   -0.295885
    49  H    0.160597
    50  H    0.171026
    51  C   -0.247336
    52  H    0.282578
    53  H    0.214728
    54  N   -0.730880
    55  H    0.430459
    56  H    0.425515
    57  H    0.421685
    58  O   -0.567193
    59  H    0.430543
 Sum of Mulliken charges =   1.00000

 Dipole moment (field-independent basis, Debye):
    X=              2.5482    Y=            -12.1950    Z=             12.2536  Tot=             17.4746
 Quadrupole moment (field-independent basis, Debye-Ang):
   XX=           -133.7889   YY=            -98.5921   ZZ=           -123.5160
   XY=             -5.5269   XZ=             -0.3927   YZ=            -48.3614

 Normal termination of Gaussian 16 at Thu Jun  2 02:33:15 2022.
