 Gaussian 16, Revision C.01,
 Gaussian 16:  ES64L-G16RevC.01  3-Jul-2019

 ----------------------------------------------------------------------
 # B3LYP/6-31G* empiricaldispersion=gd3 guess=read geom=check nosymm in
 tegral(ultrafinegrid)
 ----------------------------------------------------------------------

 ------------------------------------------------------
 Candidate Structure: Conf:635 Charge calc in gas phase
 ------------------------------------------------------
 Structure from the checkpoint file:  "conf-635.chk"
 Charge =  1 Multiplicity = 1

                          Input orientation:
 ---------------------------------------------------------------------
 Center     Atomic      Atomic             Coordinates (Angstroms)
 Number     Number       Type             X           Y           Z
 ---------------------------------------------------------------------
      1          7           0       -0.715389    2.349436    1.989592
      2          1           0       -0.848441    3.315501    2.303057
      3          1           0       -0.216147    2.426331    1.097243
      4          6           0       -2.066679    1.817222    1.666058
      5          1           0       -1.925791    0.788508    1.325537
      6          6           0       -2.684147    2.737593    0.592101
      7          6           0       -2.981044    1.816963    2.906031
      8          1           0       -3.175084    2.858833    3.180201
      9          1           0       -3.946194    1.388038    2.608495
     10          8           0       -2.868462    3.915310    0.889495
     11          6           0       -2.407164    1.047980    4.072813
     12          6           0       -2.255718   -0.345977    4.007354
     13          1           0       -2.601951   -0.880040    3.124903
     14          6           0       -1.982157    1.711349    5.231994
     15          1           0       -2.107189    2.788620    5.307272
     16          6           0       -1.683180   -1.058417    5.062878
     17          1           0       -1.587576   -2.138783    4.999111
     18          6           0       -1.405830    1.004182    6.294241
     19          1           0       -1.093489    1.534361    7.189664
     20          6           0       -1.247111   -0.383919    6.209273
     21          1           0       -0.811142   -0.936185    7.036604
     22          7           0       -2.969486    2.229779   -0.634987
     23          6           0       -2.586011    0.907190   -1.121283
     24          1           0       -3.102329    0.114447   -0.565263
     25          6           0       -1.063070    0.684685   -1.020230
     26          6           0       -3.040811    0.926109   -2.603460
     27          1           0       -2.450933    0.245362   -3.224333
     28          1           0       -4.088948    0.612966   -2.658995
     29          8           0       -0.264511    1.611784   -0.894097
     30          6           0       -2.896089    2.405846   -2.989677
     31          1           0       -1.844642    2.642281   -3.184046
     32          1           0       -3.478852    2.670236   -3.875351
     33          6           0       -3.370417    3.138848   -1.731356
     34          1           0       -4.458269    3.273819   -1.716783
     35          1           0       -2.905914    4.114677   -1.579792
     36          7           0       -0.687403   -0.619938   -1.067556
     37          1           0       -1.392460   -1.310223   -1.293214
     38          6           0        0.706293   -1.037832   -1.213503
     39          1           0        1.240752   -0.214048   -1.704931
     40          6           0        0.834934   -2.238334   -2.155471
     41          6           0        1.396339   -1.334668    0.136022
     42          1           0        2.252715   -1.988747   -0.056109
     43          1           0        0.691910   -1.900109    0.761401
     44          8           0        1.845279   -2.886394   -2.272419
     45          6           0        1.882078   -0.066870    0.853513
     46          1           0        2.671866    0.391975    0.247590
     47          1           0        1.078951    0.672542    0.894553
     48          6           0        2.425527   -0.354572    2.263751
     49          1           0        3.160651    0.408126    2.556556
     50          1           0        2.974902   -1.303849    2.262371
     51          6           0        1.350640   -0.445766    3.347128
     52          1           0        0.471021   -1.002642    3.016500
     53          1           0        1.732414   -0.926054    4.251916
     54          7           0        0.848093    0.914893    3.760466
     55          1           0        0.261085    0.839187    4.602238
     56          1           0        0.229931    1.441761    3.014611
     57          1           0        1.634204    1.527865    3.996705
     58          8           0       -0.298835   -2.480879   -2.856678
     59          1           0       -0.115800   -3.243105   -3.439740
 ---------------------------------------------------------------------

 SCF Done:  E(RB3LYP) =  -1300.63432501     A.U. after    1 cycles

 Alpha  occ. eigenvalues --  -19.30990 -19.24760 -19.23861 -19.21083 -14.55510
 Alpha  occ. eigenvalues --  -14.48312 -14.46559 -14.46483 -10.43224 -10.40692
 Alpha  occ. eigenvalues --  -10.38315 -10.37354 -10.35598 -10.34879 -10.34618
 Alpha  occ. eigenvalues --  -10.32032 -10.31771 -10.31188 -10.31147 -10.31025
 Alpha  occ. eigenvalues --  -10.31016 -10.30858 -10.30793 -10.30369 -10.30297
 Alpha  occ. eigenvalues --  -10.30173 -10.29927 -10.28242  -1.21641  -1.15809
 Alpha  occ. eigenvalues --   -1.13289  -1.12691  -1.10730  -1.04805  -1.04507
 Alpha  occ. eigenvalues --   -1.02452  -0.97615  -0.93141  -0.90181  -0.89871
 Alpha  occ. eigenvalues --   -0.88851  -0.86458  -0.85473  -0.83807  -0.82751
 Alpha  occ. eigenvalues --   -0.77655  -0.76994  -0.74268  -0.72597  -0.72394
 Alpha  occ. eigenvalues --   -0.71357  -0.70845  -0.69830  -0.69152  -0.68993
 Alpha  occ. eigenvalues --   -0.68457  -0.66372  -0.64082  -0.63682  -0.62232
 Alpha  occ. eigenvalues --   -0.61817  -0.61536  -0.60982  -0.59271  -0.58627
 Alpha  occ. eigenvalues --   -0.58216  -0.57897  -0.57238  -0.56930  -0.56088
 Alpha  occ. eigenvalues --   -0.55041  -0.54665  -0.54283  -0.53792  -0.53473
 Alpha  occ. eigenvalues --   -0.52959  -0.52865  -0.52451  -0.51599  -0.51191
 Alpha  occ. eigenvalues --   -0.50922  -0.50218  -0.50077  -0.49282  -0.48655
 Alpha  occ. eigenvalues --   -0.47724  -0.47283  -0.46741  -0.46332  -0.45700
 Alpha  occ. eigenvalues --   -0.45449  -0.45316  -0.45177  -0.44824  -0.44729
 Alpha  occ. eigenvalues --   -0.43481  -0.42678  -0.40849  -0.39461  -0.37614
 Alpha  occ. eigenvalues --   -0.37432  -0.36884  -0.36664  -0.34751  -0.34183
 Alpha virt. eigenvalues --   -0.12825  -0.12333  -0.10402  -0.10071  -0.08544
 Alpha virt. eigenvalues --   -0.07400  -0.04914  -0.03583  -0.02358  -0.01858
 Alpha virt. eigenvalues --   -0.01363  -0.01079  -0.00472   0.00035   0.01180

 Mulliken charges:
               1
     1  N   -0.811038
     2  H    0.347208
     3  H    0.380531
     4  C   -0.060007
     5  H    0.142462
     6  C    0.618131
     7  C   -0.375705
     8  H    0.194330
     9  H    0.181084
    10  O   -0.524391
    11  C    0.174113
    12  C   -0.194817
    13  H    0.141360
    14  C   -0.212953
    15  H    0.160089
    16  C   -0.138439
    17  H    0.161234
    18  C   -0.161316
    19  H    0.168449
    20  C   -0.154669
    21  H    0.167054
    22  N   -0.441317
    23  C   -0.083038
    24  H    0.162505
    25  C    0.623018
    26  C   -0.305910
    27  H    0.171992
    28  H    0.176140
    29  O   -0.537686
    30  C   -0.306499
    31  H    0.177237
    32  H    0.176041
    33  C   -0.120025
    34  H    0.173733
    35  H    0.197182
    36  N   -0.610830
    37  H    0.355157
    38  C   -0.052112
    39  H    0.219378
    40  C    0.585332
    41  C   -0.271559
    42  H    0.196698
    43  H    0.137469
    44  O   -0.432285
    45  C   -0.286435
    46  H    0.173110
    47  H    0.150574
    48  C   -0.290621
    49  H    0.157528
    50  H    0.185758
    51  C   -0.180250
    52  H    0.195645
    53  H    0.197598
    54  N   -0.794927
    55  H    0.404176
    56  H    0.460040
    57  H    0.380165
    58  O   -0.580491
    59  H    0.434799
 Sum of Mulliken charges =   1.00000

 Dipole moment (field-independent basis, Debye):
    X=             -1.9860    Y=             -0.4149    Z=              9.5600  Tot=              9.7729
 Quadrupole moment (field-independent basis, Debye-Ang):
   XX=           -146.5936   YY=           -157.7210   ZZ=            -84.6469
   XY=              8.0009   XZ=             21.2685   YZ=              9.8564

 Normal termination of Gaussian 16 at Thu Jun  2 02:33:28 2022.
