 Gaussian 16, Revision C.01,
 Gaussian 16:  ES64L-G16RevC.01  3-Jul-2019

 ----------------------------------------------------------------------
 # B3LYP/6-31G* empiricaldispersion=gd3 guess=read geom=check nosymm in
 tegral(ultrafinegrid)
 ----------------------------------------------------------------------

 ------------------------------------------------------
 Candidate Structure: Conf:876 Charge calc in gas phase
 ------------------------------------------------------
 Structure from the checkpoint file:  "conf-876.chk"
 Charge =  1 Multiplicity = 1

                          Input orientation:
 ---------------------------------------------------------------------
 Center     Atomic      Atomic             Coordinates (Angstroms)
 Number     Number       Type             X           Y           Z
 ---------------------------------------------------------------------
      1          7           0       -3.812661    4.210467   -1.418800
      2          1           0       -2.988183    4.681768   -1.056843
      3          1           0       -4.469182    4.134457   -0.644722
      4          6           0       -3.472217    2.894334   -1.931953
      5          1           0       -4.412682    2.446997   -2.275057
      6          6           0       -2.911750    1.939146   -0.850954
      7          6           0       -2.574935    2.998987   -3.192782
      8          1           0       -2.201307    1.998410   -3.447106
      9          1           0       -3.234811    3.307297   -4.010141
     10          8           0       -2.204464    2.315567    0.088339
     11          6           0       -1.391891    3.953176   -3.169796
     12          6           0       -0.971757    4.507058   -4.388479
     13          1           0       -1.529049    4.282952   -5.295117
     14          6           0       -0.662475    4.272438   -2.016237
     15          1           0       -0.952278    3.857055   -1.056400
     16          6           0        0.149283    5.332524   -4.463557
     17          1           0        0.452873    5.743199   -5.422385
     18          6           0        0.455494    5.113634   -2.084355
     19          1           0        0.995084    5.357264   -1.172505
     20          6           0        0.872622    5.639425   -3.308549
     21          1           0        1.739120    6.292412   -3.359735
     22          7           0       -3.289152    0.620480   -0.908841
     23          6           0       -3.114810   -0.213072    0.282849
     24          1           0       -3.623306    0.228871    1.145155
     25          6           0       -1.663468   -0.338636    0.736912
     26          6           0       -3.755066   -1.570124   -0.122504
     27          1           0       -3.219854   -2.429121    0.295600
     28          1           0       -4.776122   -1.611326    0.268371
     29          8           0       -1.381593   -0.523807    1.912379
     30          6           0       -3.772903   -1.540892   -1.660856
     31          1           0       -2.796428   -1.831911   -2.068389
     32          1           0       -4.526533   -2.205586   -2.090382
     33          6           0       -4.041875   -0.063852   -1.971502
     34          1           0       -5.114873    0.163930   -1.909292
     35          1           0       -3.680676    0.235341   -2.957451
     36          7           0       -0.676538   -0.396994   -0.262672
     37          1           0       -1.069822   -0.234771   -1.194585
     38          6           0        0.509693    0.493967   -0.129353
     39          1           0        0.314373    1.212228    0.673809
     40          6           0        0.585201    1.294085   -1.431481
     41          6           0        1.833179   -0.245340    0.149820
     42          1           0        2.653687    0.452907   -0.034767
     43          1           0        1.943742   -1.038923   -0.601323
     44          8           0       -0.134087    1.080597   -2.387669
     45          6           0        1.917976   -0.789125    1.597807
     46          1           0        2.629112   -0.187874    2.172487
     47          1           0        0.953502   -0.643903    2.096318
     48          6           0        2.342029   -2.262296    1.735935
     49          1           0        2.302393   -2.540613    2.796059
     50          1           0        3.382429   -2.400554    1.419146
     51          6           0        1.506414   -3.259896    0.926740
     52          1           0        1.773305   -3.267853   -0.132387
     53          1           0        1.610476   -4.275684    1.313758
     54          7           0        0.031596   -2.904893    0.965855
     55          1           0       -0.556460   -3.691432    0.675832
     56          1           0       -0.177374   -2.083559    0.331395
     57          1           0       -0.281646   -2.595199    1.894662
     58          8           0        1.522314    2.236584   -1.366786
     59          1           0        1.415254    2.843537   -2.130714
 ---------------------------------------------------------------------

 SCF Done:  E(RB3LYP) =  -1300.59822103     A.U. after    3 cycles

 Alpha  occ. eigenvalues --  -19.30670 -19.26304 -19.25980 -19.22343 -14.59780
 Alpha  occ. eigenvalues --  -14.48926 -14.47472 -14.39407 -10.43887 -10.42600
 Alpha  occ. eigenvalues --  -10.39632 -10.38599 -10.36310 -10.35216 -10.33685
 Alpha  occ. eigenvalues --  -10.33178 -10.32051 -10.31720 -10.31537 -10.31155
 Alpha  occ. eigenvalues --  -10.31142 -10.27515 -10.27488 -10.26567 -10.26299
 Alpha  occ. eigenvalues --  -10.26222 -10.26122 -10.26094  -1.22167  -1.17955
 Alpha  occ. eigenvalues --   -1.14459  -1.14173  -1.13571  -1.06057  -1.04647
 Alpha  occ. eigenvalues --   -0.97276  -0.94359  -0.92799  -0.91264  -0.90290
 Alpha  occ. eigenvalues --   -0.87187  -0.85344  -0.84611  -0.81759  -0.80376
 Alpha  occ. eigenvalues --   -0.78712  -0.77001  -0.74088  -0.73463  -0.72592
 Alpha  occ. eigenvalues --   -0.72495  -0.71712  -0.70905  -0.69782  -0.68112
 Alpha  occ. eigenvalues --   -0.67549  -0.65348  -0.64229  -0.63613  -0.61441
 Alpha  occ. eigenvalues --   -0.61201  -0.60546  -0.60263  -0.58871  -0.58218
 Alpha  occ. eigenvalues --   -0.58129  -0.57634  -0.57219  -0.56267  -0.55728
 Alpha  occ. eigenvalues --   -0.55026  -0.54721  -0.54066  -0.53555  -0.53148
 Alpha  occ. eigenvalues --   -0.52938  -0.52494  -0.51373  -0.51076  -0.51025
 Alpha  occ. eigenvalues --   -0.50093  -0.49846  -0.49073  -0.48749  -0.48146
 Alpha  occ. eigenvalues --   -0.47524  -0.47478  -0.46624  -0.46379  -0.46168
 Alpha  occ. eigenvalues --   -0.45827  -0.45448  -0.44564  -0.43545  -0.42533
 Alpha  occ. eigenvalues --   -0.41240  -0.40978  -0.40561  -0.39964  -0.39201
 Alpha  occ. eigenvalues --   -0.36222  -0.35374  -0.32530  -0.31761  -0.31627
 Alpha virt. eigenvalues --   -0.13779  -0.11232  -0.10980  -0.09202  -0.07900
 Alpha virt. eigenvalues --   -0.07647  -0.05000  -0.04319  -0.04091  -0.02824
 Alpha virt. eigenvalues --   -0.01360  -0.00765  -0.00231   0.00256   0.00564

 Mulliken charges:
               1
     1  N   -0.691134
     2  H    0.326484
     3  H    0.308871
     4  C   -0.088806
     5  H    0.155962
     6  C    0.591468
     7  C   -0.353436
     8  H    0.172955
     9  H    0.174114
    10  O   -0.534859
    11  C    0.196381
    12  C   -0.182022
    13  H    0.137828
    14  C   -0.263330
    15  H    0.169464
    16  C   -0.125653
    17  H    0.149845
    18  C   -0.177891
    19  H    0.147062
    20  C   -0.132054
    21  H    0.148747
    22  N   -0.474740
    23  C   -0.019119
    24  H    0.206453
    25  C    0.589494
    26  C   -0.317472
    27  H    0.131343
    28  H    0.193067
    29  O   -0.495661
    30  C   -0.300260
    31  H    0.148390
    32  H    0.184280
    33  C   -0.137395
    34  H    0.177618
    35  H    0.189514
    36  N   -0.693599
    37  H    0.376755
    38  C   -0.043725
    39  H    0.229096
    40  C    0.620592
    41  C   -0.301517
    42  H    0.206609
    43  H    0.141561
    44  O   -0.477824
    45  C   -0.324810
    46  H    0.190797
    47  H    0.184345
    48  C   -0.298009
    49  H    0.181228
    50  H    0.194614
    51  C   -0.190670
    52  H    0.210628
    53  H    0.216655
    54  N   -0.777689
    55  H    0.404929
    56  H    0.439880
    57  H    0.424811
    58  O   -0.562434
    59  H    0.442269
 Sum of Mulliken charges =   1.00000

 Dipole moment (field-independent basis, Debye):
    X=             -1.8406    Y=             -8.9915    Z=             -1.1105  Tot=              9.2449
 Quadrupole moment (field-independent basis, Debye-Ang):
   XX=           -125.9940   YY=           -119.0183   ZZ=           -149.6685
   XY=              6.8438   XZ=             10.0069   YZ=            -17.7547

 Normal termination of Gaussian 16 at Thu Jun  2 02:33:36 2022.
