 Gaussian 16, Revision C.01,
 Gaussian 16:  ES64L-G16RevC.01  3-Jul-2019

 ----------------------------------------------------------------------
 # B3LYP/6-31G* empiricaldispersion=gd3 guess=read geom=check nosymm in
 tegral(ultrafinegrid)
 ----------------------------------------------------------------------

 -----------------------------------------------------
 Candidate Structure: Conf:34 Charge calc in gas phase
 -----------------------------------------------------
 Structure from the checkpoint file:  "conf-34.chk"
 Charge =  1 Multiplicity = 1

                          Input orientation:
 ---------------------------------------------------------------------
 Center     Atomic      Atomic             Coordinates (Angstroms)
 Number     Number       Type             X           Y           Z
 ---------------------------------------------------------------------
      1          7           0       -4.820864    0.826334    3.191305
      2          1           0       -5.268646    1.298319    3.975338
      3          1           0       -5.012158   -0.169115    3.299153
      4          6           0       -3.378347    1.073796    3.230398
      5          1           0       -3.241348    2.160993    3.174605
      6          6           0       -2.751043    0.470598    1.967183
      7          6           0       -2.653838    0.581456    4.506750
      8          1           0       -2.808389   -0.502588    4.592825
      9          1           0       -1.576201    0.759255    4.390408
     10          8           0       -2.022544   -0.556399    2.010678
     11          6           0       -3.166021    1.279400    5.744759
     12          6           0       -4.212728    0.732006    6.498661
     13          1           0       -4.624092   -0.237233    6.223760
     14          6           0       -2.642858    2.524014    6.121388
     15          1           0       -1.829676    2.961599    5.545379
     16          6           0       -4.725012    1.411345    7.606087
     17          1           0       -5.533155    0.971389    8.183419
     18          6           0       -3.151625    3.204613    7.227396
     19          1           0       -2.732188    4.165958    7.509859
     20          6           0       -4.195268    2.649573    7.972136
     21          1           0       -4.590111    3.177894    8.834883
     22          7           0       -2.999674    1.054863    0.797200
     23          6           0       -2.353572    0.569817   -0.433015
     24          1           0       -2.664913   -0.465233   -0.613795
     25          6           0       -0.824607    0.676566   -0.297123
     26          6           0       -2.875185    1.534940   -1.524907
     27          1           0       -2.150022    2.343889   -1.662272
     28          1           0       -3.009857    1.027585   -2.482950
     29          8           0       -0.314234    1.644724    0.257000
     30          6           0       -4.179058    2.097490   -0.937034
     31          1           0       -4.469965    3.050164   -1.386711
     32          1           0       -5.003525    1.388853   -1.074241
     33          6           0       -3.855499    2.233826    0.553066
     34          1           0       -4.730999    2.193733    1.201384
     35          1           0       -3.277777    3.144578    0.754749
     36          7           0       -0.131215   -0.329010   -0.884977
     37          1           0       -0.620070   -1.146938   -1.230719
     38          6           0        1.321801   -0.410438   -0.935882
     39          1           0        1.720587    0.357199   -1.610140
     40          6           0        1.660491   -1.776959   -1.519375
     41          6           0        2.004294   -0.226124    0.444419
     42          1           0        1.841960    0.814457    0.729098
     43          1           0        3.080123   -0.371570    0.311814
     44          8           0        0.859407   -2.677019   -1.667000
     45          6           0        1.443346   -1.163871    1.535287
     46          1           0        0.495959   -1.584566    1.174250
     47          1           0        2.126617   -2.005683    1.710519
     48          6           0        1.183600   -0.401047    2.842295
     49          1           0        0.459768    0.396682    2.641082
     50          1           0        2.105403    0.082795    3.187217
     51          6           0        0.685188   -1.270055    3.993539
     52          1           0        1.424316   -2.015302    4.301259
     53          1           0        0.415734   -0.665918    4.863153
     54          7           0       -0.568105   -2.023096    3.595833
     55          1           0       -1.019342   -2.459621    4.403445
     56          1           0       -0.348070   -2.764737    2.925112
     57          1           0       -1.268093   -1.369173    3.094774
     58          8           0        2.965249   -1.872619   -1.817667
     59          1           0        3.122916   -2.767349   -2.175836
 ---------------------------------------------------------------------

 SCF Done:  E(RB3LYP) =  -1300.62423729     A.U. after    1 cycles

 Alpha  occ. eigenvalues --  -19.30299 -19.25122 -19.24997 -19.21309 -14.57403
 Alpha  occ. eigenvalues --  -14.48183 -14.46278 -14.42764 -10.42882 -10.40770
 Alpha  occ. eigenvalues --  -10.38833 -10.37982 -10.34482 -10.33847 -10.33718
 Alpha  occ. eigenvalues --  -10.31747 -10.31351 -10.30374 -10.30291 -10.29165
 Alpha  occ. eigenvalues --  -10.29048 -10.29004 -10.28544 -10.27981 -10.27831
 Alpha  occ. eigenvalues --  -10.27582 -10.27517 -10.27293  -1.21414  -1.16260
 Alpha  occ. eigenvalues --   -1.13411  -1.12514  -1.12238  -1.05722  -1.02916
 Alpha  occ. eigenvalues --   -1.00262  -0.94348  -0.92727  -0.90343  -0.88843
 Alpha  occ. eigenvalues --   -0.87645  -0.85391  -0.83140  -0.83084  -0.81755
 Alpha  occ. eigenvalues --   -0.77446  -0.76582  -0.74310  -0.72777  -0.71817
 Alpha  occ. eigenvalues --   -0.71143  -0.70452  -0.69421  -0.69255  -0.67229
 Alpha  occ. eigenvalues --   -0.66868  -0.66009  -0.63770  -0.62954  -0.62102
 Alpha  occ. eigenvalues --   -0.60357  -0.59785  -0.59485  -0.58849  -0.58423
 Alpha  occ. eigenvalues --   -0.57872  -0.56963  -0.56055  -0.55970  -0.55511
 Alpha  occ. eigenvalues --   -0.54482  -0.54311  -0.54067  -0.52997  -0.52359
 Alpha  occ. eigenvalues --   -0.51915  -0.51551  -0.51369  -0.50930  -0.50682
 Alpha  occ. eigenvalues --   -0.50285  -0.49758  -0.48911  -0.48600  -0.48119
 Alpha  occ. eigenvalues --   -0.47625  -0.47021  -0.45732  -0.45381  -0.45071
 Alpha  occ. eigenvalues --   -0.44862  -0.44362  -0.44005  -0.43554  -0.42886
 Alpha  occ. eigenvalues --   -0.42785  -0.42543  -0.39229  -0.38481  -0.36721
 Alpha  occ. eigenvalues --   -0.35789  -0.35330  -0.34715  -0.33700  -0.33093
 Alpha virt. eigenvalues --   -0.11082  -0.10070  -0.09906  -0.09074  -0.08900
 Alpha virt. eigenvalues --   -0.07556  -0.04735  -0.03508  -0.02390  -0.01736
 Alpha virt. eigenvalues --   -0.00904  -0.00168   0.00567   0.01073   0.01255

 Mulliken charges:
               1
     1  N   -0.713743
     2  H    0.333878
     3  H    0.308607
     4  C   -0.081692
     5  H    0.181575
     6  C    0.671445
     7  C   -0.374192
     8  H    0.113283
     9  H    0.143865
    10  O   -0.629276
    11  C    0.159287
    12  C   -0.196196
    13  H    0.121037
    14  C   -0.180952
    15  H    0.131425
    16  C   -0.126669
    17  H    0.151939
    18  C   -0.126829
    19  H    0.153127
    20  C   -0.126118
    21  H    0.155482
    22  N   -0.424153
    23  C   -0.036329
    24  H    0.164142
    25  C    0.647326
    26  C   -0.317769
    27  H    0.185231
    28  H    0.174683
    29  O   -0.538483
    30  C   -0.299841
    31  H    0.177601
    32  H    0.169031
    33  C   -0.146431
    34  H    0.214276
    35  H    0.179453
    36  N   -0.639174
    37  H    0.358108
    38  C   -0.016705
    39  H    0.204499
    40  C    0.580734
    41  C   -0.296604
    42  H    0.207606
    43  H    0.180099
    44  O   -0.467328
    45  C   -0.296040
    46  H    0.147350
    47  H    0.150540
    48  C   -0.301224
    49  H    0.198562
    50  H    0.184690
    51  C   -0.195870
    52  H    0.202385
    53  H    0.208647
    54  N   -0.777416
    55  H    0.399932
    56  H    0.403210
    57  H    0.471344
    58  O   -0.556501
    59  H    0.431138
 Sum of Mulliken charges =   1.00000

 Dipole moment (field-independent basis, Debye):
    X=             -5.4921    Y=             -4.1706    Z=             13.0254  Tot=             14.7383
 Quadrupole moment (field-independent basis, Debye-Ang):
   XX=           -119.7315   YY=           -138.0752   ZZ=            -80.4990
   XY=            -16.0820   XZ=            -27.9229   YZ=             -9.8403

 Normal termination of Gaussian 16 at Thu Jun  2 02:17:06 2022.
