 Gaussian 16, Revision C.01,
 Gaussian 16:  ES64L-G16RevC.01  3-Jul-2019

 ----------------------------------------------------------------------
 # B3LYP/6-31G* empiricaldispersion=gd3 guess=read geom=check nosymm in
 tegral(ultrafinegrid)
 ----------------------------------------------------------------------

 ------------------------------------------------------
 Candidate Structure: Conf:746 Charge calc in gas phase
 ------------------------------------------------------
 Structure from the checkpoint file:  "conf-746.chk"
 Charge =  1 Multiplicity = 1

                          Input orientation:
 ---------------------------------------------------------------------
 Center     Atomic      Atomic             Coordinates (Angstroms)
 Number     Number       Type             X           Y           Z
 ---------------------------------------------------------------------
      1          7           0       -3.762384   -1.149737    3.589885
      2          1           0       -4.034360   -1.164991    4.569899
      3          1           0       -2.905178   -1.686099    3.480134
      4          6           0       -3.532336    0.216665    3.149424
      5          1           0       -4.505981    0.713847    3.055232
      6          6           0       -2.869640    0.146948    1.766820
      7          6           0       -2.685097    1.101316    4.130874
      8          1           0       -2.735159    2.145982    3.807240
      9          1           0       -3.200635    1.055465    5.098500
     10          8           0       -2.230616   -0.865321    1.435372
     11          6           0       -1.233541    0.735131    4.327570
     12          6           0       -0.861356   -0.269115    5.231955
     13          1           0       -1.632860   -0.811179    5.772545
     14          6           0       -0.222657    1.435439    3.651978
     15          1           0       -0.486988    2.207113    2.932953
     16          6           0        0.483953   -0.543677    5.485119
     17          1           0        0.750334   -1.298508    6.221814
     18          6           0        1.121970    1.178559    3.918086
     19          1           0        1.889023    1.770855    3.427159
     20          6           0        1.480423    0.193741    4.842101
     21          1           0        2.527660    0.026287    5.081185
     22          7           0       -2.953911    1.253732    0.986265
     23          6           0       -2.359659    1.300408   -0.381352
     24          1           0       -2.606518    0.372595   -0.907152
     25          6           0       -0.821248    1.435225   -0.299038
     26          6           0       -3.017571    2.533519   -1.019822
     27          1           0       -2.348492    3.014039   -1.735653
     28          1           0       -3.933171    2.230585   -1.539402
     29          8           0       -0.235092    2.516452   -0.277355
     30          6           0       -3.353763    3.434209    0.173297
     31          1           0       -2.447210    3.949451    0.504345
     32          1           0       -4.123135    4.179024   -0.046331
     33          6           0       -3.808837    2.433467    1.237963
     34          1           0       -4.865278    2.161892    1.110809
     35          1           0       -3.672329    2.815307    2.251263
     36          7           0       -0.192206    0.225292   -0.255553
     37          1           0       -0.791640   -0.545211    0.033478
     38          6           0        1.227100    0.105518   -0.015088
     39          1           0        1.552620    0.909465    0.654585
     40          6           0        2.085745    0.277422   -1.270656
     41          6           0        1.485905   -1.257764    0.658785
     42          1           0        1.164447   -2.043732   -0.040446
     43          1           0        0.814502   -1.302424    1.525118
     44          8           0        3.300235    0.285510   -1.233642
     45          6           0        2.928557   -1.497294    1.119176
     46          1           0        3.601963   -1.590521    0.262617
     47          1           0        3.278082   -0.627819    1.682472
     48          6           0        3.056597   -2.726042    2.038826
     49          1           0        2.412387   -2.585879    2.917126
     50          1           0        4.094061   -2.805628    2.392880
     51          6           0        2.669867   -4.012265    1.321513
     52          1           0        1.621185   -4.030515    1.019099
     53          1           0        3.298456   -4.212779    0.450006
     54          7           0        2.849891   -5.212275    2.258983
     55          1           0        2.594813   -6.101526    1.812040
     56          1           0        2.267900   -5.104320    3.098982
     57          1           0        3.824989   -5.287162    2.574360
     58          8           0        1.376256    0.405093   -2.403636
     59          1           0        2.022813    0.551340   -3.120869
 ---------------------------------------------------------------------

 SCF Done:  E(RB3LYP) =  -1300.57722569     A.U. after    1 cycles

 Alpha  occ. eigenvalues --  -19.27911 -19.22112 -19.19795 -19.19084 -14.65697
 Alpha  occ. eigenvalues --  -14.44678 -14.43099 -14.38242 -10.42463 -10.40354
 Alpha  occ. eigenvalues --  -10.36475 -10.35946 -10.34909 -10.32860 -10.30956
 Alpha  occ. eigenvalues --  -10.30761 -10.30544 -10.30092 -10.29992 -10.27575
 Alpha  occ. eigenvalues --  -10.27249 -10.27145 -10.26970 -10.26899 -10.26849
 Alpha  occ. eigenvalues --  -10.26620 -10.25936 -10.25809  -1.19550  -1.18876
 Alpha  occ. eigenvalues --   -1.11452  -1.10341  -1.09727  -1.01973  -1.00694
 Alpha  occ. eigenvalues --   -0.96143  -0.96040  -0.93223  -0.89364  -0.87233
 Alpha  occ. eigenvalues --   -0.85264  -0.84709  -0.82310  -0.82193  -0.79399
 Alpha  occ. eigenvalues --   -0.79031  -0.78155  -0.76582  -0.74037  -0.72299
 Alpha  occ. eigenvalues --   -0.70686  -0.68947  -0.68396  -0.67800  -0.67157
 Alpha  occ. eigenvalues --   -0.66367  -0.65002  -0.63426  -0.62091  -0.60461
 Alpha  occ. eigenvalues --   -0.59946  -0.59367  -0.58596  -0.57705  -0.56752
 Alpha  occ. eigenvalues --   -0.55776  -0.55235  -0.54424  -0.53850  -0.53433
 Alpha  occ. eigenvalues --   -0.53313  -0.52972  -0.52418  -0.52054  -0.51176
 Alpha  occ. eigenvalues --   -0.50504  -0.50241  -0.49851  -0.49123  -0.48471
 Alpha  occ. eigenvalues --   -0.48292  -0.47742  -0.47143  -0.46913  -0.45976
 Alpha  occ. eigenvalues --   -0.45774  -0.45248  -0.44773  -0.44084  -0.43675
 Alpha  occ. eigenvalues --   -0.43255  -0.42358  -0.42081  -0.41715  -0.41356
 Alpha  occ. eigenvalues --   -0.40886  -0.39741  -0.36626  -0.34335  -0.34051
 Alpha  occ. eigenvalues --   -0.33125  -0.32878  -0.32298  -0.31203  -0.29871
 Alpha virt. eigenvalues --   -0.16036  -0.09421  -0.09332  -0.08545  -0.08393
 Alpha virt. eigenvalues --   -0.08049  -0.06660  -0.06258  -0.05535  -0.03382
 Alpha virt. eigenvalues --   -0.02167  -0.01024  -0.00650   0.00100   0.01450

 Mulliken charges:
               1
     1  N   -0.706361
     2  H    0.298469
     3  H    0.309965
     4  C   -0.067756
     5  H    0.161802
     6  C    0.641264
     7  C   -0.389926
     8  H    0.159325
     9  H    0.161679
    10  O   -0.572632
    11  C    0.190665
    12  C   -0.186410
    13  H    0.125409
    14  C   -0.190708
    15  H    0.154476
    16  C   -0.140817
    17  H    0.127689
    18  C   -0.143585
    19  H    0.146144
    20  C   -0.145799
    21  H    0.127665
    22  N   -0.451223
    23  C   -0.066708
    24  H    0.171591
    25  C    0.625114
    26  C   -0.300114
    27  H    0.184700
    28  H    0.155973
    29  O   -0.520481
    30  C   -0.300372
    31  H    0.184715
    32  H    0.164073
    33  C   -0.140962
    34  H    0.169078
    35  H    0.169231
    36  N   -0.624622
    37  H    0.371353
    38  C   -0.015956
    39  H    0.200978
    40  C    0.600256
    41  C   -0.334258
    42  H    0.142746
    43  H    0.186746
    44  O   -0.469843
    45  C   -0.270054
    46  H    0.188661
    47  H    0.185015
    48  C   -0.303913
    49  H    0.175643
    50  H    0.168032
    51  C   -0.206802
    52  H    0.234967
    53  H    0.230692
    54  N   -0.731470
    55  H    0.432428
    56  H    0.428443
    57  H    0.427395
    58  O   -0.543127
    59  H    0.421517
 Sum of Mulliken charges =   1.00000

 Dipole moment (field-independent basis, Debye):
    X=              8.4806    Y=            -19.5666    Z=             10.7186  Tot=             23.8676
 Quadrupole moment (field-independent basis, Debye-Ang):
   XX=           -116.4700   YY=            -49.3010   ZZ=           -118.7914
   XY=            -80.3573   XZ=             20.6280   YZ=            -46.2148

 Normal termination of Gaussian 16 at Thu Jun  2 02:33:28 2022.
