 Gaussian 16, Revision C.01,
 Gaussian 16:  ES64L-G16RevC.01  3-Jul-2019

 ----------------------------------------------------------------------
 # B3LYP/6-31G* empiricaldispersion=gd3 guess=read geom=check nosymm in
 tegral(ultrafinegrid)
 ----------------------------------------------------------------------

 -----------------------------------------------------
 Candidate Structure: Conf:62 Charge calc in gas phase
 -----------------------------------------------------
 Structure from the checkpoint file:  "conf-62.chk"
 Charge =  1 Multiplicity = 1

                          Input orientation:
 ---------------------------------------------------------------------
 Center     Atomic      Atomic             Coordinates (Angstroms)
 Number     Number       Type             X           Y           Z
 ---------------------------------------------------------------------
      1          7           0       -3.462369    2.700402    2.448646
      2          1           0       -3.114264    1.819791    2.833005
      3          1           0       -4.461681    2.720611    2.641102
      4          6           0       -3.228015    2.662816    1.011145
      5          1           0       -3.962688    3.295925    0.507447
      6          6           0       -3.185965    1.226378    0.452737
      7          6           0       -1.788836    3.166639    0.689176
      8          1           0       -1.128997    2.500700    1.260170
      9          1           0       -1.563292    2.969522   -0.364277
     10          8           0       -2.754059    0.326732    1.183214
     11          6           0       -1.475981    4.602458    1.023240
     12          6           0       -1.203131    5.525087   -0.000814
     13          1           0       -1.317765    5.218245   -1.038374
     14          6           0       -1.326386    5.020842    2.360873
     15          1           0       -1.576951    4.323292    3.153470
     16          6           0       -0.777845    6.823274    0.295409
     17          1           0       -0.574711    7.522252   -0.511237
     18          6           0       -0.903474    6.322267    2.656359
     19          1           0       -0.801949    6.632017    3.692820
     20          6           0       -0.618127    7.222927    1.625687
     21          1           0       -0.288449    8.231562    1.857034
     22          7           0       -3.406035    1.017296   -0.868857
     23          6           0       -2.794571   -0.176495   -1.479863
     24          1           0       -3.201265   -1.083931   -1.025754
     25          6           0       -1.276824   -0.074049   -1.232214
     26          6           0       -3.162089   -0.045240   -2.969509
     27          1           0       -2.427365   -0.525285   -3.621221
     28          1           0       -4.130953   -0.526807   -3.140784
     29          8           0       -0.652260    0.946649   -1.538700
     30          6           0       -3.259667    1.473403   -3.189982
     31          1           0       -2.256879    1.887596   -3.318598
     32          1           0       -3.867939    1.739885   -4.058252
     33          6           0       -3.865793    1.991279   -1.876647
     34          1           0       -4.962237    1.999494   -1.909269
     35          1           0       -3.525192    3.003083   -1.641894
     36          7           0       -0.689942   -1.145298   -0.651113
     37          1           0       -1.282105   -1.862551   -0.254289
     38          6           0        0.680230   -1.063398   -0.166838
     39          1           0        1.267949   -0.598378   -0.966353
     40          6           0        1.306443   -2.438294    0.046117
     41          6           0        0.823879   -0.200599    1.127940
     42          1           0        1.402429   -0.756790    1.872307
     43          1           0       -0.180785   -0.036563    1.533772
     44          8           0        2.418829   -2.581749    0.496629
     45          6           0        1.514064    1.148300    0.874593
     46          1           0        2.514406    0.968019    0.457115
     47          1           0        0.934037    1.678714    0.108344
     48          6           0        1.649722    1.966378    2.167727
     49          1           0        2.225984    1.393889    2.904693
     50          1           0        0.665090    2.139937    2.623122
     51          6           0        2.371823    3.301151    1.997927
     52          1           0        2.504230    3.823588    2.948314
     53          1           0        3.347130    3.179891    1.519204
     54          7           0        1.568085    4.240186    1.116852
     55          1           0        2.036915    5.137116    0.954697
     56          1           0        0.639105    4.459109    1.535180
     57          1           0        1.372021    3.817541    0.202929
     58          8           0        0.500084   -3.458740   -0.312941
     59          1           0        0.991761   -4.285201   -0.141300
 ---------------------------------------------------------------------

 SCF Done:  E(RB3LYP) =  -1300.60335543     A.U. after    1 cycles

 Alpha  occ. eigenvalues --  -19.29319 -19.23105 -19.21488 -19.21170 -14.60542
 Alpha  occ. eigenvalues --  -14.45872 -14.45871 -14.40719 -10.41642 -10.39665
 Alpha  occ. eigenvalues --  -10.38410 -10.37654 -10.33961 -10.32914 -10.32645
 Alpha  occ. eigenvalues --  -10.32527 -10.31797 -10.31629 -10.30895 -10.30829
 Alpha  occ. eigenvalues --  -10.30805 -10.30601 -10.30536 -10.30328 -10.29846
 Alpha  occ. eigenvalues --  -10.29178 -10.28311 -10.27721  -1.20067  -1.15175
 Alpha  occ. eigenvalues --   -1.13884  -1.12529  -1.11050  -1.03658  -1.02516
 Alpha  occ. eigenvalues --   -0.98676  -0.97040  -0.93853  -0.89517  -0.88801
 Alpha  occ. eigenvalues --   -0.88373  -0.86087  -0.85247  -0.83073  -0.82366
 Alpha  occ. eigenvalues --   -0.77626  -0.75910  -0.73826  -0.73270  -0.72844
 Alpha  occ. eigenvalues --   -0.71994  -0.71325  -0.70392  -0.69288  -0.69237
 Alpha  occ. eigenvalues --   -0.67594  -0.65053  -0.64348  -0.63102  -0.61923
 Alpha  occ. eigenvalues --   -0.61144  -0.60425  -0.59414  -0.58418  -0.57803
 Alpha  occ. eigenvalues --   -0.56921  -0.56859  -0.56473  -0.55941  -0.55767
 Alpha  occ. eigenvalues --   -0.54976  -0.54394  -0.54068  -0.53356  -0.53138
 Alpha  occ. eigenvalues --   -0.52299  -0.51649  -0.51093  -0.50485  -0.50251
 Alpha  occ. eigenvalues --   -0.49862  -0.49369  -0.48742  -0.48088  -0.47822
 Alpha  occ. eigenvalues --   -0.47416  -0.46889  -0.46109  -0.45405  -0.45214
 Alpha  occ. eigenvalues --   -0.44986  -0.44778  -0.44510  -0.44152  -0.43588
 Alpha  occ. eigenvalues --   -0.43275  -0.40923  -0.37415  -0.37341  -0.36661
 Alpha  occ. eigenvalues --   -0.36038  -0.35464  -0.35025  -0.33352  -0.32886
 Alpha virt. eigenvalues --   -0.12764  -0.12502  -0.11151  -0.09043  -0.08232
 Alpha virt. eigenvalues --   -0.07245  -0.05507  -0.04231  -0.02530  -0.01948
 Alpha virt. eigenvalues --   -0.01728  -0.01338  -0.00207  -0.00185   0.00816

 Mulliken charges:
               1
     1  N   -0.716907
     2  H    0.322389
     3  H    0.320206
     4  C   -0.064864
     5  H    0.156855
     6  C    0.589301
     7  C   -0.392179
     8  H    0.151293
     9  H    0.188537
    10  O   -0.549928
    11  C    0.117466
    12  C   -0.214057
    13  H    0.152517
    14  C   -0.216846
    15  H    0.182041
    16  C   -0.140652
    17  H    0.164593
    18  C   -0.130488
    19  H    0.166575
    20  C   -0.146399
    21  H    0.166115
    22  N   -0.425124
    23  C   -0.059570
    24  H    0.169666
    25  C    0.648537
    26  C   -0.302650
    27  H    0.175584
    28  H    0.171130
    29  O   -0.557245
    30  C   -0.299790
    31  H    0.179696
    32  H    0.166470
    33  C   -0.129610
    34  H    0.173658
    35  H    0.155813
    36  N   -0.594039
    37  H    0.357970
    38  C   -0.036288
    39  H    0.208467
    40  C    0.575476
    41  C   -0.296695
    42  H    0.180487
    43  H    0.192083
    44  O   -0.448934
    45  C   -0.309864
    46  H    0.162691
    47  H    0.167325
    48  C   -0.299496
    49  H    0.198005
    50  H    0.174780
    51  C   -0.199889
    52  H    0.216947
    53  H    0.215706
    54  N   -0.751049
    55  H    0.415998
    56  H    0.415979
    57  H    0.417842
    58  O   -0.565810
    59  H    0.430170
 Sum of Mulliken charges =   1.00000

 Dipole moment (field-independent basis, Debye):
    X=              0.5446    Y=             15.2430    Z=              2.5333  Tot=             15.4617
 Quadrupole moment (field-independent basis, Debye-Ang):
   XX=           -132.0705   YY=            -64.9757   ZZ=           -144.5531
   XY=             19.0590   XZ=             16.9144   YZ=             20.9343

 Normal termination of Gaussian 16 at Thu Jun  2 02:22:52 2022.
