 Gaussian 16, Revision C.01,
 Gaussian 16:  ES64L-G16RevC.01  3-Jul-2019

 ----------------------------------------------------------------------
 # B3LYP/6-31G* empiricaldispersion=gd3 guess=read geom=check nosymm in
 tegral(ultrafinegrid)
 ----------------------------------------------------------------------

 ------------------------------------------------------
 Candidate Structure: Conf:879 Charge calc in gas phase
 ------------------------------------------------------
 Structure from the checkpoint file:  "conf-879.chk"
 Charge =  1 Multiplicity = 1

                          Input orientation:
 ---------------------------------------------------------------------
 Center     Atomic      Atomic             Coordinates (Angstroms)
 Number     Number       Type             X           Y           Z
 ---------------------------------------------------------------------
      1          7           0       -0.429861   -3.257442    3.175359
      2          1           0        0.217874   -3.003832    3.926782
      3          1           0       -1.103694   -3.939423    3.532013
      4          1           0        0.133192   -3.647483    2.368074
      5          6           0       -1.085425   -2.043664    2.531692
      6          1           0       -1.181439   -1.237705    3.260169
      7          6           0       -0.077808   -1.723291    1.389066
      8          6           0       -2.474835   -2.457783    1.963483
      9          1           0       -2.874427   -3.276654    2.580191
     10          1           0       -2.335283   -2.861726    0.954185
     11          8           0        0.589066   -2.676250    0.948165
     12          6           0       -3.514831   -1.315700    1.931027
     13          1           0       -3.796703   -1.047951    2.954130
     14          1           0       -4.395665   -1.674561    1.391485
     15          6           0       -2.882994   -0.098937    1.228727
     16          8           0       -2.964003   -0.024626   -0.011467
     17          8           0       -2.157912    0.618667    2.004434
     18          7           0       -0.062786   -0.467772    0.950773
     19          1           0       -0.796623    0.171869    1.379540
     20          6           0        0.341006   -0.120529   -0.410142
     21          1           0       -0.044635    0.899357   -0.524916
     22          6           0        1.859330    0.014876   -0.602379
     23          6           0       -0.328128   -0.981342   -1.509227
     24          1           0        0.250705   -1.892383   -1.672390
     25          1           0       -1.325206   -1.239170   -1.141748
     26          8           0        2.398667   -0.197280   -1.687985
     27          6           0       -0.457939   -0.163569   -2.773125
     28          6           0       -1.374499    0.900361   -2.802153
     29          1           0       -2.057980    1.023744   -1.962821
     30          6           0        0.385395   -0.366143   -3.870122
     31          1           0        1.098765   -1.182344   -3.850936
     32          6           0       -1.390082    1.796592   -3.873055
     33          1           0       -2.078591    2.635758   -3.902301
     34          6           0        0.379149    0.519680   -4.947148
     35          1           0        1.066296    0.384489   -5.780344
     36          8           0       -0.365038    2.650188   -5.860650
     37          1           0       -0.203803    2.273558   -6.742376
     38          6           0       -0.490859    1.607930   -4.918620
     39          7           0        2.520533    0.530860    0.463047
     40          1           0        2.029312    0.676615    1.338243
     41          6           0        3.866389    1.067407    0.369217
     42          1           0        4.583525    0.261563    0.166674
     43          6           0        4.210011    1.653684    1.733449
     44          6           0        4.015739    2.116996   -0.764306
     45          1           0        5.031107    2.523365   -0.725486
     46          1           0        3.916689    1.564320   -1.700304
     47          8           0        3.450175    1.698326    2.676790
     48          6           0        2.980892    3.252515   -0.691293
     49          1           0        3.310312    4.011045    0.027494
     50          1           0        2.026188    2.869599   -0.309864
     51          6           0        2.734392    3.937070   -2.049711
     52          1           0        2.273323    4.920458   -1.883383
     53          1           0        3.696989    4.115686   -2.550846
     54          6           0        1.819545    3.113748   -2.958139
     55          1           0        2.189560    2.107471   -3.166385
     56          1           0        0.810250    3.011365   -2.553651
     57          7           0        1.659663    3.816636   -4.301536
     58          1           0        0.964848    3.359341   -4.946651
     59          1           0        2.559836    3.871731   -4.788980
     60          1           0        1.339357    4.781192   -4.161001
     61          8           0        5.468714    2.128052    1.759823
     62          1           0        5.627489    2.482387    2.655720
 ---------------------------------------------------------------------

 SCF Done:  E(RB3LYP) =  -1526.25840613     A.U. after    1 cycles

 Alpha  occ. eigenvalues --  -19.30288 -19.29556 -19.24147 -19.23163 -19.20516
 Alpha  occ. eigenvalues --  -19.13911 -19.13848 -14.59352 -14.56982 -14.44782
 Alpha  occ. eigenvalues --  -14.44011 -10.42089 -10.39442 -10.37643 -10.37642
 Alpha  occ. eigenvalues --  -10.36375 -10.34573 -10.33756 -10.32475 -10.31991
 Alpha  occ. eigenvalues --  -10.31969 -10.29920 -10.29863 -10.28835 -10.28715
 Alpha  occ. eigenvalues --  -10.28134 -10.27827 -10.27772 -10.27133 -10.26040
 Alpha  occ. eigenvalues --  -10.24699  -1.20607  -1.17130  -1.15412  -1.13598
 Alpha  occ. eigenvalues --   -1.12513  -1.11675  -1.10521  -1.07365  -1.02446
 Alpha  occ. eigenvalues --   -1.01166  -0.98264  -0.94605  -0.92932  -0.89761
 Alpha  occ. eigenvalues --   -0.88106  -0.86967  -0.83948  -0.83241  -0.81987
 Alpha  occ. eigenvalues --   -0.79713  -0.77176  -0.75054  -0.73125  -0.73042
 Alpha  occ. eigenvalues --   -0.72649  -0.71292  -0.70814  -0.70267  -0.69652
 Alpha  occ. eigenvalues --   -0.68442  -0.67894  -0.66282  -0.65632  -0.63904
 Alpha  occ. eigenvalues --   -0.63253  -0.62946  -0.60721  -0.59175  -0.59051
 Alpha  occ. eigenvalues --   -0.58782  -0.58078  -0.57626  -0.57250  -0.56331
 Alpha  occ. eigenvalues --   -0.55849  -0.55511  -0.54542  -0.53961  -0.53439
 Alpha  occ. eigenvalues --   -0.52168  -0.52004  -0.51968  -0.51533  -0.51427
 Alpha  occ. eigenvalues --   -0.50836  -0.50679  -0.50378  -0.49431  -0.48800
 Alpha  occ. eigenvalues --   -0.48352  -0.48010  -0.47262  -0.47141  -0.46018
 Alpha  occ. eigenvalues --   -0.45916  -0.45426  -0.45066  -0.44804  -0.44209
 Alpha  occ. eigenvalues --   -0.43710  -0.43439  -0.42774  -0.41988  -0.41735
 Alpha  occ. eigenvalues --   -0.41667  -0.40248  -0.37683  -0.37395  -0.36663
 Alpha  occ. eigenvalues --   -0.34937  -0.34283  -0.33967  -0.31437  -0.29967
 Alpha  occ. eigenvalues --   -0.28620  -0.27650
 Alpha virt. eigenvalues --   -0.10725  -0.10051  -0.09434  -0.09162  -0.08581
 Alpha virt. eigenvalues --   -0.07869  -0.06702  -0.05107  -0.04493  -0.04058
 Alpha virt. eigenvalues --   -0.03681  -0.01551  -0.00908  -0.00221   0.00764

 Mulliken charges:
               1
     1  N   -0.749307
     2  H    0.408699
     3  H    0.402169
     4  H    0.420778
     5  C   -0.119357
     6  H    0.234140
     7  C    0.630078
     8  C   -0.312618
     9  H    0.143563
    10  H    0.193477
    11  O   -0.558748
    12  C   -0.306129
    13  H    0.152624
    14  H    0.164198
    15  C    0.542694
    16  O   -0.542682
    17  O   -0.615062
    18  N   -0.645602
    19  H    0.417192
    20  C   -0.056558
    21  H    0.183041
    22  C    0.637142
    23  C   -0.360460
    24  H    0.176447
    25  H    0.202560
    26  O   -0.542139
    27  C    0.130691
    28  C   -0.199971
    29  H    0.214341
    30  C   -0.146400
    31  H    0.164002
    32  C   -0.176976
    33  H    0.159257
    34  C   -0.205283
    35  H    0.133424
    36  O   -0.676178
    37  H    0.432072
    38  C    0.266974
    39  N   -0.625109
    40  H    0.364357
    41  C   -0.011945
    42  H    0.203529
    43  C    0.580258
    44  C   -0.303964
    45  H    0.176446
    46  H    0.184036
    47  O   -0.459999
    48  C   -0.279745
    49  H    0.171833
    50  H    0.161798
    51  C   -0.292376
    52  H    0.161086
    53  H    0.156914
    54  C   -0.207211
    55  H    0.243912
    56  H    0.223554
    57  N   -0.772465
    58  H    0.454588
    59  H    0.402300
    60  H    0.405310
    61  O   -0.562349
    62  H    0.429149
 Sum of Mulliken charges =   1.00000

 Dipole moment (field-independent basis, Debye):
    X=             10.4044    Y=              5.2272    Z=             -6.3966  Tot=             13.2850
 Quadrupole moment (field-independent basis, Debye-Ang):
   XX=           -157.5272   YY=            -93.4413   ZZ=            -64.4979
   XY=             46.6525   XZ=            -20.0817   YZ=            -90.6025

 Normal termination of Gaussian 16 at Wed Jun  1 23:37:50 2022.
