 Gaussian 16, Revision C.01,
 Gaussian 16:  ES64L-G16RevC.01  3-Jul-2019

 ----------------------------------------------------------------------
 # B3LYP/6-31G* empiricaldispersion=gd3 guess=read geom=check nosymm in
 tegral(ultrafinegrid)
 ----------------------------------------------------------------------

 ------------------------------------------------------
 Candidate Structure: Conf:948 Charge calc in gas phase
 ------------------------------------------------------
 Structure from the checkpoint file:  "conf-948.chk"
 Charge =  1 Multiplicity = 1

                          Input orientation:
 ---------------------------------------------------------------------
 Center     Atomic      Atomic             Coordinates (Angstroms)
 Number     Number       Type             X           Y           Z
 ---------------------------------------------------------------------
      1          7           0       -0.551278   -3.208708    1.952739
      2          1           0        0.247914   -3.836990    1.846870
      3          1           0       -1.034039   -3.433925    2.826943
      4          1           0       -1.220956   -3.309568    1.120753
      5          6           0       -0.181430   -1.738799    1.847289
      6          1           0        0.867775   -1.690167    1.541493
      7          6           0       -1.001588   -1.282479    0.598141
      8          6           0       -0.368482   -1.063831    3.217770
      9          1           0        0.229137   -1.641937    3.933244
     10          1           0       -1.421634   -1.135758    3.518919
     11          8           0       -1.689955   -2.150166    0.040956
     12          6           0        0.100557    0.402378    3.294751
     13          1           0        0.182132    0.673311    4.350781
     14          1           0       -0.628894    1.067572    2.825533
     15          6           0        1.465075    0.562848    2.605147
     16          8           0        1.462240    1.040163    1.438446
     17          8           0        2.475969    0.112429    3.222759
     18          7           0       -0.831469   -0.015300    0.193958
     19          1           0       -0.145604    0.513124    0.758679
     20          6           0       -0.626558    0.339757   -1.233306
     21          1           0       -0.881219    1.400167   -1.324772
     22          6           0        0.903261    0.139320   -1.383797
     23          6           0       -1.417153   -0.448908   -2.287081
     24          1           0       -1.141920   -1.503465   -2.233522
     25          1           0       -2.484646   -0.379002   -2.055655
     26          8           0        1.415198   -0.934304   -1.059435
     27          6           0       -1.103517    0.119788   -3.655157
     28          6           0       -1.746069    1.277838   -4.119059
     29          1           0       -2.526284    1.736444   -3.514597
     30          6           0       -0.112861   -0.453086   -4.460167
     31          1           0        0.404527   -1.346563   -4.118588
     32          6           0       -1.419614    1.845042   -5.345782
     33          1           0       -1.924944    2.732503   -5.712548
     34          6           0        0.225893    0.102166   -5.693835
     35          1           0        0.992741   -0.362659   -6.310274
     36          8           0       -0.152122    1.854704   -7.333682
     37          1           0        0.509204    1.334506   -7.816235
     38          6           0       -0.428651    1.255239   -6.141530
     39          7           0        1.640414    1.228647   -1.713119
     40          1           0        1.171416    2.090027   -1.959228
     41          6           0        2.990621    1.302315   -1.163869
     42          1           0        2.926631    0.747673   -0.234400
     43          6           0        3.347322    2.703715   -0.721741
     44          6           0        4.084943    0.678244   -2.061469
     45          1           0        3.693068   -0.293624   -2.379793
     46          1           0        4.199783    1.291792   -2.962492
     47          8           0        4.144836    2.924508    0.175026
     48          6           0        5.451051    0.501869   -1.368306
     49          1           0        5.747881    1.437872   -0.882068
     50          1           0        6.201981    0.329642   -2.147701
     51          6           0        5.578383   -0.675077   -0.375509
     52          1           0        5.461270   -1.617698   -0.925710
     53          1           0        6.603666   -0.680162    0.018364
     54          6           0        4.594627   -0.755382    0.796328
     55          1           0        3.568213   -0.892627    0.449047
     56          1           0        4.839420   -1.609282    1.434688
     57          7           0        4.585545    0.448844    1.696243
     58          1           0        3.728768    0.356745    2.390233
     59          1           0        4.461900    1.337435    1.175432
     60          1           0        5.456770    0.524185    2.226322
     61          8           0        2.743467    3.675431   -1.417828
     62          1           0        3.035820    4.536343   -1.059187
 ---------------------------------------------------------------------

 SCF Done:  E(RB3LYP) =  -1526.30150658     A.U. after    1 cycles

 Alpha  occ. eigenvalues --  -19.31801 -19.26231 -19.26037 -19.24723 -19.22452
 Alpha  occ. eigenvalues --  -19.20617 -19.20263 -14.58465 -14.51430 -14.46860
 Alpha  occ. eigenvalues --  -14.46562 -10.44113 -10.42428 -10.39217 -10.39102
 Alpha  occ. eigenvalues --  -10.38180 -10.34409 -10.34129 -10.33920 -10.33081
 Alpha  occ. eigenvalues --  -10.32198 -10.29951 -10.29282 -10.29119 -10.28858
 Alpha  occ. eigenvalues --  -10.27793 -10.26748 -10.26657 -10.26554 -10.26280
 Alpha  occ. eigenvalues --  -10.25721  -1.22755  -1.18271  -1.14337  -1.13764
 Alpha  occ. eigenvalues --   -1.13623  -1.12856  -1.12339  -1.06923  -1.04917
 Alpha  occ. eigenvalues --   -1.04056  -1.03221  -0.93321  -0.92564  -0.91220
 Alpha  occ. eigenvalues --   -0.88338  -0.86506  -0.84226  -0.82179  -0.82123
 Alpha  occ. eigenvalues --   -0.80683  -0.76565  -0.76460  -0.75355  -0.72854
 Alpha  occ. eigenvalues --   -0.72589  -0.70106  -0.69822  -0.69316  -0.68859
 Alpha  occ. eigenvalues --   -0.67726  -0.66488  -0.66107  -0.65230  -0.64943
 Alpha  occ. eigenvalues --   -0.62998  -0.62179  -0.61639  -0.60831  -0.60018
 Alpha  occ. eigenvalues --   -0.59675  -0.58951  -0.57973  -0.57729  -0.57199
 Alpha  occ. eigenvalues --   -0.56690  -0.55599  -0.55377  -0.54443  -0.53978
 Alpha  occ. eigenvalues --   -0.53842  -0.53023  -0.52544  -0.51999  -0.51619
 Alpha  occ. eigenvalues --   -0.51335  -0.51019  -0.50789  -0.50272  -0.49847
 Alpha  occ. eigenvalues --   -0.49477  -0.48963  -0.48689  -0.48306  -0.47499
 Alpha  occ. eigenvalues --   -0.47180  -0.46576  -0.46206  -0.45755  -0.44783
 Alpha  occ. eigenvalues --   -0.44536  -0.43927  -0.43529  -0.43110  -0.42754
 Alpha  occ. eigenvalues --   -0.40956  -0.40461  -0.40202  -0.39858  -0.38516
 Alpha  occ. eigenvalues --   -0.36262  -0.35962  -0.35501  -0.35221  -0.34126
 Alpha  occ. eigenvalues --   -0.32554  -0.29103
 Alpha virt. eigenvalues --   -0.12808  -0.10999  -0.10080  -0.08199  -0.07337
 Alpha virt. eigenvalues --   -0.06475  -0.06110  -0.04818  -0.04490  -0.03421
 Alpha virt. eigenvalues --   -0.02661  -0.00226  -0.00122   0.00366   0.00687

 Mulliken charges:
               1
     1  N   -0.766816
     2  H    0.412544
     3  H    0.407170
     4  H    0.435198
     5  C   -0.123000
     6  H    0.243550
     7  C    0.647813
     8  C   -0.296247
     9  H    0.181689
    10  H    0.173055
    11  O   -0.536163
    12  C   -0.352495
    13  H    0.190455
    14  H    0.174512
    15  C    0.591985
    16  O   -0.585973
    17  O   -0.600034
    18  N   -0.618768
    19  H    0.400564
    20  C   -0.056904
    21  H    0.165397
    22  C    0.630850
    23  C   -0.354089
    24  H    0.183447
    25  H    0.175787
    26  O   -0.554045
    27  C    0.137836
    28  C   -0.197586
    29  H    0.135012
    30  C   -0.186711
    31  H    0.138309
    32  C   -0.156982
    33  H    0.156416
    34  C   -0.192870
    35  H    0.130498
    36  O   -0.631738
    37  H    0.414225
    38  C    0.353447
    39  N   -0.601076
    40  H    0.360498
    41  C   -0.048444
    42  H    0.201956
    43  C    0.624039
    44  C   -0.271845
    45  H    0.182121
    46  H    0.165119
    47  O   -0.481843
    48  C   -0.302650
    49  H    0.160840
    50  H    0.170955
    51  C   -0.272335
    52  H    0.171848
    53  H    0.158237
    54  C   -0.211343
    55  H    0.222253
    56  H    0.181663
    57  N   -0.804823
    58  H    0.442999
    59  H    0.426721
    60  H    0.376601
    61  O   -0.558298
    62  H    0.437469
 Sum of Mulliken charges =   1.00000

 Dipole moment (field-independent basis, Debye):
    X=              9.1648    Y=             -4.7469    Z=              3.1575  Tot=             10.7934
 Quadrupole moment (field-independent basis, Debye-Ang):
   XX=           -122.3884   YY=           -133.2263   ZZ=           -139.3773
   XY=              6.8945   XZ=            -13.5593   YZ=            -25.7798

 Normal termination of Gaussian 16 at Wed Jun  1 23:37:55 2022.
