 Gaussian 16, Revision C.01,
 Gaussian 16:  ES64L-G16RevC.01  3-Jul-2019

 ----------------------------------------------------------------------
 # B3LYP/6-31G* empiricaldispersion=gd3 guess=read geom=check nosymm in
 tegral(ultrafinegrid)
 ----------------------------------------------------------------------

 ------------------------------------------------------
 Candidate Structure: Conf:197 Charge calc in gas phase
 ------------------------------------------------------
 Structure from the checkpoint file:  "conf-197.chk"
 Charge =  1 Multiplicity = 1

                          Input orientation:
 ---------------------------------------------------------------------
 Center     Atomic      Atomic             Coordinates (Angstroms)
 Number     Number       Type             X           Y           Z
 ---------------------------------------------------------------------
      1          7           0        0.484637   -3.568817    2.853325
      2          1           0        1.343111   -3.761742    2.334325
      3          1           0        0.816941   -2.846648    4.549369
      4          1           0       -0.140162   -4.353785    2.666599
      5          6           0       -0.089607   -2.324676    2.322099
      6          1           0        0.564074   -1.517705    2.678686
      7          6           0        0.107576   -2.166818    0.805469
      8          6           0       -1.479000   -2.062109    2.920940
      9          1           0       -2.221121   -2.761625    2.516506
     10          1           0       -1.796336   -1.047363    2.654310
     11          8           0        1.101654   -2.654343    0.281149
     12          6           0       -1.474033   -2.157250    4.469409
     13          1           0       -1.408847   -3.201750    4.786368
     14          1           0       -2.395049   -1.727543    4.868795
     15          6           0       -0.294750   -1.359245    5.012825
     16          8           0       -0.377788   -0.169259    5.277268
     17          8           0        0.872381   -2.001269    5.082412
     18          7           0       -0.722946   -1.305173    0.140798
     19          1           0       -1.551919   -0.971376    0.609619
     20          6           0       -0.263068   -0.572960   -1.050584
     21          1           0       -1.033318    0.182121   -1.248209
     22          6           0        1.044220    0.183311   -0.687454
     23          6           0       -0.097708   -1.442634   -2.309523
     24          1           0        0.793323   -2.060060   -2.186862
     25          1           0       -0.962491   -2.115123   -2.349218
     26          8           0        2.082847    0.092882   -1.322777
     27          6           0       -0.025502   -0.609660   -3.572558
     28          6           0       -1.182175   -0.019121   -4.103337
     29          1           0       -2.140971   -0.186040   -3.614949
     30          6           0        1.185716   -0.393217   -4.237749
     31          1           0        2.095974   -0.822033   -3.832049
     32          6           0       -1.141872    0.760684   -5.255652
     33          1           0       -2.040464    1.203514   -5.673306
     34          6           0        1.243123    0.378173   -5.398262
     35          1           0        2.193653    0.525715   -5.908599
     36          8           0        0.066722    1.730346   -7.041507
     37          1           0        0.933144    1.674667   -7.473507
     38          6           0        0.077867    0.957169   -5.912044
     39          7           0        0.922342    0.988548    0.421211
     40          1           0        0.096670    0.859202    0.989994
     41          6           0        2.096682    1.452782    1.151052
     42          1           0        2.913136    0.742796    0.958320
     43          6           0        1.866919    1.448339    2.672364
     44          6           0        2.571399    2.853765    0.719779
     45          1           0        1.748533    3.558882    0.904979
     46          1           0        3.395421    3.135894    1.385568
     47          8           0        2.642480    1.956804    3.446793
     48          6           0        3.022177    2.909175   -0.745066
     49          1           0        2.174207    2.730978   -1.415155
     50          1           0        3.722046    2.093540   -0.945989
     51          6           0        3.715236    4.232581   -1.120107
     52          1           0        4.589740    4.386499   -0.471938
     53          1           0        4.077790    4.167026   -2.155351
     54          6           0        2.774794    5.423715   -0.991483
     55          1           0        1.897355    5.332740   -1.636936
     56          1           0        2.447940    5.598635    0.035222
     57          7           0        3.487401    6.710939   -1.424591
     58          1           0        2.882398    7.538240   -1.352397
     59          1           0        3.808955    6.640754   -2.398091
     60          1           0        4.318544    6.878735   -0.843811
     61          8           0        0.727315    0.826054    3.020321
     62          1           0        0.619300    0.754699    4.004858
 ---------------------------------------------------------------------

 SCF Done:  E(RB3LYP) =  -1526.26153020     A.U. after    3 cycles

 Alpha  occ. eigenvalues --  -19.27782 -19.24904 -19.24012 -19.22171 -19.20636
 Alpha  occ. eigenvalues --  -19.20599 -19.20265 -14.65556 -14.45199 -14.44657
 Alpha  occ. eigenvalues --  -14.42039 -10.42298 -10.40762 -10.39138 -10.37439
 Alpha  occ. eigenvalues --  -10.37291 -10.34728 -10.33320 -10.32309 -10.31424
 Alpha  occ. eigenvalues --  -10.31078 -10.30442 -10.29709 -10.29269 -10.27999
 Alpha  occ. eigenvalues --  -10.25456 -10.25323 -10.25164 -10.25101 -10.24942
 Alpha  occ. eigenvalues --  -10.24660  -1.19397  -1.18616  -1.16402  -1.12851
 Alpha  occ. eigenvalues --   -1.11991  -1.11952  -1.10021  -1.08078  -1.02226
 Alpha  occ. eigenvalues --   -1.00614  -0.98692  -0.95859  -0.91525  -0.89184
 Alpha  occ. eigenvalues --   -0.87850  -0.85865  -0.84096  -0.80872  -0.80727
 Alpha  occ. eigenvalues --   -0.79563  -0.78004  -0.77953  -0.76440  -0.72947
 Alpha  occ. eigenvalues --   -0.71837  -0.71284  -0.69242  -0.68258  -0.68104
 Alpha  occ. eigenvalues --   -0.67373  -0.67002  -0.66173  -0.64435  -0.62856
 Alpha  occ. eigenvalues --   -0.62390  -0.61500  -0.60482  -0.59734  -0.58956
 Alpha  occ. eigenvalues --   -0.57987  -0.56984  -0.56844  -0.55800  -0.55027
 Alpha  occ. eigenvalues --   -0.55006  -0.54216  -0.53943  -0.53444  -0.53114
 Alpha  occ. eigenvalues --   -0.52572  -0.51975  -0.51861  -0.50718  -0.50412
 Alpha  occ. eigenvalues --   -0.49979  -0.49190  -0.49093  -0.48707  -0.48234
 Alpha  occ. eigenvalues --   -0.47806  -0.47359  -0.47010  -0.46720  -0.46006
 Alpha  occ. eigenvalues --   -0.45821  -0.45213  -0.44896  -0.44654  -0.44304
 Alpha  occ. eigenvalues --   -0.43415  -0.42673  -0.42282  -0.41564  -0.40068
 Alpha  occ. eigenvalues --   -0.39628  -0.38887  -0.38123  -0.36821  -0.36079
 Alpha  occ. eigenvalues --   -0.35846  -0.34361  -0.34244  -0.33311  -0.32780
 Alpha  occ. eigenvalues --   -0.31264  -0.27837
 Alpha virt. eigenvalues --   -0.15909  -0.09283  -0.09180  -0.08289  -0.07739
 Alpha virt. eigenvalues --   -0.07171  -0.06708  -0.06537  -0.06141  -0.04661
 Alpha virt. eigenvalues --   -0.03211  -0.02976  -0.01986  -0.00338   0.00239

 Mulliken charges:
               1
     1  N   -0.761013
     2  H    0.350665
     3  H    0.452046
     4  H    0.324746
     5  C   -0.098807
     6  H    0.207432
     7  C    0.600562
     8  C   -0.306710
     9  H    0.167779
    10  H    0.153548
    11  O   -0.505000
    12  C   -0.351521
    13  H    0.174480
    14  H    0.190549
    15  C    0.594021
    16  O   -0.495682
    17  O   -0.570313
    18  N   -0.626573
    19  H    0.335746
    20  C   -0.060353
    21  H    0.163873
    22  C    0.623865
    23  C   -0.344003
    24  H    0.200482
    25  H    0.155694
    26  O   -0.506543
    27  C    0.147948
    28  C   -0.194559
    29  H    0.122229
    30  C   -0.172570
    31  H    0.152909
    32  C   -0.161033
    33  H    0.144850
    34  C   -0.203621
    35  H    0.118666
    36  O   -0.642323
    37  H    0.408638
    38  C    0.345372
    39  N   -0.614504
    40  H    0.341774
    41  C   -0.060686
    42  H    0.210698
    43  C    0.603732
    44  C   -0.272688
    45  H    0.131222
    46  H    0.174922
    47  O   -0.450229
    48  C   -0.270624
    49  H    0.174733
    50  H    0.199946
    51  C   -0.299519
    52  H    0.169557
    53  H    0.168925
    54  C   -0.206125
    55  H    0.229837
    56  H    0.233374
    57  N   -0.731509
    58  H    0.431810
    59  H    0.427251
    60  H    0.428613
    61  O   -0.617188
    62  H    0.461204
 Sum of Mulliken charges =   1.00000

 Dipole moment (field-independent basis, Debye):
    X=              9.9769    Y=             23.6058    Z=             -6.3708  Tot=             26.4075
 Quadrupole moment (field-independent basis, Debye-Ang):
   XX=           -123.5157   YY=             18.9571   ZZ=           -179.7807
   XY=            103.9230   XZ=            -42.6166   YZ=            -60.4884

 Normal termination of Gaussian 16 at Wed Jun  1 23:38:16 2022.
