 Gaussian 16, Revision C.01,
 Gaussian 16:  ES64L-G16RevC.01  3-Jul-2019

 ----------------------------------------------------------------------
 # B3LYP/6-31G* empiricaldispersion=gd3 guess=read geom=check nosymm in
 tegral(ultrafinegrid)
 ----------------------------------------------------------------------

 ------------------------------------------------------
 Candidate Structure: Conf:549 Charge calc in gas phase
 ------------------------------------------------------
 Structure from the checkpoint file:  "conf-549.chk"
 Charge =  1 Multiplicity = 1

                          Input orientation:
 ---------------------------------------------------------------------
 Center     Atomic      Atomic             Coordinates (Angstroms)
 Number     Number       Type             X           Y           Z
 ---------------------------------------------------------------------
      1          7           0       -0.634439   -2.281855   -1.945003
      2          1           0       -0.800444   -1.571372   -2.662575
      3          1           0        0.765505   -3.181273   -2.140006
      4          1           0       -1.531034   -2.745777   -1.791185
      5          6           0       -0.202005   -1.582179   -0.720625
      6          1           0        0.838915   -1.282244   -0.907269
      7          6           0       -0.873718   -0.202441   -0.582777
      8          6           0       -0.179619   -2.536846    0.480109
      9          1           0       -1.197838   -2.760951    0.819104
     10          1           0        0.345089   -2.050943    1.310157
     11          8           0       -1.108166    0.414913   -1.627260
     12          6           0        0.545179   -3.877247    0.169309
     13          1           0       -0.103520   -4.526927   -0.425826
     14          1           0        0.785609   -4.391364    1.101542
     15          6           0        1.837444   -3.643527   -0.591956
     16          8           0        2.938423   -3.609921   -0.042823
     17          8           0        1.743200   -3.405523   -1.896847
     18          7           0       -1.006440    0.308190    0.655302
     19          1           0       -0.800237   -0.288168    1.443040
     20          6           0       -1.220566    1.737115    0.976726
     21          1           0       -1.379824    1.767631    2.055913
     22          6           0        0.119544    2.472965    0.753363
     23          6           0       -2.453209    2.363326    0.288012
     24          1           0       -2.532328    3.386809    0.673649
     25          1           0       -2.290576    2.435717   -0.788266
     26          8           0        0.798709    2.843818    1.702114
     27          6           0       -3.712135    1.578114    0.578890
     28          6           0       -4.195026    0.628570   -0.333043
     29          1           0       -3.680089    0.494605   -1.280704
     30          6           0       -4.396720    1.740050    1.788477
     31          1           0       -4.050307    2.477594    2.509726
     32          6           0       -5.322321   -0.136513   -0.050542
     33          1           0       -5.709071   -0.860553   -0.760885
     34          6           0       -5.527054    0.980484    2.087509
     35          1           0       -6.050936    1.127800    3.029756
     36          8           0       -7.089924   -0.744646    1.388089
     37          1           0       -7.498726   -0.500454    2.233198
     38          6           0       -5.994020    0.035971    1.165782
     39          7           0        0.511332    2.595300   -0.548695
     40          1           0       -0.081185    2.210284   -1.276097
     41          6           0        1.837406    3.072628   -0.896157
     42          1           0        2.201379    3.604947   -0.008518
     43          6           0        1.804889    4.089511   -2.037086
     44          6           0        2.818996    1.931395   -1.236017
     45          1           0        2.491235    1.463418   -2.174870
     46          1           0        3.797987    2.378204   -1.440114
     47          8           0        2.700998    4.224255   -2.839910
     48          6           0        2.916105    0.885940   -0.118573
     49          1           0        1.936533    0.410707    0.014068
     50          1           0        3.134217    1.379487    0.834541
     51          6           0        3.971083   -0.210893   -0.354841
     52          1           0        4.980240    0.210742   -0.262223
     53          1           0        3.864533   -0.971407    0.429734
     54          6           0        3.834762   -0.884546   -1.722874
     55          1           0        2.797641   -1.115345   -1.972369
     56          1           0        4.257926   -0.280785   -2.528417
     57          7           0        4.541257   -2.223617   -1.728190
     58          1           0        4.506328   -2.663442   -2.653011
     59          1           0        4.038665   -2.879633   -1.052531
     60          1           0        5.523805   -2.135530   -1.450526
     61          8           0        0.681161    4.832210   -2.032689
     62          1           0        0.767525    5.476963   -2.761292
 ---------------------------------------------------------------------

 SCF Done:  E(RB3LYP) =  -1526.30718804     A.U. after    1 cycles

 Alpha  occ. eigenvalues --  -19.31482 -19.28344 -19.28335 -19.24638 -19.24132
 Alpha  occ. eigenvalues --  -19.22714 -19.20831 -14.58744 -14.48857 -14.47780
 Alpha  occ. eigenvalues --  -14.45228 -10.46065 -10.41429 -10.40932 -10.38715
 Alpha  occ. eigenvalues --  -10.38089 -10.36783 -10.33991 -10.33743 -10.33458
 Alpha  occ. eigenvalues --  -10.33363 -10.32733 -10.32050 -10.30446 -10.29565
 Alpha  occ. eigenvalues --  -10.27869 -10.26539 -10.26472 -10.26209 -10.26121
 Alpha  occ. eigenvalues --  -10.25629  -1.23414  -1.19331  -1.16161  -1.14979
 Alpha  occ. eigenvalues --   -1.13298  -1.12803  -1.12738  -1.10368  -1.04803
 Alpha  occ. eigenvalues --   -1.04114  -1.02030  -0.93555  -0.93049  -0.92661
 Alpha  occ. eigenvalues --   -0.89049  -0.87210  -0.84473  -0.83142  -0.81947
 Alpha  occ. eigenvalues --   -0.80897  -0.77861  -0.77092  -0.74652  -0.73326
 Alpha  occ. eigenvalues --   -0.73107  -0.72193  -0.71239  -0.69632  -0.69385
 Alpha  occ. eigenvalues --   -0.68716  -0.67784  -0.66911  -0.65837  -0.65013
 Alpha  occ. eigenvalues --   -0.64212  -0.63113  -0.62153  -0.61454  -0.60696
 Alpha  occ. eigenvalues --   -0.59657  -0.59184  -0.58848  -0.58164  -0.57206
 Alpha  occ. eigenvalues --   -0.56829  -0.56590  -0.56289  -0.55692  -0.54968
 Alpha  occ. eigenvalues --   -0.54683  -0.53934  -0.53510  -0.53224  -0.52449
 Alpha  occ. eigenvalues --   -0.51780  -0.51037  -0.50850  -0.50342  -0.50123
 Alpha  occ. eigenvalues --   -0.49909  -0.49349  -0.48788  -0.48699  -0.47979
 Alpha  occ. eigenvalues --   -0.47730  -0.47332  -0.47193  -0.46504  -0.45644
 Alpha  occ. eigenvalues --   -0.45130  -0.44733  -0.44715  -0.44382  -0.42920
 Alpha  occ. eigenvalues --   -0.42311  -0.41351  -0.40880  -0.40446  -0.39913
 Alpha  occ. eigenvalues --   -0.38903  -0.37635  -0.37181  -0.34370  -0.33835
 Alpha  occ. eigenvalues --   -0.32411  -0.28883
 Alpha virt. eigenvalues --   -0.13721  -0.11427  -0.09931  -0.08203  -0.07562
 Alpha virt. eigenvalues --   -0.07480  -0.06421  -0.05904  -0.04584  -0.04465
 Alpha virt. eigenvalues --   -0.03426  -0.02030  -0.01260  -0.00528  -0.00051

 Mulliken charges:
               1
     1  N   -0.784933
     2  H    0.364168
     3  H    0.468211
     4  H    0.345549
     5  C   -0.094584
     6  H    0.175337
     7  C    0.646364
     8  C   -0.315021
     9  H    0.192938
    10  H    0.175765
    11  O   -0.553941
    12  C   -0.358259
    13  H    0.192377
    14  H    0.212323
    15  C    0.615523
    16  O   -0.503584
    17  O   -0.608648
    18  N   -0.607961
    19  H    0.353470
    20  C   -0.066661
    21  H    0.188319
    22  C    0.614569
    23  C   -0.374803
    24  H    0.177111
    25  H    0.179115
    26  O   -0.510307
    27  C    0.165239
    28  C   -0.203718
    29  H    0.140675
    30  C   -0.195404
    31  H    0.137318
    32  C   -0.165425
    33  H    0.144123
    34  C   -0.191801
    35  H    0.135048
    36  O   -0.635265
    37  H    0.415099
    38  C    0.353771
    39  N   -0.610694
    40  H    0.367802
    41  C   -0.064717
    42  H    0.225116
    43  C    0.588125
    44  C   -0.269785
    45  H    0.137357
    46  H    0.179070
    47  O   -0.457282
    48  C   -0.288245
    49  H    0.136001
    50  H    0.192559
    51  C   -0.297277
    52  H    0.173236
    53  H    0.173357
    54  C   -0.204627
    55  H    0.210339
    56  H    0.217268
    57  N   -0.757886
    58  H    0.409327
    59  H    0.443152
    60  H    0.403422
    61  O   -0.553258
    62  H    0.425546
 Sum of Mulliken charges =   1.00000

 Dipole moment (field-independent basis, Debye):
    X=              7.7366    Y=             -8.2294    Z=             -4.2215  Tot=             12.0581
 Quadrupole moment (field-independent basis, Debye-Ang):
   XX=           -103.6486   YY=           -148.6672   ZZ=           -160.4968
   XY=            -25.3281   XZ=            -37.0362   YZ=              8.4273

 Normal termination of Gaussian 16 at Wed Jun  1 23:37:48 2022.
