 Gaussian 16, Revision C.01,
 Gaussian 16:  ES64L-G16RevC.01  3-Jul-2019

 ----------------------------------------------------------------------
 # B3LYP/6-31G* empiricaldispersion=gd3 guess=read geom=check nosymm in
 tegral(ultrafinegrid)
 ----------------------------------------------------------------------

 ------------------------------------------------------
 Candidate Structure: Conf:961 Charge calc in gas phase
 ------------------------------------------------------
 Structure from the checkpoint file:  "conf-961.chk"
 Charge =  1 Multiplicity = 1

                          Input orientation:
 ---------------------------------------------------------------------
 Center     Atomic      Atomic             Coordinates (Angstroms)
 Number     Number       Type             X           Y           Z
 ---------------------------------------------------------------------
      1          7           0       -0.086347   -2.564943    2.952285
      2          1           0       -0.232097   -3.252935    2.182532
      3          1           0        0.924755   -2.339765    2.960708
      4          1           0       -0.387640   -2.930350    3.858475
      5          6           0       -0.817537   -1.320013    2.511915
      6          1           0       -0.208992   -0.481355    2.841921
      7          6           0       -0.735949   -1.396412    0.974699
      8          6           0       -2.238832   -1.210633    3.071441
      9          1           0       -2.744743   -2.182602    3.012572
     10          1           0       -2.794926   -0.535321    2.415210
     11          8           0       -0.475809   -2.471257    0.442910
     12          6           0       -2.271732   -0.654992    4.499482
     13          1           0       -1.779130   -1.318018    5.221648
     14          1           0       -3.311075   -0.578834    4.840633
     15          6           0       -1.640519    0.726755    4.677274
     16          8           0       -1.420974    1.388172    3.532411
     17          8           0       -1.372058    1.166992    5.778568
     18          7           0       -0.915994   -0.209363    0.347428
     19          1           0       -1.059069    0.573155    0.978974
     20          6           0       -0.181987    0.125674   -0.905017
     21          1           0       -0.451210    1.162525   -1.132807
     22          6           0        1.310668    0.032467   -0.502570
     23          6           0       -0.533612   -0.754592   -2.110433
     24          1           0       -0.134181   -1.755535   -1.938169
     25          1           0       -1.625227   -0.834312   -2.154964
     26          8           0        2.017205   -0.934149   -0.744712
     27          6           0        0.013358   -0.153030   -3.388384
     28          6           0        1.302037   -0.468504   -3.846303
     29          1           0        1.906412   -1.173341   -3.283737
     30          6           0       -0.743815    0.765366   -4.125031
     31          1           0       -1.751436    1.018107   -3.800069
     32          6           0        1.817425    0.110529   -5.000792
     33          1           0        2.810149   -0.137860   -5.361982
     34          6           0       -0.240773    1.354208   -5.284491
     35          1           0       -0.849277    2.057277   -5.849811
     36          8           0        1.605574    1.559458   -6.849981
     37          1           0        0.968817    2.148463   -7.284032
     38          6           0        1.046256    1.026484   -5.726844
     39          7           0        1.726498    1.028047    0.338539
     40          1           0        1.162580    1.855635    0.465302
     41          6           0        2.970393    0.920471    1.074043
     42          1           0        3.824070    0.960594    0.389790
     43          6           0        3.049722   -0.427709    1.795940
     44          6           0        3.082626    2.071365    2.101840
     45          1           0        4.053256    1.987929    2.603558
     46          1           0        3.112103    3.009692    1.531905
     47          8           0        2.109968   -0.999023    2.332037
     48          6           0        1.950130    2.122934    3.139963
     49          1           0        1.976265    1.221700    3.765177
     50          1           0        0.975926    2.104978    2.638057
     51          6           0        2.035069    3.365461    4.034493
     52          1           0        2.994856    3.368397    4.566780
     53          1           0        2.032912    4.272524    3.411491
     54          6           0        0.917246    3.462510    5.075679
     55          1           0        0.854405    2.542391    5.665506
     56          1           0        1.138578    4.284331    5.769206
     57          7           0       -0.416559    3.645367    4.447857
     58          1           0       -1.110776    3.736710    5.190854
     59          1           0       -1.004153    2.320559    3.790770
     60          1           0       -0.439745    4.515324    3.913810
     61          8           0        4.306292   -0.861666    1.861643
     62          1           0        4.327728   -1.699282    2.362269
 ---------------------------------------------------------------------

 SCF Done:  E(RB3LYP) =  -1526.30790023     A.U. after    2 cycles

 Alpha  occ. eigenvalues --  -19.32594 -19.27852 -19.27812 -19.26212 -19.23999
 Alpha  occ. eigenvalues --  -19.23352 -19.22993 -14.58687 -14.49195 -14.47820
 Alpha  occ. eigenvalues --  -14.45520 -10.45600 -10.42808 -10.42172 -10.39871
 Alpha  occ. eigenvalues --  -10.38819 -10.35900 -10.35046 -10.33575 -10.32172
 Alpha  occ. eigenvalues --  -10.31905 -10.31405 -10.31316 -10.30016 -10.29491
 Alpha  occ. eigenvalues --  -10.27370 -10.26063 -10.25987 -10.25548 -10.25343
 Alpha  occ. eigenvalues --  -10.24763  -1.23911  -1.19158  -1.18566  -1.15323
 Alpha  occ. eigenvalues --   -1.14666  -1.12882  -1.12113  -1.10355  -1.06096
 Alpha  occ. eigenvalues --   -1.04236  -1.00998  -0.94247  -0.92355  -0.92020
 Alpha  occ. eigenvalues --   -0.88877  -0.87117  -0.85468  -0.81662  -0.81262
 Alpha  occ. eigenvalues --   -0.80818  -0.77813  -0.76322  -0.74770  -0.73027
 Alpha  occ. eigenvalues --   -0.72694  -0.71956  -0.70911  -0.69951  -0.69625
 Alpha  occ. eigenvalues --   -0.69342  -0.68309  -0.66024  -0.65325  -0.63421
 Alpha  occ. eigenvalues --   -0.62646  -0.62301  -0.61731  -0.61002  -0.60474
 Alpha  occ. eigenvalues --   -0.59679  -0.58847  -0.58649  -0.58495  -0.57872
 Alpha  occ. eigenvalues --   -0.57374  -0.57126  -0.55920  -0.55752  -0.54789
 Alpha  occ. eigenvalues --   -0.54307  -0.53898  -0.53334  -0.53214  -0.52304
 Alpha  occ. eigenvalues --   -0.52147  -0.51333  -0.50821  -0.50093  -0.49789
 Alpha  occ. eigenvalues --   -0.49419  -0.49089  -0.48697  -0.48469  -0.47971
 Alpha  occ. eigenvalues --   -0.47741  -0.47404  -0.46731  -0.46238  -0.45321
 Alpha  occ. eigenvalues --   -0.45227  -0.44535  -0.44297  -0.43878  -0.42723
 Alpha  occ. eigenvalues --   -0.41364  -0.40984  -0.40763  -0.40086  -0.39395
 Alpha  occ. eigenvalues --   -0.39249  -0.38207  -0.37246  -0.36860  -0.35441
 Alpha  occ. eigenvalues --   -0.31701  -0.28338
 Alpha virt. eigenvalues --   -0.12840  -0.12272  -0.09737  -0.09021  -0.08911
 Alpha virt. eigenvalues --   -0.06720  -0.06599  -0.05608  -0.04565  -0.03230
 Alpha virt. eigenvalues --   -0.02870  -0.01642  -0.01237  -0.00464   0.00072

 Mulliken charges:
               1
     1  N   -0.759598
     2  H    0.420395
     3  H    0.431798
     4  H    0.403110
     5  C   -0.117062
     6  H    0.236682
     7  C    0.642368
     8  C   -0.295950
     9  H    0.176760
    10  H    0.205445
    11  O   -0.500349
    12  C   -0.366560
    13  H    0.167902
    14  H    0.216741
    15  C    0.582343
    16  O   -0.646016
    17  O   -0.472896
    18  N   -0.600067
    19  H    0.348061
    20  C   -0.080592
    21  H    0.168412
    22  C    0.656996
    23  C   -0.353760
    24  H    0.205185
    25  H    0.159870
    26  O   -0.502970
    27  C    0.133400
    28  C   -0.189488
    29  H    0.160217
    30  C   -0.192267
    31  H    0.125110
    32  C   -0.160492
    33  H    0.152717
    34  C   -0.191377
    35  H    0.130244
    36  O   -0.632893
    37  H    0.413447
    38  C    0.354398
    39  N   -0.623020
    40  H    0.333444
    41  C    0.002113
    42  H    0.209438
    43  C    0.637457
    44  C   -0.327959
    45  H    0.183293
    46  H    0.172033
    47  O   -0.529508
    48  C   -0.274159
    49  H    0.150734
    50  H    0.128002
    51  C   -0.270538
    52  H    0.164409
    53  H    0.142568
    54  C   -0.148852
    55  H    0.182257
    56  H    0.164393
    57  N   -0.787329
    58  H    0.356521
    59  H    0.479589
    60  H    0.330526
    61  O   -0.531501
    62  H    0.426825
 Sum of Mulliken charges =   1.00000

 Dipole moment (field-independent basis, Debye):
    X=              0.6506    Y=              2.3615    Z=             12.9864  Tot=             13.2154
 Quadrupole moment (field-independent basis, Debye-Ang):
   XX=           -155.9756   YY=           -128.6026   ZZ=           -121.1552
   XY=              2.0478   XZ=             14.5839   YZ=            -18.0068

 Normal termination of Gaussian 16 at Wed Jun  1 23:38:05 2022.
