 Gaussian 16, Revision C.01,
 Gaussian 16:  ES64L-G16RevC.01  3-Jul-2019

 ----------------------------------------------------------------------
 # B3LYP/6-31G* empiricaldispersion=gd3 guess=read geom=check nosymm in
 tegral(ultrafinegrid)
 ----------------------------------------------------------------------

 ------------------------------------------------------
 Candidate Structure: Conf:883 Charge calc in gas phase
 ------------------------------------------------------
 Structure from the checkpoint file:  "conf-883.chk"
 Charge =  1 Multiplicity = 1

                          Input orientation:
 ---------------------------------------------------------------------
 Center     Atomic      Atomic             Coordinates (Angstroms)
 Number     Number       Type             X           Y           Z
 ---------------------------------------------------------------------
      1          7           0       -0.174686   -3.250282    3.145465
      2          1           0        0.702700   -2.909240    3.536229
      3          1           0       -1.389635   -3.694107    4.565385
      4          1           0        0.090000   -3.824508    2.344876
      5          6           0       -0.989888   -2.123768    2.689693
      6          1           0       -1.253306   -1.535696    3.577887
      7          6           0       -0.246944   -1.219173    1.700973
      8          6           0       -2.296527   -2.633102    2.031569
      9          1           0       -2.064346   -3.028287    1.033884
     10          1           0       -2.974029   -1.783066    1.887633
     11          8           0        0.752069   -1.581464    1.092598
     12          6           0       -3.023408   -3.725208    2.844685
     13          1           0       -2.448928   -4.656521    2.811306
     14          1           0       -4.001523   -3.911260    2.395953
     15          6           0       -3.251602   -3.303662    4.297650
     16          8           0       -2.173843   -3.420392    5.103809
     17          8           0       -4.298480   -2.856544    4.699844
     18          7           0       -0.763298    0.048306    1.540428
     19          1           0       -1.671184    0.250184    1.940835
     20          6           0       -0.318069    0.885969    0.428620
     21          1           0       -0.728961    1.884603    0.620620
     22          6           0        1.215081    1.050790    0.462427
     23          6           0       -0.811413    0.391918   -0.948648
     24          1           0       -0.317874   -0.558862   -1.164147
     25          1           0       -1.884885    0.188253   -0.846609
     26          8           0        1.887904    0.995426   -0.577985
     27          6           0       -0.584112    1.375969   -2.079980
     28          6           0        0.142323    1.009272   -3.221139
     29          1           0        0.558571    0.008043   -3.286560
     30          6           0       -1.106589    2.675858   -2.033556
     31          1           0       -1.700930    2.992476   -1.179244
     32          6           0        0.351370    1.902034   -4.274948
     33          1           0        0.878637    1.599262   -5.174874
     34          6           0       -0.901019    3.589165   -3.069983
     35          1           0       -1.328607    4.587734   -3.010463
     36          8           0        0.074513    4.031542   -5.255328
     37          1           0       -0.452556    4.842791   -5.176488
     38          6           0       -0.175186    3.203020   -4.205163
     39          7           0        1.728363    1.380490    1.659322
     40          1           0        1.132100    1.259251    2.469801
     41          6           0        3.155477    1.607155    1.915119
     42          1           0        3.679075    0.640847    1.859816
     43          6           0        3.336192    2.102667    3.354907
     44          6           0        3.826626    2.577375    0.922956
     45          1           0        4.829315    2.783443    1.308191
     46          1           0        3.950776    2.044843   -0.020188
     47          8           0        4.210314    2.853035    3.710345
     48          6           0        3.067893    3.903660    0.734951
     49          1           0        3.282698    4.544164    1.596073
     50          1           0        1.984176    3.728178    0.754754
     51          6           0        3.424672    4.659251   -0.562573
     52          1           0        3.314471    5.737759   -0.401240
     53          1           0        4.480727    4.505778   -0.824685
     54          6           0        2.535905    4.339793   -1.766342
     55          1           0        1.475688    4.452407   -1.524833
     56          1           0        2.764853    4.990171   -2.614615
     57          7           0        2.679948    2.921515   -2.261782
     58          1           0        2.053468    2.741730   -3.064972
     59          1           0        2.400944    2.205187   -1.537186
     60          1           0        3.640999    2.720220   -2.552714
     61          8           0        2.417519    1.564438    4.191519
     62          1           0        2.606459    1.897713    5.090222
 ---------------------------------------------------------------------

 SCF Done:  E(RB3LYP) =  -1526.30014796     A.U. after    3 cycles

 Alpha  occ. eigenvalues --  -19.31895 -19.29451 -19.25931 -19.25617 -19.23770
 Alpha  occ. eigenvalues --  -19.23400 -19.18305 -14.57282 -14.49325 -14.48676
 Alpha  occ. eigenvalues --  -14.43401 -10.44223 -10.42795 -10.40227 -10.38358
 Alpha  occ. eigenvalues --  -10.37347 -10.36988 -10.36740 -10.36689 -10.33416
 Alpha  occ. eigenvalues --  -10.32811 -10.31532 -10.31352 -10.31262 -10.31096
 Alpha  occ. eigenvalues --  -10.31085 -10.30916 -10.30808 -10.30717 -10.29798
 Alpha  occ. eigenvalues --  -10.27432  -1.22640  -1.17668  -1.17544  -1.15618
 Alpha  occ. eigenvalues --   -1.14370  -1.13775  -1.12410  -1.06397  -1.06357
 Alpha  occ. eigenvalues --   -1.04482  -1.00307  -0.97560  -0.93735  -0.91391
 Alpha  occ. eigenvalues --   -0.89901  -0.87965  -0.86958  -0.85602  -0.84155
 Alpha  occ. eigenvalues --   -0.80325  -0.78933  -0.77397  -0.74257  -0.74148
 Alpha  occ. eigenvalues --   -0.73447  -0.71697  -0.71345  -0.70678  -0.70290
 Alpha  occ. eigenvalues --   -0.69601  -0.69082  -0.66343  -0.65791  -0.65309
 Alpha  occ. eigenvalues --   -0.64548  -0.63443  -0.61873  -0.61487  -0.61078
 Alpha  occ. eigenvalues --   -0.60513  -0.59606  -0.58809  -0.58535  -0.57905
 Alpha  occ. eigenvalues --   -0.57381  -0.56559  -0.56235  -0.55631  -0.55044
 Alpha  occ. eigenvalues --   -0.54500  -0.54143  -0.53935  -0.53435  -0.53108
 Alpha  occ. eigenvalues --   -0.53050  -0.52519  -0.52195  -0.52075  -0.50685
 Alpha  occ. eigenvalues --   -0.50421  -0.50170  -0.49793  -0.49516  -0.48737
 Alpha  occ. eigenvalues --   -0.48328  -0.47356  -0.46776  -0.46539  -0.46442
 Alpha  occ. eigenvalues --   -0.45805  -0.45672  -0.44796  -0.44520  -0.43944
 Alpha  occ. eigenvalues --   -0.43852  -0.41905  -0.40132  -0.40074  -0.38776
 Alpha  occ. eigenvalues --   -0.38264  -0.37720  -0.37520  -0.36056  -0.35749
 Alpha  occ. eigenvalues --   -0.33700  -0.31918
 Alpha virt. eigenvalues --   -0.13164  -0.12362  -0.11409  -0.10786  -0.09643
 Alpha virt. eigenvalues --   -0.08544  -0.05490  -0.04563  -0.04077  -0.03624
 Alpha virt. eigenvalues --   -0.03200  -0.02295  -0.01989  -0.01486  -0.00918

 Mulliken charges:
               1
     1  N   -0.737021
     2  H    0.331224
     3  H    0.443109
     4  H    0.333830
     5  C   -0.099732
     6  H    0.182167
     7  C    0.597976
     8  C   -0.287551
     9  H    0.163750
    10  H    0.155797
    11  O   -0.505442
    12  C   -0.360216
    13  H    0.170586
    14  H    0.189198
    15  C    0.576791
    16  O   -0.589256
    17  O   -0.442525
    18  N   -0.625236
    19  H    0.349164
    20  C   -0.067211
    21  H    0.172439
    22  C    0.675205
    23  C   -0.348439
    24  H    0.196692
    25  H    0.168503
    26  O   -0.584869
    27  C    0.176267
    28  C   -0.185248
    29  H    0.164400
    30  C   -0.200710
    31  H    0.145823
    32  C   -0.243280
    33  H    0.175134
    34  C   -0.207540
    35  H    0.150851
    36  O   -0.627591
    37  H    0.424075
    38  C    0.351801
    39  N   -0.612944
    40  H    0.373269
    41  C   -0.025665
    42  H    0.217832
    43  C    0.589437
    44  C   -0.289811
    45  H    0.196952
    46  H    0.140270
    47  O   -0.432069
    48  C   -0.289844
    49  H    0.190599
    50  H    0.140201
    51  C   -0.287815
    52  H    0.191369
    53  H    0.167746
    54  C   -0.197925
    55  H    0.203034
    56  H    0.205845
    57  N   -0.793246
    58  H    0.408766
    59  H    0.470204
    60  H    0.394084
    61  O   -0.581685
    62  H    0.438484
 Sum of Mulliken charges =   1.00000

 Dipole moment (field-independent basis, Debye):
    X=              8.7505    Y=             13.3752    Z=             -6.1910  Tot=             17.1405
 Quadrupole moment (field-independent basis, Debye-Ang):
   XX=           -166.7335   YY=           -114.4332   ZZ=           -164.4617
   XY=             13.3272   XZ=             12.1771   YZ=            -18.9410

 Normal termination of Gaussian 16 at Wed Jun  1 23:38:10 2022.
