 Gaussian 16, Revision C.01,
 Gaussian 16:  ES64L-G16RevC.01  3-Jul-2019

 ----------------------------------------------------------------------
 # B3LYP/6-31G* empiricaldispersion=gd3 guess=read geom=check nosymm in
 tegral(ultrafinegrid)
 ----------------------------------------------------------------------

 ------------------------------------------------------
 Candidate Structure: Conf:217 Charge calc in gas phase
 ------------------------------------------------------
 Structure from the checkpoint file:  "conf-217.chk"
 Charge =  1 Multiplicity = 1

                          Input orientation:
 ---------------------------------------------------------------------
 Center     Atomic      Atomic             Coordinates (Angstroms)
 Number     Number       Type             X           Y           Z
 ---------------------------------------------------------------------
      1          7           0        0.023446   -1.852899    2.906966
      2          1           0        0.702516   -1.126963    2.653952
      3          1           0        0.102077   -2.067087    3.899653
      4          1           0        0.257524   -2.688141    2.366713
      5          6           0       -1.359338   -1.455095    2.545741
      6          1           0       -1.634239   -0.557949    3.113807
      7          6           0       -1.298757   -1.147924    1.058229
      8          6           0       -2.340505   -2.574792    2.865889
      9          1           0       -2.189554   -2.855519    3.913515
     10          1           0       -2.099241   -3.447665    2.255406
     11          8           0       -1.122785   -2.045501    0.244612
     12          6           0       -3.815684   -2.219062    2.682553
     13          1           0       -4.062382   -2.056827    1.631567
     14          1           0       -4.082504   -1.342549    3.272730
     15          6           0       -4.574822   -3.463119    3.217888
     16          8           0       -4.853971   -3.435887    4.428403
     17          8           0       -4.787993   -4.353774    2.380277
     18          7           0       -1.350938    0.177223    0.724680
     19          1           0       -1.333034    0.808882    1.507479
     20          6           0       -0.568544    0.689769   -0.401832
     21          1           0       -0.841145    1.745468   -0.480427
     22          6           0        0.933632    0.618551   -0.060911
     23          6           0       -0.907141    0.008878   -1.733784
     24          1           0       -0.479072   -0.988776   -1.760982
     25          1           0       -1.991293   -0.103471   -1.754258
     26          8           0        1.370134   -0.052364    0.875173
     27          6           0       -0.447196    0.800236   -2.931434
     28          6           0        0.580328    0.341604   -3.754296
     29          1           0        1.068288   -0.600580   -3.522761
     30          6           0       -1.034409    2.025727   -3.237366
     31          1           0       -1.834914    2.390400   -2.601138
     32          6           0        1.028408    1.091203   -4.834601
     33          1           0        1.839677    0.741114   -5.458831
     34          6           0       -0.607149    2.781707   -4.322933
     35          1           0       -1.078344    3.734155   -4.537149
     36          8           0        0.903742    3.005396   -6.204839
     37          1           0        0.406987    3.823238   -6.291522
     38          6           0        0.430993    2.312280   -5.125326
     39          7           0        1.730891    1.355250   -0.867200
     40          1           0        1.313548    1.913658   -1.598453
     41          6           0        3.178685    1.331416   -0.761507
     42          1           0        3.457352    0.404771   -0.258787
     43          6           0        3.624117    2.503478    0.094357
     44          6           0        3.818234    1.404705   -2.142705
     45          1           0        3.361367    0.618531   -2.755536
     46          1           0        3.564135    2.364371   -2.599335
     47          8           0        3.885357    3.604181   -0.327024
     48          6           0        5.326491    1.219624   -2.117039
     49          1           0        5.552223    0.298058   -1.574982
     50          1           0        5.786595    2.037300   -1.555212
     51          6           0        5.912238    1.164687   -3.517871
     52          1           0        5.462952    0.335162   -4.073064
     53          1           0        5.647395    2.083619   -4.050555
     54          6           0        7.422275    1.023854   -3.543511
     55          1           0        7.794981    1.156279   -4.560804
     56          1           0        7.863029    1.818922   -2.935930
     57          7           0        7.882505   -0.288838   -3.020963
     58          1           0        8.899297   -0.372035   -3.032659
     59          1           0        7.499323   -1.058693   -3.569010
     60          1           0        7.579400   -0.426136   -2.057755
     61          8           0        3.668170    2.184251    1.402041
     62          1           0        3.919706    2.991080    1.869417
 ---------------------------------------------------------------------

 SCF Done:  E(RB3LYP) =  -1526.13323505     A.U. after    3 cycles

 Alpha  occ. eigenvalues --  -19.31657 -19.27157 -19.26325 -19.25173 -19.22673
 Alpha  occ. eigenvalues --  -19.03702 -19.03659 -14.66176 -14.58319 -14.49465
 Alpha  occ. eigenvalues --  -14.47109 -10.44154 -10.43204 -10.41741 -10.39868
 Alpha  occ. eigenvalues --  -10.36850 -10.36536 -10.35414 -10.35343 -10.34754
 Alpha  occ. eigenvalues --  -10.34738 -10.32896 -10.29138 -10.29070 -10.28908
 Alpha  occ. eigenvalues --  -10.28872 -10.28809 -10.28498 -10.25116 -10.22377
 Alpha  occ. eigenvalues --  -10.18845  -1.23110  -1.21360  -1.17067  -1.15464
 Alpha  occ. eigenvalues --   -1.15403  -1.14070  -1.12763  -1.06364  -1.04068
 Alpha  occ. eigenvalues --   -0.98579  -0.97766  -0.95978  -0.93499  -0.90504
 Alpha  occ. eigenvalues --   -0.88883  -0.88185  -0.87258  -0.85011  -0.83494
 Alpha  occ. eigenvalues --   -0.81538  -0.79687  -0.78480  -0.78326  -0.77040
 Alpha  occ. eigenvalues --   -0.75861  -0.72889  -0.72546  -0.72365  -0.71883
 Alpha  occ. eigenvalues --   -0.71335  -0.69666  -0.69542  -0.68013  -0.65586
 Alpha  occ. eigenvalues --   -0.64725  -0.64659  -0.64350  -0.63708  -0.62470
 Alpha  occ. eigenvalues --   -0.61508  -0.60467  -0.60009  -0.59475  -0.58909
 Alpha  occ. eigenvalues --   -0.58357  -0.57191  -0.56164  -0.55554  -0.55139
 Alpha  occ. eigenvalues --   -0.54424  -0.53915  -0.53615  -0.53003  -0.52338
 Alpha  occ. eigenvalues --   -0.51896  -0.51510  -0.51336  -0.50698  -0.50566
 Alpha  occ. eigenvalues --   -0.49433  -0.49219  -0.48764  -0.48191  -0.47844
 Alpha  occ. eigenvalues --   -0.46767  -0.46403  -0.45298  -0.44218  -0.44083
 Alpha  occ. eigenvalues --   -0.43625  -0.42816  -0.41535  -0.41181  -0.39458
 Alpha  occ. eigenvalues --   -0.39033  -0.38181  -0.37441  -0.37297  -0.35648
 Alpha  occ. eigenvalues --   -0.35318  -0.33753  -0.32630  -0.31803  -0.19465
 Alpha  occ. eigenvalues --   -0.18635  -0.17482
 Alpha virt. eigenvalues --   -0.16747  -0.12612  -0.10883  -0.10606  -0.10516
 Alpha virt. eigenvalues --   -0.10062  -0.09967  -0.08582  -0.07346  -0.06947
 Alpha virt. eigenvalues --   -0.04909  -0.03915  -0.03583  -0.03392  -0.02745

 Mulliken charges:
               1
     1  N   -0.724261
     2  H    0.424382
     3  H    0.416551
     4  H    0.419861
     5  C   -0.158719
     6  H    0.188099
     7  C    0.639995
     8  C   -0.276594
     9  H    0.155481
    10  H    0.186111
    11  O   -0.490743
    12  C   -0.333002
    13  H    0.136893
    14  H    0.118878
    15  C    0.538318
    16  O   -0.575645
    17  O   -0.571260
    18  N   -0.565273
    19  H    0.333552
    20  C   -0.101269
    21  H    0.175573
    22  C    0.631386
    23  C   -0.348498
    24  H    0.198093
    25  H    0.205362
    26  O   -0.555237
    27  C    0.125537
    28  C   -0.190707
    29  H    0.129025
    30  C   -0.197135
    31  H    0.150437
    32  C   -0.163776
    33  H    0.136801
    34  C   -0.191025
    35  H    0.147890
    36  O   -0.636181
    37  H    0.419600
    38  C    0.352802
    39  N   -0.606616
    40  H    0.363869
    41  C   -0.020948
    42  H    0.188257
    43  C    0.580320
    44  C   -0.286750
    45  H    0.164646
    46  H    0.186829
    47  O   -0.451222
    48  C   -0.295647
    49  H    0.116808
    50  H    0.182591
    51  C   -0.291484
    52  H    0.168006
    53  H    0.214339
    54  C   -0.226021
    55  H    0.234261
    56  H    0.229298
    57  N   -0.682165
    58  H    0.408181
    59  H    0.399514
    60  H    0.398211
    61  O   -0.549951
    62  H    0.424372
 Sum of Mulliken charges =   1.00000

 Dipole moment (field-independent basis, Debye):
    X=             47.6118    Y=             13.4812    Z=            -16.9523  Tot=             52.3068
 Quadrupole moment (field-independent basis, Debye-Ang):
   XX=             -4.0114   YY=           -210.6528   ZZ=           -135.5833
   XY=            -79.5039   XZ=            -37.5684   YZ=             17.8696

 Normal termination of Gaussian 16 at Wed Jun  1 23:38:12 2022.
