 Gaussian 16, Revision C.01,
 Gaussian 16:  ES64L-G16RevC.01  3-Jul-2019

 ----------------------------------------------------------------------
 # B3LYP/6-31G* empiricaldispersion=gd3 guess=read geom=check nosymm in
 tegral(ultrafinegrid)
 ----------------------------------------------------------------------

 ------------------------------------------------------
 Candidate Structure: Conf:472 Charge calc in gas phase
 ------------------------------------------------------
 Structure from the checkpoint file:  "conf-472.chk"
 Charge =  1 Multiplicity = 1

                          Input orientation:
 ---------------------------------------------------------------------
 Center     Atomic      Atomic             Coordinates (Angstroms)
 Number     Number       Type             X           Y           Z
 ---------------------------------------------------------------------
      1          7           0       -3.215934   -2.371754    0.826380
      2          1           0       -3.318297   -2.509004   -0.178963
      3          1           0       -3.896147   -2.959744    1.303940
      4          1           0       -3.022780   -0.604651    1.024612
      5          6           0       -1.839541   -2.741352    1.211965
      6          1           0       -1.642369   -3.815449    1.061509
      7          6           0       -0.924446   -2.024800    0.189869
      8          6           0       -1.614370   -2.430449    2.707075
      9          1           0       -0.547763   -2.500291    2.949644
     10          1           0       -2.089127   -3.225389    3.293815
     11          8           0       -1.317815   -1.862780   -0.962346
     12          6           0       -2.187743   -1.080510    3.207719
     13          1           0       -1.813795   -0.882565    4.214107
     14          1           0       -3.279246   -1.146093    3.255435
     15          6           0       -1.801935    0.100647    2.328232
     16          8           0       -0.913776    0.882777    2.630573
     17          8           0       -2.458057    0.216742    1.175844
     18          7           0        0.311536   -1.617028    0.587368
     19          1           0        0.594453   -1.686727    1.554030
     20          6           0        1.110332   -0.792296   -0.318958
     21          1           0        0.409815   -0.080049   -0.774726
     22          6           0        2.146702    0.023356    0.475532
     23          6           0        1.775056   -1.590747   -1.459332
     24          1           0        2.587167   -2.197966   -1.052290
     25          1           0        1.013820   -2.255055   -1.876572
     26          8           0        3.353601   -0.057345    0.249155
     27          6           0        2.287827   -0.645784   -2.524337
     28          6           0        3.655885   -0.382767   -2.672047
     29          1           0        4.367620   -0.911984   -2.048925
     30          6           0        1.384331    0.055216   -3.334579
     31          1           0        0.320423   -0.151376   -3.245785
     32          6           0        4.111313    0.568833   -3.584027
     33          1           0        5.173938    0.744805   -3.731911
     34          6           0        1.818827    1.036148   -4.231191
     35          1           0        1.101569    1.591363   -4.831923
     36          8           0        3.694783    2.339979   -5.107964
     37          1           0        3.065691    2.579961   -5.808249
     38          6           0        3.184449    1.290161   -4.341441
     39          7           0        1.614973    0.870417    1.389014
     40          1           0        0.608496    0.910019    1.563392
     41          6           0        2.453197    1.800349    2.127973
     42          1           0        3.462807    1.372044    2.123628
     43          6           0        2.011069    1.889852    3.587359
     44          6           0        2.484604    3.193229    1.473239
     45          1           0        1.497063    3.659533    1.573430
     46          1           0        3.184270    3.824163    2.032380
     47          8           0        1.896085    2.924338    4.201583
     48          6           0        2.878810    3.115614   -0.007439
     49          1           0        2.129993    2.516810   -0.542577
     50          1           0        3.824774    2.563098   -0.090838
     51          6           0        2.979522    4.490826   -0.680870
     52          1           0        2.093142    5.090756   -0.440381
     53          1           0        3.841383    5.055974   -0.300460
     54          6           0        3.037769    4.402699   -2.203477
     55          1           0        2.167438    3.877877   -2.607253
     56          1           0        3.116812    5.381932   -2.681854
     57          7           0        4.235312    3.597654   -2.672625
     58          1           0        4.207454    3.445478   -3.704011
     59          1           0        4.217535    2.648955   -2.269313
     60          1           0        5.120582    4.041483   -2.408948
     61          8           0        1.804941    0.667665    4.121161
     62          1           0        1.512876    0.815616    5.040605
 ---------------------------------------------------------------------

 SCF Done:  E(RB3LYP) =  -1526.30828209     A.U. after    3 cycles

 Alpha  occ. eigenvalues --  -19.31678 -19.27440 -19.25720 -19.21922 -19.21593
 Alpha  occ. eigenvalues --  -19.21272 -19.20999 -14.59657 -14.46270 -14.44697
 Alpha  occ. eigenvalues --  -14.43348 -10.40092 -10.40056 -10.39142 -10.38547
 Alpha  occ. eigenvalues --  -10.38114 -10.36722 -10.33236 -10.33002 -10.32628
 Alpha  occ. eigenvalues --  -10.32551 -10.30488 -10.30304 -10.30153 -10.30070
 Alpha  occ. eigenvalues --  -10.29842 -10.29696 -10.29641 -10.28892 -10.28590
 Alpha  occ. eigenvalues --  -10.27790  -1.18734  -1.18438  -1.17358  -1.14282
 Alpha  occ. eigenvalues --   -1.13585  -1.12788  -1.09559  -1.09055  -1.02756
 Alpha  occ. eigenvalues --   -1.01331  -0.99813  -0.96478  -0.93399  -0.89469
 Alpha  occ. eigenvalues --   -0.88198  -0.87927  -0.85907  -0.84301  -0.82409
 Alpha  occ. eigenvalues --   -0.80018  -0.77192  -0.75731  -0.74029  -0.73185
 Alpha  occ. eigenvalues --   -0.72696  -0.71643  -0.70806  -0.70449  -0.68474
 Alpha  occ. eigenvalues --   -0.68151  -0.67561  -0.67321  -0.65783  -0.63720
 Alpha  occ. eigenvalues --   -0.63299  -0.60910  -0.60553  -0.59971  -0.59745
 Alpha  occ. eigenvalues --   -0.59400  -0.58736  -0.57327  -0.56814  -0.56725
 Alpha  occ. eigenvalues --   -0.55699  -0.55521  -0.54721  -0.54649  -0.54564
 Alpha  occ. eigenvalues --   -0.53638  -0.53380  -0.53067  -0.52691  -0.51852
 Alpha  occ. eigenvalues --   -0.51340  -0.51266  -0.51120  -0.50686  -0.50367
 Alpha  occ. eigenvalues --   -0.49591  -0.48744  -0.47983  -0.47805  -0.47524
 Alpha  occ. eigenvalues --   -0.46768  -0.46249  -0.46035  -0.45606  -0.45378
 Alpha  occ. eigenvalues --   -0.44799  -0.44733  -0.44144  -0.43877  -0.43583
 Alpha  occ. eigenvalues --   -0.43360  -0.39645  -0.38983  -0.36830  -0.36687
 Alpha  occ. eigenvalues --   -0.36257  -0.35803  -0.35499  -0.35201  -0.34423
 Alpha  occ. eigenvalues --   -0.33794  -0.33205
 Alpha virt. eigenvalues --   -0.12076  -0.10839  -0.09838  -0.08154  -0.07924
 Alpha virt. eigenvalues --   -0.07153  -0.07004  -0.05867  -0.04037  -0.03136
 Alpha virt. eigenvalues --   -0.02728  -0.01225  -0.00783  -0.00016   0.00186

 Mulliken charges:
               1
     1  N   -0.771230
     2  H    0.357445
     3  H    0.331926
     4  H    0.457746
     5  C   -0.085482
     6  H    0.182791
     7  C    0.637656
     8  C   -0.308849
     9  H    0.160203
    10  H    0.176332
    11  O   -0.530363
    12  C   -0.350889
    13  H    0.185551
    14  H    0.177882
    15  C    0.589816
    16  O   -0.497287
    17  O   -0.577308
    18  N   -0.636561
    19  H    0.351106
    20  C   -0.026649
    21  H    0.185395
    22  C    0.582565
    23  C   -0.341449
    24  H    0.170026
    25  H    0.189379
    26  O   -0.537884
    27  C    0.148908
    28  C   -0.143316
    29  H    0.174427
    30  C   -0.192905
    31  H    0.179196
    32  C   -0.239487
    33  H    0.158264
    34  C   -0.188634
    35  H    0.148315
    36  O   -0.680046
    37  H    0.434813
    38  C    0.310392
    39  N   -0.624578
    40  H    0.397299
    41  C   -0.066599
    42  H    0.206042
    43  C    0.605487
    44  C   -0.257720
    45  H    0.170672
    46  H    0.170728
    47  O   -0.452635
    48  C   -0.300263
    49  H    0.155526
    50  H    0.151638
    51  C   -0.284463
    52  H    0.195659
    53  H    0.167845
    54  C   -0.203515
    55  H    0.214709
    56  H    0.211826
    57  N   -0.766037
    58  H    0.441601
    59  H    0.423290
    60  H    0.406909
    61  O   -0.566985
    62  H    0.421771
 Sum of Mulliken charges =   1.00000

 Dipole moment (field-independent basis, Debye):
    X=              9.9315    Y=              7.4304    Z=             -7.3342  Tot=             14.4095
 Quadrupole moment (field-independent basis, Debye-Ang):
   XX=           -111.2473   YY=           -113.0212   ZZ=           -124.7813
   XY=             66.7694   XZ=            -46.4456   YZ=            -59.7264

 Normal termination of Gaussian 16 at Wed Jun  1 23:38:10 2022.
