 Gaussian 16, Revision C.01,
 Gaussian 16:  ES64L-G16RevC.01  3-Jul-2019

 ----------------------------------------------------------------------
 # B3LYP/6-31G* empiricaldispersion=gd3 guess=read geom=check nosymm in
 tegral(ultrafinegrid)
 ----------------------------------------------------------------------

 ------------------------------------------------------
 Candidate Structure: Conf:205 Charge calc in gas phase
 ------------------------------------------------------
 Structure from the checkpoint file:  "conf-205.chk"
 Charge =  1 Multiplicity = 1

                          Input orientation:
 ---------------------------------------------------------------------
 Center     Atomic      Atomic             Coordinates (Angstroms)
 Number     Number       Type             X           Y           Z
 ---------------------------------------------------------------------
      1          7           0       -0.764698   -3.875773    2.678111
      2          1           0        0.031782   -3.942669    3.307079
      3          1           0       -1.464140   -4.541944    2.994587
      4          1           0       -0.239418   -3.578736    0.983342
      5          6           0       -1.301046   -2.501740    2.624021
      6          1           0       -1.000196   -1.906919    3.492338
      7          6           0       -0.696023   -1.840247    1.371171
      8          6           0       -2.845209   -2.548129    2.559561
      9          1           0       -3.191625   -3.034128    3.480541
     10          1           0       -3.138124   -3.192302    1.719832
     11          8           0       -0.172386   -2.701034    0.501626
     12          6           0       -3.564773   -1.191934    2.424525
     13          1           0       -4.641952   -1.368544    2.466633
     14          1           0       -3.327343   -0.735438    1.458963
     15          6           0       -3.223120   -0.233205    3.570227
     16          8           0       -2.063300    0.439306    3.448545
     17          8           0       -3.927263   -0.112618    4.546031
     18          7           0       -0.765296   -0.567309    1.248988
     19          1           0       -1.590144    0.185488    2.603142
     20          6           0       -0.223109    0.189900    0.129444
     21          1           0       -0.675851    1.185874    0.211233
     22          6           0        1.301647    0.353518    0.270583
     23          6           0       -0.543889   -0.342254   -1.295687
     24          1           0       -0.259473   -1.392459   -1.349183
     25          1           0       -1.630087   -0.281870   -1.435909
     26          8           0        2.093552   -0.567980    0.118016
     27          6           0        0.194034    0.437951   -2.363060
     28          6           0       -0.057937    1.798573   -2.596121
     29          1           0       -0.858551    2.296742   -2.053775
     30          6           0        1.212054   -0.175244   -3.103714
     31          1           0        1.434157   -1.224417   -2.932625
     32          6           0        0.691070    2.531991   -3.515912
     33          1           0        0.489647    3.582441   -3.700821
     34          6           0        1.965806    0.541352   -4.033553
     35          1           0        2.754290    0.046108   -4.597930
     36          8           0        2.478389    2.675552   -5.079539
     37          1           0        2.850950    2.103597   -5.769140
     38          6           0        1.712209    1.900681   -4.229675
     39          7           0        1.709971    1.634022    0.527316
     40          1           0        1.028517    2.377632    0.577184
     41          6           0        3.103210    2.002706    0.373673
     42          1           0        3.710425    1.202122    0.808603
     43          6           0        3.466871    3.279809    1.113359
     44          6           0        3.449384    2.115867   -1.133831
     45          1           0        3.209402    1.140971   -1.567210
     46          1           0        2.773797    2.839311   -1.602989
     47          8           0        4.611522    3.659110    1.253052
     48          6           0        4.901035    2.483491   -1.449086
     49          1           0        5.559504    1.855695   -0.828724
     50          1           0        5.092103    3.521727   -1.148764
     51          6           0        5.225980    2.296787   -2.940948
     52          1           0        5.276360    1.228853   -3.192844
     53          1           0        4.428195    2.716048   -3.567985
     54          6           0        6.514338    2.996777   -3.354021
     55          1           0        6.829801    2.765460   -4.373956
     56          1           0        6.447102    4.081203   -3.234988
     57          7           0        7.671242    2.563495   -2.443123
     58          1           0        8.556709    3.018783   -2.692850
     59          1           0        7.814000    1.547140   -2.487240
     60          1           0        7.457162    2.795868   -1.464416
     61          8           0        2.395941    3.972233    1.545812
     62          1           0        2.723027    4.771690    2.001583
 ---------------------------------------------------------------------

 SCF Done:  E(RB3LYP) =  -1526.24327086     A.U. after    1 cycles

 Alpha  occ. eigenvalues --  -19.30205 -19.27264 -19.25227 -19.24220 -19.20763
 Alpha  occ. eigenvalues --  -19.19474 -19.15892 -14.64826 -14.44735 -14.42192
 Alpha  occ. eigenvalues --  -14.39811 -10.42558 -10.42089 -10.36692 -10.36194
 Alpha  occ. eigenvalues --  -10.34678 -10.34141 -10.33823 -10.33641 -10.32199
 Alpha  occ. eigenvalues --  -10.30927 -10.30734 -10.29646 -10.27838 -10.27615
 Alpha  occ. eigenvalues --  -10.27511 -10.27433 -10.27295 -10.27107 -10.26352
 Alpha  occ. eigenvalues --  -10.25100  -1.21011  -1.18780  -1.15131  -1.14820
 Alpha  occ. eigenvalues --   -1.11942  -1.11851  -1.11597  -1.03846  -1.01562
 Alpha  occ. eigenvalues --   -0.98908  -0.98205  -0.95708  -0.93922  -0.89892
 Alpha  occ. eigenvalues --   -0.87125  -0.85347  -0.84593  -0.83376  -0.81135
 Alpha  occ. eigenvalues --   -0.79024  -0.77498  -0.76804  -0.76247  -0.74089
 Alpha  occ. eigenvalues --   -0.73233  -0.70556  -0.70441  -0.69458  -0.67800
 Alpha  occ. eigenvalues --   -0.67043  -0.66548  -0.65167  -0.63442  -0.63118
 Alpha  occ. eigenvalues --   -0.62374  -0.62033  -0.59909  -0.59049  -0.58785
 Alpha  occ. eigenvalues --   -0.58258  -0.58110  -0.57440  -0.57071  -0.56079
 Alpha  occ. eigenvalues --   -0.55322  -0.55113  -0.54205  -0.54150  -0.53039
 Alpha  occ. eigenvalues --   -0.52527  -0.51715  -0.51508  -0.50936  -0.50792
 Alpha  occ. eigenvalues --   -0.50384  -0.49336  -0.49239  -0.48918  -0.48396
 Alpha  occ. eigenvalues --   -0.48251  -0.47524  -0.47408  -0.46518  -0.46355
 Alpha  occ. eigenvalues --   -0.45582  -0.45320  -0.44578  -0.44034  -0.43913
 Alpha  occ. eigenvalues --   -0.43301  -0.42440  -0.41899  -0.41645  -0.41085
 Alpha  occ. eigenvalues --   -0.40296  -0.39191  -0.38183  -0.36193  -0.35612
 Alpha  occ. eigenvalues --   -0.34424  -0.34128  -0.33490  -0.33314  -0.31630
 Alpha  occ. eigenvalues --   -0.30651  -0.29497
 Alpha virt. eigenvalues --   -0.15177  -0.09643  -0.09200  -0.08680  -0.08210
 Alpha virt. eigenvalues --   -0.07943  -0.07254  -0.06077  -0.04415  -0.03539
 Alpha virt. eigenvalues --   -0.02676  -0.02516  -0.02239  -0.01639  -0.00846

 Mulliken charges:
               1
     1  N   -0.790281
     2  H    0.339210
     3  H    0.339594
     4  H    0.444155
     5  C   -0.071415
     6  H    0.190431
     7  C    0.603156
     8  C   -0.291752
     9  H    0.174734
    10  H    0.158125
    11  O   -0.599707
    12  C   -0.362701
    13  H    0.182635
    14  H    0.157872
    15  C    0.570639
    16  O   -0.611524
    17  O   -0.450799
    18  N   -0.548307
    19  H    0.446221
    20  C   -0.053415
    21  H    0.132958
    22  C    0.639365
    23  C   -0.375329
    24  H    0.203302
    25  H    0.163456
    26  O   -0.525848
    27  C    0.154979
    28  C   -0.195877
    29  H    0.142687
    30  C   -0.178866
    31  H    0.156810
    32  C   -0.165623
    33  H    0.153000
    34  C   -0.200331
    35  H    0.118981
    36  O   -0.657539
    37  H    0.411036
    38  C    0.341106
    39  N   -0.607610
    40  H    0.351657
    41  C   -0.047442
    42  H    0.205504
    43  C    0.599263
    44  C   -0.287708
    45  H    0.200692
    46  H    0.167287
    47  O   -0.478402
    48  C   -0.306241
    49  H    0.132426
    50  H    0.166980
    51  C   -0.310061
    52  H    0.169935
    53  H    0.228088
    54  C   -0.209484
    55  H    0.222835
    56  H    0.230384
    57  N   -0.733551
    58  H    0.429995
    59  H    0.425225
    60  H    0.437007
    61  O   -0.561613
    62  H    0.429696
 Sum of Mulliken charges =   1.00000

 Dipole moment (field-independent basis, Debye):
    X=             30.9900    Y=              7.6805    Z=            -13.9350  Tot=             34.8361
 Quadrupole moment (field-independent basis, Debye-Ang):
   XX=             41.9585   YY=           -118.7828   ZZ=           -151.3711
   XY=             88.5291   XZ=            -71.9437   YZ=            -43.8377

 Normal termination of Gaussian 16 at Wed Jun  1 23:37:54 2022.
