 Gaussian 16, Revision C.01,
 Gaussian 16:  ES64L-G16RevC.01  3-Jul-2019

 ----------------------------------------------------------------------
 # B3LYP/6-31G* empiricaldispersion=gd3 guess=read geom=check nosymm in
 tegral(ultrafinegrid)
 ----------------------------------------------------------------------

 ------------------------------------------------------
 Candidate Structure: Conf:746 Charge calc in gas phase
 ------------------------------------------------------
 Structure from the checkpoint file:  "conf-746.chk"
 Charge =  1 Multiplicity = 1

                          Input orientation:
 ---------------------------------------------------------------------
 Center     Atomic      Atomic             Coordinates (Angstroms)
 Number     Number       Type             X           Y           Z
 ---------------------------------------------------------------------
      1          7           0        0.392013   -3.539598    3.099380
      2          1           0        0.552187   -3.803532    4.072554
      3          1           0       -0.133088   -4.286256    2.634821
      4          1           0        1.307598   -3.351376    2.542159
      5          6           0       -0.265272   -2.183205    2.910097
      6          1           0       -0.008584   -1.602026    3.801516
      7          6           0        0.534837   -1.608179    1.703859
      8          6           0       -1.778860   -2.266023    2.731768
      9          1           0       -2.145344   -1.236172    2.761751
     10          1           0       -2.220695   -2.764899    3.602172
     11          8           0        1.653583   -2.171613    1.497637
     12          6           0       -2.231855   -2.961694    1.419751
     13          1           0       -2.829826   -3.851687    1.622573
     14          1           0       -1.361699   -3.280079    0.825930
     15          6           0       -3.086137   -2.074376    0.492986
     16          8           0       -2.591494   -0.855512    0.228719
     17          8           0       -4.126007   -2.465818    0.021745
     18          7           0       -0.041196   -0.616364    1.073010
     19          1           0       -1.688383   -0.718212    0.654691
     20          6           0        0.670423   -0.108392   -0.101065
     21          1           0        0.113256    0.783229   -0.423773
     22          6           0        2.077833    0.402471    0.238546
     23          6           0        0.667979   -1.112931   -1.278943
     24          1           0        1.335461   -1.940895   -1.029952
     25          1           0       -0.353792   -1.507763   -1.327555
     26          8           0        3.040948    0.326897   -0.549844
     27          6           0        1.031677   -0.515812   -2.620508
     28          6           0        0.244260    0.491390   -3.200059
     29          1           0       -0.652017    0.834891   -2.688323
     30          6           0        2.155224   -0.953346   -3.333964
     31          1           0        2.790837   -1.720913   -2.902241
     32          6           0        0.567499    1.052832   -4.439229
     33          1           0       -0.059177    1.812559   -4.895717
     34          6           0        2.485720   -0.419939   -4.581220
     35          1           0        3.354834   -0.791567   -5.120453
     36          8           0        1.945208    1.158369   -6.354373
     37          1           0        2.630371    0.655056   -6.822475
     38          6           0        1.684948    0.582415   -5.147790
     39          7           0        2.176399    1.031792    1.420311
     40          1           0        1.381328    0.956017    2.044727
     41          6           0        3.421024    1.594697    1.935433
     42          1           0        4.228365    0.884999    1.709867
     43          6           0        3.383337    1.688636    3.462258
     44          6           0        3.772966    2.974055    1.313962
     45          1           0        2.823710    3.481007    1.100124
     46          1           0        4.275420    3.570151    2.079326
     47          8           0        4.194700    2.299088    4.112609
     48          6           0        4.673984    2.910824    0.053150
     49          1           0        4.744689    1.880842   -0.305276
     50          1           0        5.691917    3.205942    0.328689
     51          6           0        4.214760    3.833223   -1.090623
     52          1           0        4.045130    4.847018   -0.707204
     53          1           0        5.015888    3.928321   -1.837189
     54          6           0        2.930821    3.411495   -1.806932
     55          1           0        2.100042    3.258015   -1.112744
     56          1           0        2.628028    4.159422   -2.544051
     57          7           0        3.094496    2.105055   -2.542342
     58          1           0        2.296732    1.918470   -3.170951
     59          1           0        3.129460    1.297782   -1.858833
     60          1           0        3.943044    2.093651   -3.114144
     61          8           0        2.357724    0.993641    4.019568
     62          1           0        2.432363    1.127221    4.984257
 ---------------------------------------------------------------------

 SCF Done:  E(RB3LYP) =  -1526.27306626     A.U. after    1 cycles

 Alpha  occ. eigenvalues --  -19.31083 -19.27977 -19.24746 -19.23952 -19.23594
 Alpha  occ. eigenvalues --  -19.22465 -19.18797 -14.56330 -14.55846 -14.47478
 Alpha  occ. eigenvalues --  -14.40680 -10.43204 -10.40565 -10.37874 -10.37757
 Alpha  occ. eigenvalues --  -10.37231 -10.37061 -10.35779 -10.35382 -10.32753
 Alpha  occ. eigenvalues --  -10.31682 -10.31192 -10.29759 -10.29685 -10.29662
 Alpha  occ. eigenvalues --  -10.29537 -10.29515 -10.29483 -10.29436 -10.29346
 Alpha  occ. eigenvalues --  -10.28227  -1.21682  -1.16169  -1.15607  -1.14820
 Alpha  occ. eigenvalues --   -1.14393  -1.12669  -1.11057  -1.09474  -1.06806
 Alpha  occ. eigenvalues --   -1.04412  -0.99356  -0.95919  -0.92397  -0.91388
 Alpha  occ. eigenvalues --   -0.88786  -0.87743  -0.85357  -0.83984  -0.82998
 Alpha  occ. eigenvalues --   -0.81372  -0.77697  -0.75868  -0.74791  -0.72629
 Alpha  occ. eigenvalues --   -0.72216  -0.71319  -0.70972  -0.70040  -0.69313
 Alpha  occ. eigenvalues --   -0.68998  -0.68481  -0.67753  -0.66685  -0.65178
 Alpha  occ. eigenvalues --   -0.64788  -0.63313  -0.61572  -0.61073  -0.59723
 Alpha  occ. eigenvalues --   -0.58974  -0.58760  -0.58123  -0.57998  -0.57718
 Alpha  occ. eigenvalues --   -0.57518  -0.56878  -0.56763  -0.54864  -0.54020
 Alpha  occ. eigenvalues --   -0.53549  -0.53142  -0.52902  -0.52722  -0.52451
 Alpha  occ. eigenvalues --   -0.52278  -0.51387  -0.51004  -0.50801  -0.50358
 Alpha  occ. eigenvalues --   -0.49668  -0.49148  -0.48756  -0.48504  -0.48163
 Alpha  occ. eigenvalues --   -0.47300  -0.46539  -0.46038  -0.45862  -0.45314
 Alpha  occ. eigenvalues --   -0.45119  -0.44889  -0.44628  -0.43707  -0.43229
 Alpha  occ. eigenvalues --   -0.42844  -0.42525  -0.39648  -0.38809  -0.37825
 Alpha  occ. eigenvalues --   -0.37011  -0.36613  -0.36210  -0.35112  -0.33961
 Alpha  occ. eigenvalues --   -0.32439  -0.31950
 Alpha virt. eigenvalues --   -0.11396  -0.10495  -0.10100  -0.09826  -0.08915
 Alpha virt. eigenvalues --   -0.07065  -0.06924  -0.04905  -0.03976  -0.03217
 Alpha virt. eigenvalues --   -0.02919  -0.02393  -0.01148  -0.00708  -0.00305

 Mulliken charges:
               1
     1  N   -0.761558
     2  H    0.399563
     3  H    0.402977
     4  H    0.426391
     5  C   -0.108481
     6  H    0.201511
     7  C    0.603755
     8  C   -0.295952
     9  H    0.207836
    10  H    0.170661
    11  O   -0.615698
    12  C   -0.407136
    13  H    0.192104
    14  H    0.160671
    15  C    0.585521
    16  O   -0.614380
    17  O   -0.436303
    18  N   -0.623640
    19  H    0.461277
    20  C   -0.055701
    21  H    0.159028
    22  C    0.641322
    23  C   -0.358679
    24  H    0.183539
    25  H    0.175697
    26  O   -0.594898
    27  C    0.158587
    28  C   -0.208879
    29  H    0.166346
    30  C   -0.191350
    31  H    0.159117
    32  C   -0.214413
    33  H    0.171904
    34  C   -0.221096
    35  H    0.146726
    36  O   -0.627605
    37  H    0.421571
    38  C    0.338862
    39  N   -0.599145
    40  H    0.369118
    41  C   -0.032176
    42  H    0.218642
    43  C    0.579407
    44  C   -0.291236
    45  H    0.149084
    46  H    0.203880
    47  O   -0.432057
    48  C   -0.291664
    49  H    0.170050
    50  H    0.174453
    51  C   -0.298835
    52  H    0.187614
    53  H    0.159654
    54  C   -0.187429
    55  H    0.198788
    56  H    0.205598
    57  N   -0.792061
    58  H    0.407795
    59  H    0.467876
    60  H    0.390263
    61  O   -0.585923
    62  H    0.429108
 Sum of Mulliken charges =   1.00000

 Dipole moment (field-independent basis, Debye):
    X=             13.8036    Y=              0.2553    Z=              2.1212  Tot=             13.9680
 Quadrupole moment (field-independent basis, Debye-Ang):
   XX=           -169.1287   YY=           -122.6011   ZZ=            -96.9416
   XY=             15.2702   XZ=            -38.7723   YZ=            -47.0093

 Normal termination of Gaussian 16 at Wed Jun  1 23:37:49 2022.
