 Gaussian 16, Revision C.01,
 Gaussian 16:  ES64L-G16RevC.01  3-Jul-2019

 ----------------------------------------------------------------------
 # B3LYP/6-31G* empiricaldispersion=gd3 guess=read geom=check nosymm in
 tegral(ultrafinegrid)
 ----------------------------------------------------------------------

 ------------------------------------------------------
 Candidate Structure: Conf:474 Charge calc in gas phase
 ------------------------------------------------------
 Structure from the checkpoint file:  "conf-474.chk"
 Charge =  1 Multiplicity = 1

                          Input orientation:
 ---------------------------------------------------------------------
 Center     Atomic      Atomic             Coordinates (Angstroms)
 Number     Number       Type             X           Y           Z
 ---------------------------------------------------------------------
      1          7           0       -2.228307   -3.663943    1.556394
      2          1           0       -1.767594   -4.541119    1.305490
      3          1           0       -2.894156   -3.840328    2.311210
      4          1           0       -2.690552   -3.220012    0.655693
      5          6           0       -1.255396   -2.538189    1.836118
      6          1           0       -0.275200   -2.952273    2.074943
      7          6           0       -1.240893   -1.793957    0.465232
      8          6           0       -1.804753   -1.690073    2.997010
      9          1           0       -1.743855   -2.281594    3.919963
     10          1           0       -2.868065   -1.494349    2.800774
     11          8           0       -2.251206   -2.035843   -0.269302
     12          6           0       -1.125928   -0.325079    3.216099
     13          1           0       -1.604731    0.165877    4.065171
     14          1           0       -1.278595    0.307282    2.337429
     15          6           0        0.373155   -0.353083    3.519219
     16          8           0        0.817789   -0.001073    4.596124
     17          8           0        1.181637   -0.741412    2.528276
     18          7           0       -0.201322   -1.031816    0.280108
     19          1           0        0.691691   -0.846145    1.631572
     20          6           0       -0.103613   -0.236392   -0.941946
     21          1           0       -0.954015    0.462215   -1.001410
     22          6           0        1.198499    0.568543   -0.762015
     23          6           0       -0.071077   -1.057477   -2.252375
     24          1           0        0.781068   -1.740666   -2.211542
     25          1           0       -0.990809   -1.645904   -2.299405
     26          8           0        2.269640    0.225883   -1.253384
     27          6           0        0.047675   -0.115157   -3.425556
     28          6           0        1.253874    0.032647   -4.122528
     29          1           0        2.082685   -0.628673   -3.893667
     30          6           0       -1.013286    0.744447   -3.743463
     31          1           0       -1.968896    0.623578   -3.239677
     32          6           0        1.423985    1.052294   -5.058341
     33          1           0        2.357971    1.173248   -5.600287
     34          6           0       -0.852874    1.789956   -4.653020
     35          1           0       -1.668235    2.482813   -4.850144
     36          8           0        0.684923    3.090910   -6.033115
     37          1           0       -0.130741    3.465605   -6.405944
     38          6           0        0.381038    1.949893   -5.278312
     39          7           0        1.080929    1.663328    0.056398
     40          1           0        0.175743    1.795449    0.501519
     41          6           0        2.174399    2.026118    0.965041
     42          1           0        2.870795    1.183992    1.020767
     43          6           0        1.546211    2.167326    2.351731
     44          6           0        2.953653    3.289550    0.553238
     45          1           0        2.230268    4.081763    0.319234
     46          1           0        3.518510    3.634642    1.425456
     47          8           0        0.352454    2.332691    2.526924
     48          6           0        3.930893    3.039827   -0.624589
     49          1           0        3.928795    1.976884   -0.888097
     50          1           0        4.948794    3.282053   -0.303404
     51          6           0        3.652990    3.858486   -1.896585
     52          1           0        3.535706    4.922106   -1.642150
     53          1           0        4.531285    3.782547   -2.554483
     54          6           0        2.430692    3.367917   -2.666861
     55          1           0        2.507446    2.314414   -2.939286
     56          1           0        1.493198    3.506771   -2.124312
     57          7           0        2.316786    4.153783   -3.971800
     58          1           0        1.567646    3.831787   -4.625987
     59          1           0        3.194569    4.080606   -4.498192
     60          1           0        2.171329    5.150887   -3.781761
     61          8           0        2.449679    2.046275    3.321591
     62          1           0        1.975881    1.833018    4.154795
 ---------------------------------------------------------------------

 SCF Done:  E(RB3LYP) =  -1526.26918597     A.U. after    1 cycles

 Alpha  occ. eigenvalues --  -19.31145 -19.26791 -19.23039 -19.22241 -19.20893
 Alpha  occ. eigenvalues --  -19.20869 -19.18847 -14.59640 -14.54435 -14.44213
 Alpha  occ. eigenvalues --  -14.39406 -10.40222 -10.37672 -10.37420 -10.37286
 Alpha  occ. eigenvalues --  -10.36090 -10.35799 -10.35182 -10.32117 -10.31929
 Alpha  occ. eigenvalues --  -10.30932 -10.30486 -10.29783 -10.29387 -10.29117
 Alpha  occ. eigenvalues --  -10.28876 -10.28782 -10.28637 -10.28473 -10.27526
 Alpha  occ. eigenvalues --  -10.26555  -1.18426  -1.18142  -1.14448  -1.13891
 Alpha  occ. eigenvalues --   -1.12828  -1.12398  -1.09719  -1.07535  -1.06267
 Alpha  occ. eigenvalues --   -1.01095  -0.97802  -0.95706  -0.92379  -0.89963
 Alpha  occ. eigenvalues --   -0.87645  -0.87111  -0.85215  -0.82920  -0.81586
 Alpha  occ. eigenvalues --   -0.80117  -0.76488  -0.75149  -0.73599  -0.73160
 Alpha  occ. eigenvalues --   -0.72478  -0.71866  -0.69793  -0.68741  -0.68366
 Alpha  occ. eigenvalues --   -0.67718  -0.67231  -0.66209  -0.65681  -0.65119
 Alpha  occ. eigenvalues --   -0.63106  -0.62670  -0.60040  -0.59421  -0.58955
 Alpha  occ. eigenvalues --   -0.58639  -0.57472  -0.57153  -0.56825  -0.56195
 Alpha  occ. eigenvalues --   -0.55778  -0.55170  -0.54635  -0.54525  -0.54141
 Alpha  occ. eigenvalues --   -0.53579  -0.52696  -0.52533  -0.51732  -0.51262
 Alpha  occ. eigenvalues --   -0.51143  -0.50330  -0.50010  -0.49670  -0.48877
 Alpha  occ. eigenvalues --   -0.48816  -0.48251  -0.47438  -0.46960  -0.46600
 Alpha  occ. eigenvalues --   -0.46376  -0.45846  -0.45329  -0.44519  -0.44282
 Alpha  occ. eigenvalues --   -0.43894  -0.43503  -0.43262  -0.43177  -0.42800
 Alpha  occ. eigenvalues --   -0.41735  -0.39629  -0.36889  -0.36481  -0.36047
 Alpha  occ. eigenvalues --   -0.35639  -0.35428  -0.34723  -0.34090  -0.32864
 Alpha  occ. eigenvalues --   -0.32080  -0.31651
 Alpha virt. eigenvalues --   -0.11351  -0.10223  -0.10089  -0.07981  -0.07205
 Alpha virt. eigenvalues --   -0.06725  -0.06070  -0.05405  -0.05163  -0.05107
 Alpha virt. eigenvalues --   -0.03000  -0.01933  -0.00348   0.00071   0.00534

 Mulliken charges:
               1
     1  N   -0.767459
     2  H    0.399593
     3  H    0.394279
     4  H    0.425669
     5  C   -0.105449
     6  H    0.210600
     7  C    0.622418
     8  C   -0.299205
     9  H    0.175799
    10  H    0.164484
    11  O   -0.623431
    12  C   -0.362464
    13  H    0.190970
    14  H    0.183842
    15  C    0.601316
    16  O   -0.492141
    17  O   -0.629863
    18  N   -0.610655
    19  H    0.463298
    20  C   -0.031719
    21  H    0.138284
    22  C    0.595019
    23  C   -0.363772
    24  H    0.168199
    25  H    0.189616
    26  O   -0.521217
    27  C    0.152430
    28  C   -0.158295
    29  H    0.169468
    30  C   -0.187941
    31  H    0.161573
    32  C   -0.196094
    33  H    0.147661
    34  C   -0.181907
    35  H    0.143360
    36  O   -0.679125
    37  H    0.432528
    38  C    0.288652
    39  N   -0.616068
    40  H    0.355033
    41  C   -0.049536
    42  H    0.213036
    43  C    0.598146
    44  C   -0.280426
    45  H    0.141161
    46  H    0.184936
    47  O   -0.489212
    48  C   -0.287441
    49  H    0.200480
    50  H    0.169302
    51  C   -0.297275
    52  H    0.156325
    53  H    0.153428
    54  C   -0.200686
    55  H    0.245858
    56  H    0.216019
    57  N   -0.769194
    58  H    0.451816
    59  H    0.406063
    60  H    0.403174
    61  O   -0.561884
    62  H    0.448626
 Sum of Mulliken charges =   1.00000

 Dipole moment (field-independent basis, Debye):
    X=              0.9073    Y=              7.7438    Z=            -12.0561  Tot=             14.3576
 Quadrupole moment (field-independent basis, Debye-Ang):
   XX=           -145.6490   YY=            -70.6026   ZZ=           -118.1230
   XY=             55.1756   XZ=            -40.1924   YZ=            -81.7303

 Normal termination of Gaussian 16 at Wed Jun  1 23:37:49 2022.
