 Gaussian 16, Revision C.01,
 Gaussian 16:  ES64L-G16RevC.01  3-Jul-2019

 ----------------------------------------------------------------------
 # B3LYP/6-31G* empiricaldispersion=gd3 guess=read geom=check nosymm in
 tegral(ultrafinegrid)
 ----------------------------------------------------------------------

 ------------------------------------------------------
 Candidate Structure: Conf:123 Charge calc in gas phase
 ------------------------------------------------------
 Structure from the checkpoint file:  "conf-123.chk"
 Charge =  1 Multiplicity = 1

                          Input orientation:
 ---------------------------------------------------------------------
 Center     Atomic      Atomic             Coordinates (Angstroms)
 Number     Number       Type             X           Y           Z
 ---------------------------------------------------------------------
      1          7           0        0.365419   -2.907142    3.331237
      2          1           0        0.935538   -2.236157    3.867102
      3          1           0        0.068446   -3.694868    3.915437
      4          1           0        0.939953   -3.266895    2.553715
      5          6           0       -0.829706   -2.221753    2.698177
      6          1           0       -1.389546   -1.759069    3.517782
      7          6           0       -0.212165   -1.168738    1.780305
      8          6           0       -1.656161   -3.245043    1.907850
      9          1           0       -2.434515   -2.679678    1.378074
     10          1           0       -2.180248   -3.929733    2.584385
     11          8           0        0.952710   -1.286284    1.401373
     12          6           0       -0.857616   -4.067459    0.897566
     13          1           0       -0.196132   -4.785370    1.407866
     14          1           0       -0.258040   -3.437829    0.232650
     15          6           0       -1.942312   -4.901091    0.070072
     16          8           0       -1.981695   -4.628713   -1.149073
     17          8           0       -2.629723   -5.645735    0.798180
     18          7           0       -1.011400   -0.112130    1.496398
     19          1           0       -2.010517   -0.244373    1.612458
     20          6           0       -0.627036    0.892205    0.489536
     21          1           0       -1.314081    1.734037    0.638705
     22          6           0        0.797750    1.411483    0.755229
     23          6           0       -0.795764    0.340787   -0.941361
     24          1           0       -0.567788    1.155057   -1.637407
     25          1           0       -0.043212   -0.436987   -1.100760
     26          8           0        1.569255    1.700276   -0.145776
     27          6           0       -2.190154   -0.213717   -1.136293
     28          6           0       -2.409004   -1.599660   -1.202473
     29          1           0       -1.586323   -2.311114   -1.199106
     30          6           0       -3.304577    0.634370   -1.177470
     31          1           0       -3.168583    1.714817   -1.144566
     32          6           0       -3.692168   -2.130613   -1.298504
     33          1           0       -3.818312   -3.207778   -1.348793
     34          6           0       -4.597446    0.119202   -1.275860
     35          1           0       -5.451920    0.792597   -1.316843
     36          8           0       -6.032824   -1.832341   -1.425706
     37          1           0       -6.703317   -1.134467   -1.487632
     38          6           0       -4.794330   -1.268450   -1.334381
     39          7           0        1.167883    1.553616    2.079980
     40          1           0        0.553204    1.133492    2.765196
     41          6           0        2.586761    1.397208    2.344151
     42          1           0        2.984920    0.723827    1.567204
     43          6           0        2.784278    0.615575    3.632485
     44          6           0        3.361924    2.734291    2.247103
     45          1           0        2.725139    3.407296    1.667100
     46          1           0        3.506169    3.182309    3.236849
     47          8           0        1.939450   -0.082884    4.173703
     48          6           0        4.699694    2.566425    1.517883
     49          1           0        4.500606    2.056081    0.566299
     50          1           0        5.373561    1.928750    2.102947
     51          6           0        5.372933    3.917275    1.225820
     52          1           0        4.666594    4.558074    0.679466
     53          1           0        5.623047    4.428434    2.165802
     54          6           0        6.630040    3.716806    0.389954
     55          1           0        7.403481    3.155087    0.919528
     56          1           0        6.418441    3.221744   -0.561090
     57          7           0        7.261818    5.065973    0.026804
     58          1           0        8.112425    4.957808   -0.539922
     59          1           0        7.513601    5.595232    0.870934
     60          1           0        6.602607    5.645364   -0.508361
     61          8           0        4.041023    0.728380    4.095520
     62          1           0        4.116051    0.170626    4.893935
 ---------------------------------------------------------------------

 SCF Done:  E(RB3LYP) =  -1526.17976489     A.U. after    1 cycles

 Alpha  occ. eigenvalues --  -19.32809 -19.27253 -19.23315 -19.21686 -19.21037
 Alpha  occ. eigenvalues --  -19.06019 -19.05655 -14.66735 -14.57039 -14.46968
 Alpha  occ. eigenvalues --  -14.45340 -10.45305 -10.43726 -10.40177 -10.38573
 Alpha  occ. eigenvalues --  -10.36363 -10.35941 -10.35375 -10.32790 -10.32742
 Alpha  occ. eigenvalues --  -10.31095 -10.28379 -10.25999 -10.25372 -10.24966
 Alpha  occ. eigenvalues --  -10.23617 -10.23334 -10.23047 -10.21737 -10.20767
 Alpha  occ. eigenvalues --  -10.20739  -1.23617  -1.20567  -1.15862  -1.14414
 Alpha  occ. eigenvalues --   -1.13572  -1.10948  -1.09143  -1.03777  -1.02390
 Alpha  occ. eigenvalues --   -0.99161  -0.97428  -0.91258  -0.91073  -0.89827
 Alpha  occ. eigenvalues --   -0.88637  -0.86199  -0.84651  -0.81055  -0.79391
 Alpha  occ. eigenvalues --   -0.79159  -0.78244  -0.77893  -0.77853  -0.74262
 Alpha  occ. eigenvalues --   -0.72790  -0.71843  -0.71154  -0.69673  -0.69255
 Alpha  occ. eigenvalues --   -0.68251  -0.67875  -0.66395  -0.65818  -0.64822
 Alpha  occ. eigenvalues --   -0.63590  -0.62748  -0.61834  -0.61354  -0.59791
 Alpha  occ. eigenvalues --   -0.58891  -0.58160  -0.57767  -0.57572  -0.56844
 Alpha  occ. eigenvalues --   -0.56183  -0.56035  -0.53830  -0.53306  -0.52908
 Alpha  occ. eigenvalues --   -0.52550  -0.51993  -0.51573  -0.50863  -0.50438
 Alpha  occ. eigenvalues --   -0.49552  -0.49331  -0.48792  -0.47826  -0.47559
 Alpha  occ. eigenvalues --   -0.47190  -0.46965  -0.46015  -0.45456  -0.44861
 Alpha  occ. eigenvalues --   -0.44335  -0.43744  -0.43621  -0.42420  -0.41068
 Alpha  occ. eigenvalues --   -0.40928  -0.40622  -0.39591  -0.39033  -0.37291
 Alpha  occ. eigenvalues --   -0.37104  -0.36704  -0.36558  -0.35953  -0.35595
 Alpha  occ. eigenvalues --   -0.34760  -0.34201  -0.28760  -0.25516  -0.21651
 Alpha  occ. eigenvalues --   -0.20335  -0.20177
 Alpha virt. eigenvalues --   -0.17014  -0.12324  -0.10308  -0.10296  -0.09355
 Alpha virt. eigenvalues --   -0.08269  -0.08151  -0.06821  -0.04847  -0.04453
 Alpha virt. eigenvalues --   -0.04061  -0.03226  -0.02891  -0.02035  -0.01652

 Mulliken charges:
               1
     1  N   -0.727070
     2  H    0.419196
     3  H    0.412317
     4  H    0.417846
     5  C   -0.151506
     6  H    0.190831
     7  C    0.666413
     8  C   -0.290592
     9  H    0.188089
    10  H    0.190659
    11  O   -0.543246
    12  C   -0.393590
    13  H    0.100734
    14  H    0.143376
    15  C    0.582918
    16  O   -0.575898
    17  O   -0.582567
    18  N   -0.623131
    19  H    0.363417
    20  C   -0.074946
    21  H    0.185007
    22  C    0.624641
    23  C   -0.344375
    24  H    0.168638
    25  H    0.181975
    26  O   -0.518940
    27  C    0.143506
    28  C   -0.244028
    29  H    0.183536
    30  C   -0.206764
    31  H    0.111361
    32  C   -0.177669
    33  H    0.217871
    34  C   -0.194930
    35  H    0.118397
    36  O   -0.626528
    37  H    0.406180
    38  C    0.348652
    39  N   -0.604245
    40  H    0.345000
    41  C   -0.027701
    42  H    0.216256
    43  C    0.587905
    44  C   -0.260926
    45  H    0.184894
    46  H    0.157921
    47  O   -0.498409
    48  C   -0.293572
    49  H    0.183991
    50  H    0.170805
    51  C   -0.295077
    52  H    0.175684
    53  H    0.171156
    54  C   -0.207897
    55  H    0.231078
    56  H    0.237740
    57  N   -0.732026
    58  H    0.434984
    59  H    0.428613
    60  H    0.430784
    61  O   -0.556236
    62  H    0.429497
 Sum of Mulliken charges =   1.00000

 Dipole moment (field-independent basis, Debye):
    X=             36.9880    Y=             30.5117    Z=             14.9704  Tot=             50.2314
 Quadrupole moment (field-independent basis, Debye-Ang):
   XX=             60.5575   YY=           -132.5303   ZZ=           -132.8691
   XY=            105.2852   XZ=             16.9285   YZ=            -30.6199

 Normal termination of Gaussian 16 at Wed Jun  1 23:37:54 2022.
