 Gaussian 16, Revision C.01,
 Gaussian 16:  ES64L-G16RevC.01  3-Jul-2019

 ----------------------------------------------------------------------
 # B3LYP/6-31G* empiricaldispersion=gd3 guess=read geom=check nosymm in
 tegral(ultrafinegrid)
 ----------------------------------------------------------------------

 -----------------------------------------------------
 Candidate Structure: Conf:34 Charge calc in gas phase
 -----------------------------------------------------
 Structure from the checkpoint file:  "conf-34.chk"
 Charge =  1 Multiplicity = 1

                          Input orientation:
 ---------------------------------------------------------------------
 Center     Atomic      Atomic             Coordinates (Angstroms)
 Number     Number       Type             X           Y           Z
 ---------------------------------------------------------------------
      1          7           0       -0.147592    1.065917    4.147083
      2          1           0        0.205114    0.949384    5.097912
      3          1           0        0.526079    1.681534    3.596022
      4          1           0       -1.050439    1.559112    4.131865
      5          6           0       -0.345478   -0.234676    3.408941
      6          1           0       -1.052914   -0.819935    4.005676
      7          6           0       -1.044722    0.247041    2.094678
      8          6           0        0.956879   -1.029640    3.190700
      9          1           0        1.469630   -0.667649    2.293160
     10          1           0        0.648560   -2.058856    2.976951
     11          8           0       -1.758595    1.240326    2.158347
     12          6           0        1.996519   -1.060197    4.349160
     13          1           0        2.527391   -2.013343    4.322542
     14          1           0        1.532089   -0.957605    5.335650
     15          6           0        3.006728    0.041195    4.085157
     16          8           0        2.641287    1.218550    4.606005
     17          8           0        3.975305   -0.116052    3.362220
     18          7           0       -0.756778   -0.425480    0.953295
     19          1           0       -0.095818   -1.190356    1.017458
     20          6           0       -0.614889    0.301975   -0.324188
     21          1           0       -1.275029    1.169798   -0.272456
     22          6           0        0.879199    0.688641   -0.323718
     23          6           0       -0.982050   -0.588004   -1.523410
     24          1           0       -0.809889   -0.000172   -2.433800
     25          1           0       -0.275036   -1.425319   -1.554485
     26          8           0        1.725081   -0.203845   -0.238630
     27          6           0       -2.408472   -1.078694   -1.457584
     28          6           0       -2.712904   -2.343729   -0.937114
     29          1           0       -1.905630   -3.001767   -0.622780
     30          6           0       -3.467900   -0.262304   -1.867867
     31          1           0       -3.261424    0.722272   -2.282680
     32          6           0       -4.026955   -2.785313   -0.826244
     33          1           0       -4.263532   -3.768882   -0.433614
     34          6           0       -4.790935   -0.687449   -1.763241
     35          1           0       -5.600759   -0.040464   -2.093980
     36          8           0       -6.342212   -2.438450   -1.106517
     37          1           0       -6.977374   -1.789617   -1.447672
     38          6           0       -5.075127   -1.954100   -1.238933
     39          7           0        1.198615    2.017008   -0.318366
     40          1           0        0.430961    2.646218   -0.111191
     41          6           0        2.477319    2.397772    0.283430
     42          1           0        3.118931    1.531467    0.101145
     43          6           0        2.296394    2.502920    1.821418
     44          6           0        3.113891    3.644558   -0.377521
     45          1           0        2.610257    3.775069   -1.340786
     46          1           0        2.900875    4.544278    0.212076
     47          8           0        1.141981    2.355524    2.271779
     48          6           0        4.631323    3.557964   -0.658375
     49          1           0        4.859145    4.327347   -1.403150
     50          1           0        4.847161    2.603172   -1.161499
     51          6           0        5.585989    3.768498    0.548618
     52          1           0        6.350633    4.506164    0.281072
     53          1           0        5.037516    4.186768    1.398255
     54          6           0        6.364372    2.538244    1.023557
     55          1           0        6.973414    2.102369    0.226838
     56          1           0        7.024725    2.806274    1.851806
     57          7           0        5.443535    1.462235    1.544996
     58          1           0        5.082820    0.859223    0.801586
     59          1           0        4.587757    1.917837    2.012983
     60          1           0        5.863796    0.841374    2.241628
     61          8           0        3.342958    2.698419    2.530866
     62          1           0        3.062581    1.944881    4.049214
 ---------------------------------------------------------------------

 SCF Done:  E(RB3LYP) =  -1526.31672124     A.U. after    1 cycles

 Alpha  occ. eigenvalues --  -19.29487 -19.25286 -19.24312 -19.24237 -19.24176
 Alpha  occ. eigenvalues --  -19.23600 -19.22763 -14.55370 -14.55050 -14.47587
 Alpha  occ. eigenvalues --  -14.46639 -10.43582 -10.41642 -10.41278 -10.39536
 Alpha  occ. eigenvalues --  -10.38729 -10.36620 -10.34006 -10.33965 -10.33382
 Alpha  occ. eigenvalues --  -10.32492 -10.31626 -10.30623 -10.30079 -10.29813
 Alpha  occ. eigenvalues --  -10.28130 -10.26292 -10.26188 -10.26086 -10.25727
 Alpha  occ. eigenvalues --  -10.25160  -1.21144  -1.17363  -1.16623  -1.14536
 Alpha  occ. eigenvalues --   -1.12337  -1.12300  -1.10683  -1.10271  -1.08039
 Alpha  occ. eigenvalues --   -1.04446  -1.03061  -0.93423  -0.92401  -0.91766
 Alpha  occ. eigenvalues --   -0.88667  -0.87259  -0.85457  -0.82291  -0.81610
 Alpha  occ. eigenvalues --   -0.80207  -0.77256  -0.75707  -0.74056  -0.71528
 Alpha  occ. eigenvalues --   -0.71077  -0.70848  -0.70707  -0.69270  -0.69047
 Alpha  occ. eigenvalues --   -0.68823  -0.68719  -0.67854  -0.66210  -0.65738
 Alpha  occ. eigenvalues --   -0.63272  -0.62561  -0.61617  -0.61117  -0.59932
 Alpha  occ. eigenvalues --   -0.59726  -0.59013  -0.58474  -0.58264  -0.57576
 Alpha  occ. eigenvalues --   -0.57329  -0.56591  -0.56086  -0.55578  -0.54861
 Alpha  occ. eigenvalues --   -0.54286  -0.53657  -0.53140  -0.52898  -0.52475
 Alpha  occ. eigenvalues --   -0.51791  -0.51100  -0.50719  -0.50512  -0.50070
 Alpha  occ. eigenvalues --   -0.49549  -0.49062  -0.48979  -0.48707  -0.47943
 Alpha  occ. eigenvalues --   -0.47575  -0.47461  -0.46774  -0.46277  -0.45091
 Alpha  occ. eigenvalues --   -0.44900  -0.44437  -0.44073  -0.42900  -0.42569
 Alpha  occ. eigenvalues --   -0.40499  -0.40424  -0.40003  -0.39561  -0.38649
 Alpha  occ. eigenvalues --   -0.38368  -0.38160  -0.37634  -0.36409  -0.35112
 Alpha  occ. eigenvalues --   -0.31973  -0.28499
 Alpha virt. eigenvalues --   -0.12075  -0.11212  -0.09578  -0.08831  -0.07360
 Alpha virt. eigenvalues --   -0.07073  -0.06042  -0.05662  -0.03521  -0.02787
 Alpha virt. eigenvalues --   -0.01389  -0.00718  -0.00198   0.00088   0.00331

 Mulliken charges:
               1
     1  N   -0.756540
     2  H    0.398477
     3  H    0.454850
     4  H    0.411847
     5  C   -0.112661
     6  H    0.218449
     7  C    0.653787
     8  C   -0.348653
     9  H    0.210287
    10  H    0.193492
    11  O   -0.507523
    12  C   -0.348456
    13  H    0.206960
    14  H    0.168746
    15  C    0.585778
    16  O   -0.604412
    17  O   -0.499059
    18  N   -0.580377
    19  H    0.350766
    20  C   -0.068877
    21  H    0.189682
    22  C    0.621602
    23  C   -0.385991
    24  H    0.169757
    25  H    0.171981
    26  O   -0.545038
    27  C    0.184432
    28  C   -0.186151
    29  H    0.117860
    30  C   -0.186634
    31  H    0.127937
    32  C   -0.158411
    33  H    0.150349
    34  C   -0.188840
    35  H    0.133411
    36  O   -0.633331
    37  H    0.414649
    38  C    0.354136
    39  N   -0.575975
    40  H    0.347695
    41  C   -0.079708
    42  H    0.162150
    43  C    0.642408
    44  C   -0.281663
    45  H    0.179677
    46  H    0.168196
    47  O   -0.576778
    48  C   -0.296749
    49  H    0.178652
    50  H    0.139564
    51  C   -0.294838
    52  H    0.183227
    53  H    0.193962
    54  C   -0.185805
    55  H    0.200083
    56  H    0.204463
    57  N   -0.778871
    58  H    0.400770
    59  H    0.461894
    60  H    0.410782
    61  O   -0.631238
    62  H    0.449819
 Sum of Mulliken charges =   1.00000

 Dipole moment (field-independent basis, Debye):
    X=             11.1379    Y=              5.4907    Z=              9.5272  Tot=             15.6514
 Quadrupole moment (field-independent basis, Debye-Ang):
   XX=            -79.3096   YY=           -159.7490   ZZ=           -128.3210
   XY=             26.6122   XZ=             17.7795   YZ=             -6.5685

 Normal termination of Gaussian 16 at Wed Jun  1 23:37:54 2022.
