 Gaussian 16, Revision C.01,
 Gaussian 16:  ES64L-G16RevC.01  3-Jul-2019

 ----------------------------------------------------------------------
 # B3LYP/6-31G* empiricaldispersion=gd3 guess=read geom=check nosymm in
 tegral(ultrafinegrid)
 ----------------------------------------------------------------------

 ------------------------------------------------------
 Candidate Structure: Conf:428 Charge calc in gas phase
 ------------------------------------------------------
 Structure from the checkpoint file:  "conf-428.chk"
 Charge =  1 Multiplicity = 1

                          Input orientation:
 ---------------------------------------------------------------------
 Center     Atomic      Atomic             Coordinates (Angstroms)
 Number     Number       Type             X           Y           Z
 ---------------------------------------------------------------------
      1          7           0       -0.047025   -4.099143    2.855162
      2          1           0        0.560602   -3.927775    3.652757
      3          1           0       -0.631358   -4.899803    3.080471
      4          1           0        0.806689   -3.780282    1.291331
      5          6           0       -0.852962   -2.909974    2.518863
      6          1           0       -0.935369   -2.210988    3.357417
      7          6           0       -0.114823   -2.190576    1.377695
      8          6           0       -2.272644   -3.348120    2.089475
      9          1           0       -2.730923   -3.847135    2.952597
     10          1           0       -2.177669   -4.096354    1.291364
     11          8           0        0.785947   -2.937892    0.746094
     12          6           0       -3.217949   -2.227285    1.615302
     13          1           0       -4.196932   -2.666687    1.411075
     14          1           0       -2.839895   -1.782785    0.689536
     15          6           0       -3.425843   -1.148650    2.683978
     16          8           0       -4.372056   -1.157085    3.436191
     17          8           0       -2.464458   -0.209416    2.768535
     18          7           0       -0.412247   -0.975316    1.097967
     19          1           0       -1.739446   -0.376027    2.101115
     20          6           0        0.226986   -0.238397    0.011381
     21          1           0       -0.270631    0.739291   -0.004962
     22          6           0        1.728761    0.026228    0.255744
     23          6           0        0.046879   -0.867821   -1.393177
     24          1           0        0.482173   -1.867647   -1.384510
     25          1           0       -1.029808   -0.966474   -1.574995
     26          8           0        2.617415   -0.677138   -0.210769
     27          6           0        0.695406   -0.032550   -2.478516
     28          6           0        0.168323    1.207700   -2.863727
     29          1           0       -0.753494    1.564072   -2.410680
     30          6           0        1.879027   -0.467380   -3.093229
     31          1           0        2.323721   -1.404522   -2.778033
     32          6           0        0.786779    1.990126   -3.844350
     33          1           0        0.347844    2.926730   -4.175797
     34          6           0        2.512619    0.299349   -4.070019
     35          1           0        3.429713   -0.052125   -4.537648
     36          8           0        2.562798    2.325074   -5.424897
     37          1           0        2.959921    1.753501   -6.102634
     38          6           0        1.951367    1.518917   -4.442016
     39          7           0        2.002761    1.168913    0.952272
     40          1           0        1.253618    1.761226    1.290804
     41          6           0        3.302216    1.802755    0.808486
     42          1           0        4.090815    1.065183    0.974365
     43          6           0        3.401807    2.921418    1.830984
     44          6           0        3.407335    2.375190   -0.630374
     45          1           0        3.192229    1.538122   -1.302792
     46          1           0        2.586646    3.096272   -0.737013
     47          8           0        2.447671    3.511903    2.286408
     48          6           0        4.746158    3.001611   -1.030985
     49          1           0        5.560683    2.303732   -0.807102
     50          1           0        4.951664    3.907992   -0.449274
     51          6           0        4.791224    3.317793   -2.539068
     52          1           0        5.792553    3.676735   -2.813373
     53          1           0        4.600785    2.395940   -3.104740
     54          6           0        3.753806    4.365786   -2.934781
     55          1           0        2.737707    4.049820   -2.692532
     56          1           0        3.951153    5.334973   -2.469200
     57          7           0        3.756838    4.572299   -4.439372
     58          1           0        3.148215    5.348560   -4.719708
     59          1           0        3.395766    3.697982   -4.913382
     60          1           0        4.700345    4.777149   -4.785109
     61          8           0        4.683762    3.224339    2.118091
     62          1           0        4.670104    3.963235    2.757557
 ---------------------------------------------------------------------

 SCF Done:  E(RB3LYP) =  -1526.26439401     A.U. after    2 cycles

 Alpha  occ. eigenvalues --  -19.33010 -19.29849 -19.26178 -19.24137 -19.21430
 Alpha  occ. eigenvalues --  -19.20201 -19.16495 -14.61014 -14.44829 -14.42761
 Alpha  occ. eigenvalues --  -14.40735 -10.42109 -10.40063 -10.37274 -10.36985
 Alpha  occ. eigenvalues --  -10.36924 -10.35294 -10.33764 -10.33746 -10.31645
 Alpha  occ. eigenvalues --  -10.31644 -10.31022 -10.30597 -10.30522 -10.30075
 Alpha  occ. eigenvalues --  -10.30013 -10.29908 -10.29559 -10.27759 -10.27735
 Alpha  occ. eigenvalues --  -10.25798  -1.20693  -1.19656  -1.16107  -1.15477
 Alpha  occ. eigenvalues --   -1.12491  -1.12385  -1.11730  -1.04490  -1.01755
 Alpha  occ. eigenvalues --   -0.99782  -0.98882  -0.96597  -0.94634  -0.89153
 Alpha  occ. eigenvalues --   -0.88442  -0.86324  -0.85998  -0.84093  -0.82548
 Alpha  occ. eigenvalues --   -0.78562  -0.77963  -0.75557  -0.74816  -0.74551
 Alpha  occ. eigenvalues --   -0.72938  -0.71803  -0.70631  -0.70406  -0.68876
 Alpha  occ. eigenvalues --   -0.67475  -0.66374  -0.66214  -0.65197  -0.63988
 Alpha  occ. eigenvalues --   -0.62190  -0.61513  -0.60642  -0.59579  -0.59082
 Alpha  occ. eigenvalues --   -0.58903  -0.58513  -0.58262  -0.57421  -0.56561
 Alpha  occ. eigenvalues --   -0.56297  -0.55765  -0.55332  -0.54989  -0.54073
 Alpha  occ. eigenvalues --   -0.53536  -0.53344  -0.53088  -0.52400  -0.51511
 Alpha  occ. eigenvalues --   -0.50999  -0.50545  -0.50141  -0.49617  -0.49367
 Alpha  occ. eigenvalues --   -0.48820  -0.48140  -0.47974  -0.47231  -0.46598
 Alpha  occ. eigenvalues --   -0.46257  -0.46074  -0.45873  -0.45284  -0.44808
 Alpha  occ. eigenvalues --   -0.44326  -0.44260  -0.43818  -0.42516  -0.41769
 Alpha  occ. eigenvalues --   -0.41510  -0.39922  -0.37987  -0.37087  -0.36439
 Alpha  occ. eigenvalues --   -0.36261  -0.35710  -0.34397  -0.34062  -0.33546
 Alpha  occ. eigenvalues --   -0.32130  -0.30126
 Alpha virt. eigenvalues --   -0.12602  -0.11565  -0.10958  -0.09327  -0.07939
 Alpha virt. eigenvalues --   -0.06958  -0.06523  -0.06228  -0.04907  -0.03209
 Alpha virt. eigenvalues --   -0.02208  -0.01893  -0.01625  -0.00810  -0.00692

 Mulliken charges:
               1
     1  N   -0.789691
     2  H    0.340816
     3  H    0.341301
     4  H    0.445432
     5  C   -0.070566
     6  H    0.193040
     7  C    0.592416
     8  C   -0.292674
     9  H    0.178185
    10  H    0.158578
    11  O   -0.594644
    12  C   -0.364954
    13  H    0.184505
    14  H    0.154706
    15  C    0.571778
    16  O   -0.447379
    17  O   -0.608946
    18  N   -0.545513
    19  H    0.443817
    20  C   -0.059557
    21  H    0.137633
    22  C    0.636131
    23  C   -0.367432
    24  H    0.201137
    25  H    0.165058
    26  O   -0.520163
    27  C    0.160530
    28  C   -0.193600
    29  H    0.157039
    30  C   -0.163690
    31  H    0.181453
    32  C   -0.170288
    33  H    0.145070
    34  C   -0.184247
    35  H    0.145696
    36  O   -0.711306
    37  H    0.439393
    38  C    0.314733
    39  N   -0.609695
    40  H    0.354630
    41  C   -0.025029
    42  H    0.205123
    43  C    0.580868
    44  C   -0.301751
    45  H    0.194012
    46  H    0.139641
    47  O   -0.454388
    48  C   -0.273003
    49  H    0.181427
    50  H    0.161425
    51  C   -0.295606
    52  H    0.163052
    53  H    0.171678
    54  C   -0.198749
    55  H    0.222545
    56  H    0.213040
    57  N   -0.766761
    58  H    0.413796
    59  H    0.450964
    60  H    0.405675
    61  O   -0.562896
    62  H    0.426203
 Sum of Mulliken charges =   1.00000

 Dipole moment (field-independent basis, Debye):
    X=             19.5905    Y=             12.9036    Z=            -17.7607  Tot=             29.4234
 Quadrupole moment (field-independent basis, Debye-Ang):
   XX=           -125.9472   YY=            -70.3515   ZZ=            -91.9133
   XY=             79.4805   XZ=            -43.5007   YZ=            -84.9154

 Normal termination of Gaussian 16 at Wed Jun  1 23:38:02 2022.
