 Gaussian 16, Revision C.01,
 Gaussian 16:  ES64L-G16RevC.01  3-Jul-2019

 ----------------------------------------------------------------------
 # B3LYP/6-31G* empiricaldispersion=gd3 guess=read geom=check nosymm in
 tegral(ultrafinegrid)
 ----------------------------------------------------------------------

 ------------------------------------------------------
 Candidate Structure: Conf:315 Charge calc in gas phase
 ------------------------------------------------------
 Structure from the checkpoint file:  "conf-315.chk"
 Charge =  1 Multiplicity = 1

                          Input orientation:
 ---------------------------------------------------------------------
 Center     Atomic      Atomic             Coordinates (Angstroms)
 Number     Number       Type             X           Y           Z
 ---------------------------------------------------------------------
      1          7           0       -3.961747   -2.171027    2.017268
      2          1           0       -4.681972   -2.886391    2.139169
      3          1           0       -4.136691   -1.409223    2.681685
      4          1           0       -3.962132   -1.768731    1.037878
      5          6           0       -2.542912   -2.699844    2.151560
      6          1           0       -2.587226   -3.742118    1.817787
      7          6           0       -1.795726   -1.922863    1.023756
      8          6           0       -2.061036   -2.650720    3.605910
      9          1           0       -1.091480   -3.155035    3.653503
     10          1           0       -2.755063   -3.265555    4.193524
     11          8           0       -2.505072   -1.423686    0.136088
     12          6           0       -1.910719   -1.255874    4.229388
     13          1           0       -1.962697   -1.356114    5.319795
     14          1           0       -2.723818   -0.563039    3.970804
     15          6           0       -0.579853   -0.530754    3.929596
     16          8           0       -0.517022    0.683783    4.131428
     17          8           0        0.395829   -1.279456    3.514148
     18          7           0       -0.461591   -1.934886    1.050396
     19          1           0       -0.028767   -1.979928    1.993593
     20          6           0        0.299670   -1.184490    0.032749
     21          1           0       -0.049252   -0.147864    0.016483
     22          6           0        1.788724   -1.113058    0.410697
     23          6           0        0.144075   -1.801728   -1.384166
     24          1           0        0.310024   -2.883178   -1.314829
     25          1           0       -0.894154   -1.654454   -1.694464
     26          8           0        2.354773   -0.023748    0.517959
     27          6           0        1.109574   -1.188112   -2.373968
     28          6           0        0.996956    0.160157   -2.747271
     29          1           0        0.177956    0.760261   -2.357346
     30          6           0        2.167795   -1.933662   -2.903384
     31          1           0        2.266501   -2.983982   -2.643574
     32          6           0        1.911714    0.749360   -3.610456
     33          1           0        1.824506    1.790557   -3.902839
     34          6           0        3.095760   -1.356483   -3.771765
     35          1           0        3.907904   -1.955124   -4.179632
     36          8           0        3.837631    0.626346   -4.963926
     37          1           0        4.503013   -0.001530   -5.286166
     38          6           0        2.971676   -0.008791   -4.126045
     39          7           0        2.433730   -2.300792    0.543489
     40          1           0        1.912972   -3.145379    0.322905
     41          6           0        3.868395   -2.427231    0.268132
     42          1           0        4.162119   -1.576003   -0.357135
     43          6           0        4.032805   -3.695906   -0.566181
     44          6           0        4.802538   -2.471803    1.499699
     45          1           0        4.554720   -3.348338    2.112191
     46          1           0        5.812920   -2.634866    1.112975
     47          8           0        3.148690   -4.504326   -0.767464
     48          6           0        4.764635   -1.186318    2.351294
     49          1           0        4.455660   -0.353505    1.711159
     50          1           0        5.777266   -0.948149    2.696421
     51          6           0        3.843372   -1.300107    3.579826
     52          1           0        2.950231   -1.890892    3.344570
     53          1           0        4.365287   -1.842348    4.376700
     54          6           0        3.386597    0.050963    4.135286
     55          1           0        2.975429   -0.052836    5.142476
     56          1           0        4.196264    0.786176    4.161637
     57          7           0        2.270316    0.580335    3.287571
     58          1           0        1.825925    1.422599    3.662807
     59          1           0        1.491334   -0.163452    3.299218
     60          1           0        2.530275    0.720435    2.300467
     61          8           0        5.280322   -3.818359   -1.041847
     62          1           0        5.325591   -4.657404   -1.539886
 ---------------------------------------------------------------------

 SCF Done:  E(RB3LYP) =  -1526.30780796     A.U. after    1 cycles

 Alpha  occ. eigenvalues --  -19.30299 -19.26622 -19.24937 -19.24776 -19.23155
 Alpha  occ. eigenvalues --  -19.21056 -19.19146 -14.59795 -14.50813 -14.48254
 Alpha  occ. eigenvalues --  -14.46782 -10.43178 -10.42852 -10.40513 -10.40159
 Alpha  occ. eigenvalues --  -10.38072 -10.34310 -10.34257 -10.33924 -10.32988
 Alpha  occ. eigenvalues --  -10.32265 -10.30447 -10.28873 -10.28806 -10.28612
 Alpha  occ. eigenvalues --  -10.28026 -10.26926 -10.26744 -10.26558 -10.26419
 Alpha  occ. eigenvalues --  -10.25719  -1.21428  -1.18964  -1.14904  -1.13647
 Alpha  occ. eigenvalues --   -1.13539  -1.12921  -1.12516  -1.06677  -1.05782
 Alpha  occ. eigenvalues --   -1.04115  -1.03247  -0.93806  -0.92976  -0.90794
 Alpha  occ. eigenvalues --   -0.88644  -0.86620  -0.85323  -0.82267  -0.81877
 Alpha  occ. eigenvalues --   -0.80705  -0.77070  -0.75760  -0.74338  -0.74087
 Alpha  occ. eigenvalues --   -0.72358  -0.71640  -0.69972  -0.69342  -0.68801
 Alpha  occ. eigenvalues --   -0.68435  -0.67078  -0.66211  -0.65928  -0.64789
 Alpha  occ. eigenvalues --   -0.62849  -0.61914  -0.61419  -0.60845  -0.60074
 Alpha  occ. eigenvalues --   -0.59532  -0.58629  -0.57748  -0.57472  -0.56757
 Alpha  occ. eigenvalues --   -0.56512  -0.55995  -0.55295  -0.54887  -0.54535
 Alpha  occ. eigenvalues --   -0.53820  -0.53643  -0.53018  -0.52771  -0.51710
 Alpha  occ. eigenvalues --   -0.51626  -0.51008  -0.50350  -0.50057  -0.49771
 Alpha  occ. eigenvalues --   -0.49484  -0.49179  -0.48979  -0.47935  -0.47577
 Alpha  occ. eigenvalues --   -0.47150  -0.46856  -0.46067  -0.45860  -0.44667
 Alpha  occ. eigenvalues --   -0.44106  -0.43693  -0.43449  -0.43187  -0.42290
 Alpha  occ. eigenvalues --   -0.41093  -0.40835  -0.40238  -0.39046  -0.38534
 Alpha  occ. eigenvalues --   -0.36781  -0.36500  -0.36089  -0.35549  -0.33301
 Alpha  occ. eigenvalues --   -0.32612  -0.29116
 Alpha virt. eigenvalues --   -0.13285  -0.10537  -0.10229  -0.09674  -0.07710
 Alpha virt. eigenvalues --   -0.06546  -0.06296  -0.04897  -0.03243  -0.02415
 Alpha virt. eigenvalues --   -0.02377  -0.00998   0.00088   0.00139   0.00317

 Mulliken charges:
               1
     1  N   -0.750383
     2  H    0.414125
     3  H    0.412447
     4  H    0.433259
     5  C   -0.119713
     6  H    0.229893
     7  C    0.645599
     8  C   -0.303614
     9  H    0.213211
    10  H    0.165686
    11  O   -0.543051
    12  C   -0.381106
    13  H    0.205570
    14  H    0.144661
    15  C    0.604316
    16  O   -0.536454
    17  O   -0.659168
    18  N   -0.651610
    19  H    0.409505
    20  C   -0.032117
    21  H    0.194994
    22  C    0.590752
    23  C   -0.377805
    24  H    0.154232
    25  H    0.198154
    26  O   -0.546155
    27  C    0.147386
    28  C   -0.173688
    29  H    0.135031
    30  C   -0.220435
    31  H    0.148801
    32  C   -0.153669
    33  H    0.156936
    34  C   -0.195869
    35  H    0.127709
    36  O   -0.630525
    37  H    0.414190
    38  C    0.355732
    39  N   -0.585724
    40  H    0.360460
    41  C   -0.051139
    42  H    0.213541
    43  C    0.595374
    44  C   -0.276943
    45  H    0.155682
    46  H    0.182933
    47  O   -0.473345
    48  C   -0.288073
    49  H    0.163667
    50  H    0.161439
    51  C   -0.297216
    52  H    0.181763
    53  H    0.171956
    54  C   -0.183987
    55  H    0.197802
    56  H    0.190771
    57  N   -0.789215
    58  H    0.395305
    59  H    0.449257
    60  H    0.419704
    61  O   -0.551948
    62  H    0.431108
 Sum of Mulliken charges =   1.00000

 Dipole moment (field-independent basis, Debye):
    X=             -0.8148    Y=            -11.8013    Z=              9.0395  Tot=             14.8878
 Quadrupole moment (field-independent basis, Debye-Ang):
   XX=            -75.7242   YY=           -144.5723   ZZ=           -138.0625
   XY=              9.8446   XZ=            -22.9330   YZ=            -12.3028

 Normal termination of Gaussian 16 at Wed Jun  1 23:37:55 2022.
