 Gaussian 16, Revision C.01,
 Gaussian 16:  ES64L-G16RevC.01  3-Jul-2019

 ----------------------------------------------------------------------
 # B3LYP/6-31G* empiricaldispersion=gd3 guess=read geom=check nosymm in
 tegral(ultrafinegrid)
 ----------------------------------------------------------------------

 -----------------------------------------------------
 Candidate Structure: Conf:90 Charge calc in gas phase
 -----------------------------------------------------
 Structure from the checkpoint file:  "conf-90.chk"
 Charge =  1 Multiplicity = 1

                          Input orientation:
 ---------------------------------------------------------------------
 Center     Atomic      Atomic             Coordinates (Angstroms)
 Number     Number       Type             X           Y           Z
 ---------------------------------------------------------------------
      1          7           0        0.845140   -3.879511    1.514674
      2          1           0        1.719241   -3.404931    1.742822
      3          1           0        0.700659   -4.585990    2.236113
      4          1           0        0.881249   -4.589994   -0.050909
      5          6           0       -0.278701   -2.916408    1.538453
      6          1           0       -0.420285   -2.506055    2.548569
      7          6           0        0.028530   -1.753211    0.586232
      8          6           0       -1.612912   -3.590452    1.114429
      9          1           0       -2.284996   -2.812327    0.741047
     10          1           0       -2.088775   -4.007981    2.008578
     11          8           0        0.448986   -1.946546   -0.558835
     12          6           0       -1.530597   -4.740761    0.078392
     13          1           0       -2.546390   -4.949718   -0.265870
     14          1           0       -1.150754   -5.646110    0.563510
     15          6           0       -0.684961   -4.493149   -1.163151
     16          8           0        0.635085   -4.767982   -1.021741
     17          8           0       -1.115698   -4.118092   -2.234562
     18          7           0       -0.263525   -0.525178    1.047530
     19          1           0       -0.534129   -0.415024    2.013533
     20          6           0       -0.044260    0.677755    0.256240
     21          1           0       -0.354248    1.511439    0.895371
     22          6           0        1.479005    0.839019   -0.009886
     23          6           0       -0.909734    0.719605   -1.042838
     24          1           0       -0.966785    1.765059   -1.371170
     25          1           0       -0.396090    0.165159   -1.830497
     26          8           0        2.311951    0.136810    0.550072
     27          6           0       -2.301697    0.162893   -0.855991
     28          6           0       -2.638768   -1.100387   -1.361406
     29          1           0       -1.903982   -1.683445   -1.908164
     30          6           0       -3.278904    0.872032   -0.147916
     31          1           0       -3.052358    1.861410    0.244944
     32          6           0       -3.904473   -1.645770   -1.165955
     33          1           0       -4.161773   -2.619366   -1.570771
     34          6           0       -4.549825    0.339329    0.061084
     35          1           0       -5.297134    0.909031    0.609337
     36          8           0       -6.085268   -1.513322   -0.281473
     37          1           0       -6.684304   -0.907181    0.182223
     38          6           0       -4.868272   -0.926987   -0.447977
     39          7           0        1.802524    1.805987   -0.911103
     40          1           0        1.081622    2.415092   -1.271995
     41          6           0        3.187461    2.202045   -1.155913
     42          1           0        3.763928    1.899705   -0.275056
     43          6           0        3.337008    3.718393   -1.271099
     44          6           0        3.837577    1.545064   -2.398207
     45          1           0        3.284151    1.841926   -3.299425
     46          1           0        4.836060    1.983577   -2.484382
     47          8           0        4.402483    4.266532   -1.408892
     48          6           0        3.947260    0.010535   -2.313876
     49          1           0        4.125947   -0.277767   -1.271625
     50          1           0        4.819971   -0.317225   -2.891615
     51          6           0        2.702322   -0.725417   -2.836625
     52          1           0        1.803681   -0.289214   -2.392920
     53          1           0        2.623817   -0.596568   -3.925143
     54          6           0        2.739788   -2.205424   -2.477215
     55          1           0        3.559209   -2.741076   -2.964158
     56          1           0        2.816772   -2.329454   -1.395789
     57          7           0        1.454711   -2.888283   -2.860838
     58          1           0        1.369135   -3.832098   -2.434405
     59          1           0        1.302612   -2.945994   -3.870443
     60          1           0        0.666716   -2.391914   -2.421585
     61          8           0        2.152369    4.378100   -1.236259
     62          1           0        2.354380    5.328149   -1.338984
 ---------------------------------------------------------------------

 SCF Done:  E(RB3LYP) =  -1526.32293274     A.U. after    1 cycles

 Alpha  occ. eigenvalues --  -19.29859 -19.28190 -19.26187 -19.24691 -19.24090
 Alpha  occ. eigenvalues --  -19.23455 -19.22455 -14.55467 -14.48931 -14.47428
 Alpha  occ. eigenvalues --  -14.46970 -10.42359 -10.41905 -10.41662 -10.39873
 Alpha  occ. eigenvalues --  -10.36035 -10.35956 -10.35623 -10.34120 -10.33799
 Alpha  occ. eigenvalues --  -10.31390 -10.30811 -10.30526 -10.30419 -10.29012
 Alpha  occ. eigenvalues --  -10.28971 -10.28473 -10.28374 -10.27895 -10.27876
 Alpha  occ. eigenvalues --  -10.27211  -1.20425  -1.19566  -1.16797  -1.14355
 Alpha  occ. eigenvalues --   -1.14318  -1.11440  -1.11305  -1.10653  -1.05241
 Alpha  occ. eigenvalues --   -1.03479  -1.03293  -0.94581  -0.91898  -0.90820
 Alpha  occ. eigenvalues --   -0.89668  -0.87343  -0.84400  -0.83721  -0.82661
 Alpha  occ. eigenvalues --   -0.81083  -0.76936  -0.75968  -0.74324  -0.72188
 Alpha  occ. eigenvalues --   -0.71794  -0.71120  -0.70375  -0.69764  -0.69549
 Alpha  occ. eigenvalues --   -0.68976  -0.67783  -0.66818  -0.65153  -0.64080
 Alpha  occ. eigenvalues --   -0.63222  -0.62515  -0.61428  -0.60928  -0.60580
 Alpha  occ. eigenvalues --   -0.59708  -0.58804  -0.57785  -0.57611  -0.57482
 Alpha  occ. eigenvalues --   -0.56821  -0.56235  -0.55900  -0.55255  -0.54800
 Alpha  occ. eigenvalues --   -0.53935  -0.53668  -0.53582  -0.52856  -0.52609
 Alpha  occ. eigenvalues --   -0.52272  -0.51524  -0.51189  -0.50878  -0.50285
 Alpha  occ. eigenvalues --   -0.49955  -0.49296  -0.48948  -0.48919  -0.48051
 Alpha  occ. eigenvalues --   -0.47606  -0.47072  -0.46843  -0.46081  -0.45871
 Alpha  occ. eigenvalues --   -0.44802  -0.44638  -0.44297  -0.44155  -0.42597
 Alpha  occ. eigenvalues --   -0.41618  -0.41565  -0.41443  -0.40036  -0.39009
 Alpha  occ. eigenvalues --   -0.38440  -0.38114  -0.37383  -0.36138  -0.35281
 Alpha  occ. eigenvalues --   -0.34162  -0.30627
 Alpha virt. eigenvalues --   -0.11405  -0.10212  -0.09567  -0.09024  -0.08738
 Alpha virt. eigenvalues --   -0.07703  -0.06567  -0.05566  -0.03906  -0.02892
 Alpha virt. eigenvalues --   -0.02304  -0.00977  -0.00824  -0.00634  -0.00325

 Mulliken charges:
               1
     1  N   -0.784050
     2  H    0.352038
     3  H    0.347183
     4  H    0.468645
     5  C   -0.070482
     6  H    0.155845
     7  C    0.674281
     8  C   -0.304604
     9  H    0.203410
    10  H    0.176485
    11  O   -0.592391
    12  C   -0.367207
    13  H    0.204200
    14  H    0.173880
    15  C    0.626982
    16  O   -0.646528
    17  O   -0.486061
    18  N   -0.575810
    19  H    0.351992
    20  C   -0.067758
    21  H    0.185012
    22  C    0.636929
    23  C   -0.387768
    24  H    0.160055
    25  H    0.164877
    26  O   -0.527975
    27  C    0.183274
    28  C   -0.213251
    29  H    0.148070
    30  C   -0.196480
    31  H    0.131835
    32  C   -0.179868
    33  H    0.161094
    34  C   -0.191373
    35  H    0.140051
    36  O   -0.630146
    37  H    0.417916
    38  C    0.356807
    39  N   -0.617616
    40  H    0.355707
    41  C   -0.058027
    42  H    0.216784
    43  C    0.595325
    44  C   -0.274041
    45  H    0.146965
    46  H    0.194024
    47  O   -0.435972
    48  C   -0.281458
    49  H    0.176690
    50  H    0.158941
    51  C   -0.296919
    52  H    0.178223
    53  H    0.153003
    54  C   -0.180700
    55  H    0.195608
    56  H    0.215659
    57  N   -0.756382
    58  H    0.435549
    59  H    0.394094
    60  H    0.439267
    61  O   -0.584962
    62  H    0.431127
 Sum of Mulliken charges =   1.00000

 Dipole moment (field-independent basis, Debye):
    X=              0.9120    Y=             -6.0584    Z=             -1.3749  Tot=              6.2790
 Quadrupole moment (field-independent basis, Debye-Ang):
   XX=           -153.5227   YY=           -127.1205   ZZ=           -144.5170
   XY=            -17.8527   XZ=            -26.5173   YZ=             -6.3447

 Normal termination of Gaussian 16 at Wed Jun  1 23:37:57 2022.
