 Gaussian 16, Revision C.01,
 Gaussian 16:  ES64L-G16RevC.01  3-Jul-2019

 ----------------------------------------------------------------------
 # B3LYP/6-31G* empiricaldispersion=gd3 guess=read geom=check nosymm in
 tegral(ultrafinegrid)
 ----------------------------------------------------------------------

 ------------------------------------------------------
 Candidate Structure: Conf:234 Charge calc in gas phase
 ------------------------------------------------------
 Structure from the checkpoint file:  "conf-234.chk"
 Charge =  1 Multiplicity = 1

                          Input orientation:
 ---------------------------------------------------------------------
 Center     Atomic      Atomic             Coordinates (Angstroms)
 Number     Number       Type             X           Y           Z
 ---------------------------------------------------------------------
      1          7           0       -0.588923   -2.812753    2.278098
      2          1           0       -0.183560   -2.647072    3.287240
      3          1           0       -1.397648   -3.440320    2.267696
      4          1           0        0.108608   -3.214226    1.644937
      5          6           0       -0.974622   -1.438255    1.825466
      6          1           0       -0.025741   -0.899940    1.726514
      7          6           0       -1.526360   -1.506939    0.404420
      8          6           0       -1.845373   -0.768250    2.915309
      9          1           0       -2.365561   -1.552594    3.476750
     10          1           0       -2.631050   -0.161273    2.453122
     11          8           0       -1.673757   -2.573296   -0.164573
     12          6           0       -0.983650    0.093019    3.859539
     13          1           0       -1.516623    0.259710    4.802237
     14          1           0       -0.798852    1.073888    3.410323
     15          6           0        0.368922   -0.591687    4.168791
     16          8           0        1.414975    0.103976    4.060908
     17          8           0        0.329104   -1.824049    4.461748
     18          7           0       -1.742630   -0.252575   -0.155423
     19          1           0       -1.624307    0.485295    0.534989
     20          6           0       -1.015072    0.121847   -1.392042
     21          1           0       -1.366261    1.124873   -1.660935
     22          6           0        0.474507    0.154249   -0.989279
     23          6           0       -1.245956   -0.813384   -2.587931
     24          1           0       -0.912972   -1.817494   -2.321252
     25          1           0       -2.323550   -0.865307   -2.776075
     26          8           0        1.048547   -0.869804   -0.620069
     27          6           0       -0.493751   -0.295130   -3.794789
     28          6           0       -1.025167    0.729251   -4.592547
     29          1           0       -2.018691    1.116400   -4.374509
     30          6           0        0.779523   -0.783448   -4.109478
     31          1           0        1.215357   -1.569016   -3.497693
     32          6           0       -0.318799    1.248610   -5.672536
     33          1           0       -0.736113    2.028868   -6.300884
     34          6           0        1.500314   -0.274884   -5.190045
     35          1           0        2.484360   -0.675282   -5.427207
     36          8           0        1.599335    1.288242   -7.048456
     37          1           0        2.416591    0.793933   -7.216698
     38          6           0        0.950904    0.742891   -5.977234
     39          7           0        1.082089    1.367627   -0.943578
     40          1           0        0.563647    2.200469   -1.184539
     41          6           0        2.398315    1.484250   -0.342525
     42          1           0        3.073205    0.790368   -0.853084
     43          6           0        2.453221    1.050428    1.143752
     44          6           0        2.943602    2.923057   -0.503317
     45          1           0        3.160456    3.099762   -1.563631
     46          1           0        2.180322    3.650811   -0.198023
     47          8           0        3.513337    0.671390    1.618153
     48          6           0        4.199696    3.113808    0.354483
     49          1           0        4.790966    2.195805    0.257013
     50          1           0        3.881514    3.157071    1.404377
     51          6           0        5.087643    4.324978    0.059757
     52          1           0        5.634889    4.196680   -0.882529
     53          1           0        4.500220    5.245360   -0.040156
     54          6           0        6.062274    4.553410    1.219229
     55          1           0        6.884071    5.229624    0.974349
     56          1           0        5.547334    4.921035    2.110331
     57          7           0        6.709213    3.231120    1.656857
     58          1           0        7.358720    3.366667    2.440064
     59          1           0        7.232429    2.796517    0.887300
     60          1           0        5.992575    2.550475    1.952327
     61          8           0        1.328393    1.228971    1.808982
     62          1           0        1.426313    0.871543    2.801250
 ---------------------------------------------------------------------

 SCF Done:  E(RB3LYP) =  -1526.24643767     A.U. after    3 cycles

 Alpha  occ. eigenvalues --  -19.24982 -19.24308 -19.22391 -19.21050 -19.21007
 Alpha  occ. eigenvalues --  -19.16873 -19.16485 -14.64272 -14.51983 -14.46315
 Alpha  occ. eigenvalues --  -14.45011 -10.42164 -10.39611 -10.39079 -10.37961
 Alpha  occ. eigenvalues --  -10.34971 -10.34954 -10.34266 -10.33602 -10.32890
 Alpha  occ. eigenvalues --  -10.32697 -10.31757 -10.31581 -10.29253 -10.26272
 Alpha  occ. eigenvalues --  -10.26005 -10.25878 -10.25808 -10.25763 -10.25652
 Alpha  occ. eigenvalues --  -10.25116  -1.18228  -1.16734  -1.14355  -1.12920
 Alpha  occ. eigenvalues --   -1.12366  -1.10282  -1.08013  -1.06981  -1.02527
 Alpha  occ. eigenvalues --   -1.02112  -1.01250  -0.96178  -0.92242  -0.90634
 Alpha  occ. eigenvalues --   -0.89060  -0.86407  -0.84230  -0.81424  -0.81133
 Alpha  occ. eigenvalues --   -0.79100  -0.77901  -0.76850  -0.75884  -0.73593
 Alpha  occ. eigenvalues --   -0.73114  -0.72113  -0.69453  -0.68763  -0.68047
 Alpha  occ. eigenvalues --   -0.67153  -0.66478  -0.66354  -0.65500  -0.64724
 Alpha  occ. eigenvalues --   -0.62856  -0.61855  -0.61016  -0.59723  -0.59480
 Alpha  occ. eigenvalues --   -0.59075  -0.58305  -0.57785  -0.56873  -0.56104
 Alpha  occ. eigenvalues --   -0.55040  -0.54629  -0.54544  -0.54121  -0.53514
 Alpha  occ. eigenvalues --   -0.52806  -0.51727  -0.51372  -0.50892  -0.50460
 Alpha  occ. eigenvalues --   -0.50184  -0.50062  -0.49434  -0.48762  -0.48676
 Alpha  occ. eigenvalues --   -0.48352  -0.47872  -0.47580  -0.47303  -0.47059
 Alpha  occ. eigenvalues --   -0.46266  -0.45911  -0.45308  -0.44941  -0.44577
 Alpha  occ. eigenvalues --   -0.43399  -0.43045  -0.42066  -0.41738  -0.40249
 Alpha  occ. eigenvalues --   -0.39355  -0.38451  -0.37535  -0.37074  -0.35267
 Alpha  occ. eigenvalues --   -0.33881  -0.33220  -0.32750  -0.31869  -0.30983
 Alpha  occ. eigenvalues --   -0.30674  -0.28470
 Alpha virt. eigenvalues --   -0.14462  -0.10452  -0.08177  -0.07809  -0.07237
 Alpha virt. eigenvalues --   -0.06512  -0.06061  -0.05754  -0.05610  -0.03669
 Alpha virt. eigenvalues --   -0.03361  -0.03125  -0.02714  -0.02076  -0.01309

 Mulliken charges:
               1
     1  N   -0.749748
     2  H    0.453046
     3  H    0.390623
     4  H    0.403802
     5  C   -0.137486
     6  H    0.237948
     7  C    0.608439
     8  C   -0.305608
     9  H    0.175118
    10  H    0.174897
    11  O   -0.481796
    12  C   -0.357157
    13  H    0.181712
    14  H    0.149931
    15  C    0.598375
    16  O   -0.576789
    17  O   -0.597760
    18  N   -0.583731
    19  H    0.332345
    20  C   -0.070195
    21  H    0.147976
    22  C    0.649307
    23  C   -0.354507
    24  H    0.200782
    25  H    0.172227
    26  O   -0.545461
    27  C    0.140774
    28  C   -0.197784
    29  H    0.133227
    30  C   -0.189212
    31  H    0.149960
    32  C   -0.158836
    33  H    0.151287
    34  C   -0.197684
    35  H    0.124896
    36  O   -0.636833
    37  H    0.411091
    38  C    0.349878
    39  N   -0.617051
    40  H    0.337557
    41  C    0.000856
    42  H    0.192791
    43  C    0.611678
    44  C   -0.314010
    45  H    0.175750
    46  H    0.163741
    47  O   -0.510470
    48  C   -0.322096
    49  H    0.159116
    50  H    0.171837
    51  C   -0.285768
    52  H    0.179756
    53  H    0.203351
    54  C   -0.207580
    55  H    0.227021
    56  H    0.232737
    57  N   -0.739306
    58  H    0.431260
    59  H    0.425577
    60  H    0.448469
    61  O   -0.631046
    62  H    0.468776
 Sum of Mulliken charges =   1.00000

 Dipole moment (field-independent basis, Debye):
    X=             22.1574    Y=             15.0437    Z=              1.4012  Tot=             26.8184
 Quadrupole moment (field-independent basis, Debye-Ang):
   XX=              6.9448   YY=           -106.6515   ZZ=           -180.3503
   XY=             99.8610   XZ=              8.3024   YZ=             15.9745

 Normal termination of Gaussian 16 at Wed Jun  1 23:38:18 2022.
