 Gaussian 16, Revision C.01,
 Gaussian 16:  ES64L-G16RevC.01  3-Jul-2019

 ----------------------------------------------------------------------
 # B3LYP/6-31G* empiricaldispersion=gd3 guess=read geom=check nosymm in
 tegral(ultrafinegrid)
 ----------------------------------------------------------------------

 ------------------------------------------------------
 Candidate Structure: Conf:446 Charge calc in gas phase
 ------------------------------------------------------
 Structure from the checkpoint file:  "conf-446.chk"
 Charge =  1 Multiplicity = 1

                          Input orientation:
 ---------------------------------------------------------------------
 Center     Atomic      Atomic             Coordinates (Angstroms)
 Number     Number       Type             X           Y           Z
 ---------------------------------------------------------------------
      1          7           0       -0.277162   -2.617063    2.928827
      2          1           0        0.662042   -2.766120    2.558596
      3          1           0       -0.407271   -2.021016    4.679878
      4          1           0       -0.834030   -3.399958    2.584721
      5          6           0       -0.796771   -1.360035    2.374079
      6          1           0       -0.265402   -0.550045    2.893114
      7          6           0       -0.402407   -1.192510    0.898804
      8          6           0       -2.301405   -1.212418    2.672478
      9          1           0       -2.880199   -1.842477    1.984973
     10          1           0       -2.598856   -0.172133    2.491103
     11          8           0        0.542805   -1.814357    0.423883
     12          6           0       -2.681672   -1.570007    4.126869
     13          1           0       -2.579987   -2.649162    4.284199
     14          1           0       -3.725363   -1.300073    4.300724
     15          6           0       -1.833384   -0.815446    5.154542
     16          8           0       -2.229259    0.161841    5.745337
     17          8           0       -0.583656   -1.292103    5.334471
     18          7           0       -1.058994   -0.221955    0.184140
     19          1           0       -1.986063    0.033664    0.496038
     20          6           0       -0.809260   -0.090087   -1.255386
     21          1           0       -1.401867    0.774745   -1.578305
     22          6           0        0.674123    0.243159   -1.503718
     23          6           0       -1.239183   -1.332491   -2.078265
     24          1           0       -1.254664   -1.043781   -3.133929
     25          1           0       -0.467158   -2.096126   -1.969251
     26          8           0        1.272716   -0.149930   -2.494237
     27          6           0       -2.577955   -1.858757   -1.619156
     28          6           0       -2.649608   -2.967330   -0.761790
     29          1           0       -1.732435   -3.484205   -0.489393
     30          6           0       -3.774151   -1.215271   -1.957449
     31          1           0       -3.753525   -0.358909   -2.628840
     32          6           0       -3.865376   -3.419580   -0.255570
     33          1           0       -3.922259   -4.287586    0.393859
     34          6           0       -5.001166   -1.652033   -1.457436
     35          1           0       -5.919748   -1.140943   -1.738852
     36          8           0       -6.209886   -3.241194   -0.070341
     37          1           0       -6.962538   -2.731221   -0.408377
     38          6           0       -5.050677   -2.757988   -0.600171
     39          7           0        1.255715    1.049580   -0.551903
     40          1           0        0.710188    1.168033    0.293108
     41          6           0        2.700124    0.995105   -0.368490
     42          1           0        3.050424    0.043816   -0.794748
     43          6           0        3.096639    0.963343    1.109733
     44          6           0        3.461910    2.138745   -1.065478
     45          1           0        3.126220    3.088808   -0.626403
     46          1           0        4.522528    2.024757   -0.812481
     47          8           0        4.218518    1.187729    1.499759
     48          6           0        3.271365    2.141099   -2.587272
     49          1           0        2.243064    2.422474   -2.840458
     50          1           0        3.396062    1.127938   -2.977897
     51          6           0        4.264871    3.059826   -3.322724
     52          1           0        5.291597    2.726657   -3.114122
     53          1           0        4.103075    2.971890   -4.405977
     54          6           0        4.115359    4.517346   -2.906572
     55          1           0        3.119850    4.913749   -3.122374
     56          1           0        4.346167    4.683489   -1.852592
     57          7           0        5.099369    5.395081   -3.690067
     58          1           0        5.027948    6.388256   -3.436567
     59          1           0        4.935019    5.316246   -4.701462
     60          1           0        6.067829    5.096901   -3.518210
     61          8           0        2.071382    0.652784    1.937092
     62          1           0        2.428054    0.644852    2.846622
 ---------------------------------------------------------------------

 SCF Done:  E(RB3LYP) =  -1526.26066180     A.U. after    1 cycles

 Alpha  occ. eigenvalues --  -19.29803 -19.24248 -19.23628 -19.21711 -19.20759
 Alpha  occ. eigenvalues --  -19.20580 -19.16787 -14.65814 -14.45036 -14.44433
 Alpha  occ. eigenvalues --  -14.41295 -10.42604 -10.42027 -10.37586 -10.37289
 Alpha  occ. eigenvalues --  -10.35478 -10.35041 -10.33857 -10.32306 -10.31727
 Alpha  occ. eigenvalues --  -10.30957 -10.30769 -10.30106 -10.27595 -10.26174
 Alpha  occ. eigenvalues --  -10.25984 -10.25940 -10.25882 -10.25850 -10.25825
 Alpha  occ. eigenvalues --  -10.25307  -1.20451  -1.19653  -1.13106  -1.12745
 Alpha  occ. eigenvalues --   -1.12374  -1.12097  -1.11454  -1.04766  -1.02289
 Alpha  occ. eigenvalues --   -1.00786  -0.98073  -0.96164  -0.92182  -0.89524
 Alpha  occ. eigenvalues --   -0.86784  -0.85299  -0.84544  -0.81616  -0.81061
 Alpha  occ. eigenvalues --   -0.79790  -0.78247  -0.77500  -0.76891  -0.73186
 Alpha  occ. eigenvalues --   -0.71857  -0.70624  -0.69296  -0.69062  -0.67803
 Alpha  occ. eigenvalues --   -0.67359  -0.66335  -0.64900  -0.64027  -0.63032
 Alpha  occ. eigenvalues --   -0.62049  -0.61471  -0.61045  -0.58905  -0.58670
 Alpha  occ. eigenvalues --   -0.57929  -0.57494  -0.56890  -0.56298  -0.55308
 Alpha  occ. eigenvalues --   -0.54910  -0.54357  -0.53534  -0.53025  -0.52575
 Alpha  occ. eigenvalues --   -0.52400  -0.51806  -0.51227  -0.50603  -0.50412
 Alpha  occ. eigenvalues --   -0.49783  -0.49647  -0.49010  -0.48684  -0.48206
 Alpha  occ. eigenvalues --   -0.47996  -0.47507  -0.46842  -0.46542  -0.46163
 Alpha  occ. eigenvalues --   -0.45726  -0.45351  -0.44549  -0.44212  -0.43199
 Alpha  occ. eigenvalues --   -0.43081  -0.42200  -0.41650  -0.41524  -0.40367
 Alpha  occ. eigenvalues --   -0.40087  -0.39390  -0.37745  -0.36094  -0.35399
 Alpha  occ. eigenvalues --   -0.34664  -0.34464  -0.33860  -0.33124  -0.32131
 Alpha  occ. eigenvalues --   -0.30369  -0.28472
 Alpha virt. eigenvalues --   -0.16149  -0.09524  -0.09434  -0.08985  -0.08103
 Alpha virt. eigenvalues --   -0.07514  -0.06966  -0.06292  -0.05449  -0.03469
 Alpha virt. eigenvalues --   -0.03099  -0.02646  -0.02169  -0.00615  -0.00180

 Mulliken charges:
               1
     1  N   -0.754529
     2  H    0.340787
     3  H    0.446116
     4  H    0.323164
     5  C   -0.086577
     6  H    0.187135
     7  C    0.625340
     8  C   -0.320557
     9  H    0.174797
    10  H    0.156221
    11  O   -0.530124
    12  C   -0.361607
    13  H    0.164296
    14  H    0.184683
    15  C    0.577403
    16  O   -0.450507
    17  O   -0.597725
    18  N   -0.640051
    19  H    0.350216
    20  C   -0.055530
    21  H    0.168497
    22  C    0.632437
    23  C   -0.356591
    24  H    0.165769
    25  H    0.192855
    26  O   -0.521434
    27  C    0.159885
    28  C   -0.208623
    29  H    0.144730
    30  C   -0.199586
    31  H    0.128094
    32  C   -0.166634
    33  H    0.150755
    34  C   -0.190666
    35  H    0.132776
    36  O   -0.632746
    37  H    0.414915
    38  C    0.353262
    39  N   -0.616398
    40  H    0.359070
    41  C   -0.052983
    42  H    0.218539
    43  C    0.597436
    44  C   -0.273483
    45  H    0.134124
    46  H    0.170689
    47  O   -0.450489
    48  C   -0.270361
    49  H    0.167259
    50  H    0.206916
    51  C   -0.300670
    52  H    0.169976
    53  H    0.170185
    54  C   -0.205591
    55  H    0.227817
    56  H    0.234327
    57  N   -0.731503
    58  H    0.432177
    59  H    0.427647
    60  H    0.428917
    61  O   -0.579095
    62  H    0.434844
 Sum of Mulliken charges =   1.00000

 Dipole moment (field-independent basis, Debye):
    X=             15.9614    Y=             21.0478    Z=            -18.2575  Tot=             32.1110
 Quadrupole moment (field-independent basis, Debye-Ang):
   XX=            -50.4203   YY=            -51.2468   ZZ=           -158.1441
   XY=            118.4217   XZ=            -65.2058   YZ=            -97.0050

 Normal termination of Gaussian 16 at Wed Jun  1 23:37:47 2022.
