 Gaussian 16, Revision C.01,
 Gaussian 16:  ES64L-G16RevC.01  3-Jul-2019

 ----------------------------------------------------------------------
 # B3LYP/6-31G* empiricaldispersion=gd3bj guess=read geom=check nosymm
 integral(ultrafinegrid)
 ----------------------------------------------------------------------

 ------------------------------------------------------
 Candidate Structure: Conf:879 Charge calc in gas phase
 ------------------------------------------------------
 Structure from the checkpoint file:  "conf-879.chk"
 Charge =  1 Multiplicity = 1

                          Input orientation:
 ---------------------------------------------------------------------
 Center     Atomic      Atomic             Coordinates (Angstroms)
 Number     Number       Type             X           Y           Z
 ---------------------------------------------------------------------
      1          7           0       -8.088093   -1.520213   -4.061827
      2          1           0       -8.730119   -1.312369   -3.292765
      3          1           0       -8.525733   -2.214509   -4.673858
      4          1           0       -7.868126   -0.621561   -4.606153
      5          6           0       -6.701643   -1.926371   -3.601695
      6          1           0       -6.711333   -1.966563   -2.509966
      7          6           0       -5.829271   -0.737286   -4.093004
      8          6           0       -6.290512   -3.268216   -4.201204
      9          1           0       -5.278991   -3.524721   -3.875875
     10          1           0       -6.957042   -4.070995   -3.871085
     11          1           0       -6.285528   -3.224018   -5.295559
     12          8           0       -6.390061    0.141738   -4.769974
     13          7           0       -4.550955   -0.766334   -3.761684
     14          1           0       -4.125751   -1.529734   -3.231076
     15          6           0       -3.570472    0.237658   -4.160902
     16          1           0       -3.710806    0.473390   -5.219517
     17          6           0       -2.208193   -0.447909   -3.942980
     18          6           0       -3.731385    1.556877   -3.330197
     19          1           0       -4.732821    1.941509   -3.553536
     20          1           0       -3.701323    1.300476   -2.266748
     21          8           0       -2.144095   -1.476879   -3.250466
     22          6           0       -2.651962    2.532916   -3.668804
     23          6           0       -1.522722    2.774722   -2.922434
     24          1           0       -1.285646    2.460819   -1.916737
     25          6           0       -2.404250    3.092711   -4.978849
     26          6           0       -1.089112    3.641008   -4.949748
     27          6           0       -3.136576    3.132866   -6.180390
     28          1           0       -4.149895    2.740600   -6.225161
     29          7           0       -0.592631    3.465400   -3.670021
     30          1           0        0.399120    3.434978   -3.459483
     31          6           0       -1.237092    4.217917   -7.256617
     32          1           0       -0.801624    4.641316   -8.156420
     33          6           0       -0.491630    4.200672   -6.083873
     34          1           0        0.523309    4.581648   -6.048444
     35          6           0       -2.547130    3.696580   -7.304283
     36          1           0       -3.100187    3.738127   -8.237674
     37          7           0       -1.160697    0.153290   -4.519880
     38          1           0       -1.344341    1.034070   -4.991217
     39          6           0        0.252893   -0.106566   -4.204018
     40          1           0        0.414933   -1.188595   -4.252901
     41          6           0        0.565298    0.365677   -2.764856
     42          6           0        1.090158    0.610953   -5.273813
     43          1           0        0.906541    0.087565   -6.217716
     44          1           0        0.715113    1.629658   -5.399501
     45          8           0        1.194148    1.407662   -2.537794
     46          6           0        2.598327    0.677806   -4.997291
     47          1           0        2.942643   -0.150377   -4.369909
     48          1           0        3.142550    0.585693   -5.945698
     49          6           0        3.114074    1.953856   -4.350109
     50          8           0        2.407784    3.051620   -4.582468
     51          8           0        4.167421    1.964661   -3.722131
     52          7           0        0.105444   -0.430792   -1.785228
     53          1           0       -0.436498   -1.245714   -2.050196
     54          6           0        0.203330   -0.090472   -0.361943
     55          1           0        0.160496    1.004823   -0.304389
     56          6           0        1.574132   -0.472508    0.252287
     57          6           0       -0.967434   -0.683276    0.437912
     58          1           0       -0.733662   -0.450328    1.481200
     59          8           0        1.663462   -1.026049    1.344619
     60          6           0       -2.294919   -0.014379    0.061932
     61          1           0       -2.576223   -0.259114   -0.968412
     62          1           0       -3.099169   -0.363015    0.719529
     63          1           0       -2.238430    1.077278    0.154717
     64          6           0       -1.062418   -2.211356    0.321673
     65          1           0       -1.357846   -2.532266   -0.686190
     66          1           0       -0.110317   -2.678310    0.582334
     67          1           0       -1.824525   -2.590844    1.011101
     68          7           0        2.639162   -0.103235   -0.488743
     69          1           0        2.497170    0.482175   -1.302901
     70          6           0        3.978626   -0.162069    0.051726
     71          1           0        4.222889   -1.199728    0.306628
     72          6           0        4.054256    0.734671    1.297935
     73          6           0        4.966954    0.362613   -1.017918
     74          1           0        4.779975    1.441208   -1.116277
     75          8           0        3.435066    1.795377    1.356278
     76          6           0        6.424838    0.139773   -0.627053
     77          1           0        6.700218    0.696650    0.273564
     78          1           0        6.616468   -0.929833   -0.477058
     79          1           0        7.068077    0.478087   -1.445302
     80          8           0        4.666334   -0.284192   -2.249410
     81          1           0        4.690028    0.416476   -2.932090
     82          7           0        4.873575    0.316171    2.293850
     83          1           0        5.475908   -0.476800    2.121344
     84          6           0        5.234387    1.220771    3.374413
     85          1           0        4.309385    1.530981    3.874478
     86          6           0        5.936815    2.451957    2.776822
     87          6           0        6.150970    0.504945    4.387283
     88          1           0        7.032221    0.163822    3.824878
     89          8           0        6.836993    2.333875    1.948794
     90          6           0        6.630273    1.468996    5.479679
     91          1           0        5.781562    1.897973    6.027045
     92          1           0        7.218909    2.295122    5.070852
     93          1           0        7.255799    0.936640    6.203181
     94          6           0        5.443020   -0.706806    5.006871
     95          1           0        4.572022   -0.385436    5.590792
     96          1           0        6.121003   -1.240184    5.681464
     97          1           0        5.088523   -1.415424    4.252185
     98          7           0        5.510313    3.650168    3.242890
     99          1           0        4.791829    3.699072    3.952327
    100          6           0        6.088231    4.901570    2.802075
    101          1           0        7.090190    4.682979    2.422732
    102          6           0        6.183318    5.825191    4.003221
    103          6           0        5.262847    5.583359    1.682334
    104          1           0        5.798742    6.487526    1.369542
    105          1           0        4.301802    5.909675    2.104016
    106          8           0        5.582475    5.666647    5.043970
    107          6           0        5.008109    4.656663    0.491353
    108          1           0        5.963520    4.280227    0.105628
    109          1           0        4.446138    3.781805    0.832124
    110          6           0        4.229166    5.344271   -0.635241
    111          1           0        3.323272    5.817479   -0.226918
    112          1           0        4.832059    6.153336   -1.074309
    113          6           0        3.831877    4.349869   -1.726210
    114          1           0        3.159658    3.586960   -1.318623
    115          1           0        4.704992    3.815884   -2.108495
    116          7           0        3.159221    4.959983   -2.901714
    117          1           0        2.781214    3.822608   -3.984855
    118          1           0        2.339668    5.485266   -2.592741
    119          1           0        3.781872    5.648394   -3.326591
    120          8           0        6.981411    6.884099    3.758758
    121          1           0        6.955276    7.444759    4.557523
 ---------------------------------------------------------------------

 SCF Done:  E(RB3LYP) =  -2843.95660505     A.U. after    1 cycles

 Alpha  occ. eigenvalues --  -19.28261 -19.25088 -19.23719 -19.22801 -19.20340
 Alpha  occ. eigenvalues --  -19.19446 -19.19090 -19.16629 -19.16042 -19.15889
 Alpha  occ. eigenvalues --  -19.15755 -14.61116 -14.50679 -14.46804 -14.44711
 Alpha  occ. eigenvalues --  -14.44150 -14.41530 -14.40581 -14.40506 -14.39476
 Alpha  occ. eigenvalues --  -10.44829 -10.42469 -10.40282 -10.37679 -10.37346
 Alpha  occ. eigenvalues --  -10.37286 -10.35439 -10.34980 -10.33078 -10.32883
 Alpha  occ. eigenvalues --  -10.32877 -10.32763 -10.29763 -10.29632 -10.29584
 Alpha  occ. eigenvalues --  -10.29405 -10.28560 -10.27674 -10.27651 -10.27166
 Alpha  occ. eigenvalues --  -10.27008 -10.26630 -10.26501 -10.26463 -10.26420
 Alpha  occ. eigenvalues --  -10.26357 -10.26083 -10.25802 -10.25734 -10.25591
 Alpha  occ. eigenvalues --  -10.24905 -10.24428 -10.23881 -10.23606 -10.23507
 Alpha  occ. eigenvalues --  -10.22086 -10.21895 -10.21855 -10.20208  -1.20691
 Alpha  occ. eigenvalues --   -1.16036  -1.15518  -1.14866  -1.14712  -1.12242
 Alpha  occ. eigenvalues --   -1.08714  -1.07954  -1.07464  -1.07187  -1.06906
 Alpha  occ. eigenvalues --   -1.05942  -1.05296  -1.04401  -1.03618  -1.00615
 Alpha  occ. eigenvalues --   -0.97380  -0.97100  -0.96742  -0.96350  -0.94760
 Alpha  occ. eigenvalues --   -0.91559  -0.90556  -0.88158  -0.87038  -0.85827
 Alpha  occ. eigenvalues --   -0.85590  -0.84748  -0.82603  -0.82029  -0.81230
 Alpha  occ. eigenvalues --   -0.81212  -0.80868  -0.79879  -0.77848  -0.77029
 Alpha  occ. eigenvalues --   -0.75983  -0.75386  -0.75237  -0.74589  -0.73840
 Alpha  occ. eigenvalues --   -0.73259  -0.72750  -0.72249  -0.71583  -0.69974
 Alpha  occ. eigenvalues --   -0.69537  -0.68214  -0.67480  -0.67165  -0.66768
 Alpha  occ. eigenvalues --   -0.66605  -0.65068  -0.64951  -0.64845  -0.64380
 Alpha  occ. eigenvalues --   -0.63936  -0.63756  -0.63433  -0.62921  -0.62744
 Alpha  occ. eigenvalues --   -0.61490  -0.61120  -0.60903  -0.60676  -0.59234
 Alpha  occ. eigenvalues --   -0.58589  -0.58194  -0.58091  -0.57837  -0.57136
 Alpha  occ. eigenvalues --   -0.56867  -0.56449  -0.56136  -0.55770  -0.55332
 Alpha  occ. eigenvalues --   -0.54992  -0.54731  -0.54478  -0.54420  -0.54260
 Alpha  occ. eigenvalues --   -0.53759  -0.53148  -0.52911  -0.52809  -0.52620
 Alpha  occ. eigenvalues --   -0.52409  -0.51758  -0.51566  -0.51278  -0.51160
 Alpha  occ. eigenvalues --   -0.51061  -0.50837  -0.50489  -0.50231  -0.49972
 Alpha  occ. eigenvalues --   -0.49750  -0.49415  -0.49230  -0.48794  -0.48653
 Alpha  occ. eigenvalues --   -0.48456  -0.47988  -0.47681  -0.47568  -0.47336
 Alpha  occ. eigenvalues --   -0.47036  -0.47014  -0.46260  -0.45939  -0.45760
 Alpha  occ. eigenvalues --   -0.45670  -0.45502  -0.45120  -0.44902  -0.44475
 Alpha  occ. eigenvalues --   -0.44349  -0.43968  -0.43428  -0.43370  -0.43105
 Alpha  occ. eigenvalues --   -0.43058  -0.42891  -0.42831  -0.42709  -0.42471
 Alpha  occ. eigenvalues --   -0.42265  -0.41884  -0.41698  -0.41355  -0.40912
 Alpha  occ. eigenvalues --   -0.40643  -0.40634  -0.40362  -0.40319  -0.39952
 Alpha  occ. eigenvalues --   -0.39871  -0.39277  -0.39151  -0.38764  -0.38381
 Alpha  occ. eigenvalues --   -0.38267  -0.38193  -0.37656  -0.37589  -0.37457
 Alpha  occ. eigenvalues --   -0.36864  -0.36453  -0.35646  -0.35092  -0.34753
 Alpha  occ. eigenvalues --   -0.33848  -0.33494  -0.32817  -0.32437  -0.31127
 Alpha  occ. eigenvalues --   -0.31054  -0.30128  -0.29987  -0.29717  -0.29080
 Alpha  occ. eigenvalues --   -0.28780  -0.28622  -0.28086
 Alpha virt. eigenvalues --   -0.13549  -0.12252  -0.09901  -0.08898  -0.07413
 Alpha virt. eigenvalues --   -0.07007  -0.05830  -0.05231  -0.04301  -0.04032
 Alpha virt. eigenvalues --   -0.03275  -0.02745  -0.02508  -0.02320  -0.01974

 Mulliken charges:
               1
     1  N   -0.758753
     2  H    0.419260
     3  H    0.416255
     4  H    0.438773
     5  C   -0.106144
     6  H    0.228363
     7  C    0.655010
     8  C   -0.484266
     9  H    0.220382
    10  H    0.199087
    11  H    0.197375
    12  O   -0.542614
    13  N   -0.608333
    14  H    0.377328
    15  C   -0.068647
    16  H    0.202440
    17  C    0.638880
    18  C   -0.354298
    19  H    0.179663
    20  H    0.170779
    21  O   -0.571389
    22  C    0.026843
    23  C   -0.001411
    24  H    0.172563
    25  C    0.033616
    26  C    0.274731
    27  C   -0.221604
    28  H    0.130590
    29  N   -0.659279
    30  H    0.377254
    31  C   -0.151012
    32  H    0.144840
    33  C   -0.164168
    34  H    0.154578
    35  C   -0.136796
    36  H    0.137454
    37  N   -0.607287
    38  H    0.379159
    39  C   -0.059470
    40  H    0.188047
    41  C    0.646809
    42  C   -0.310696
    43  H    0.160171
    44  H    0.194508
    45  O   -0.577455
    46  C   -0.383583
    47  H    0.191925
    48  H    0.188806
    49  C    0.657125
    50  O   -0.633542
    51  O   -0.520493
    52  N   -0.610034
    53  H    0.380173
    54  C   -0.080762
    55  H    0.183741
    56  C    0.649551
    57  C   -0.089675
    58  H    0.177605
    59  O   -0.537253
    60  C   -0.472401
    61  H    0.130740
    62  H    0.146957
    63  H    0.145576
    64  C   -0.478655
    65  H    0.131752
    66  H    0.191586
    67  H    0.147021
    68  N   -0.621700
    69  H    0.373705
    70  C   -0.026103
    71  H    0.156005
    72  C    0.657132
    73  C    0.088277
    74  H    0.146450
    75  O   -0.556660
    76  C   -0.490250
    77  H    0.192972
    78  H    0.137522
    79  H    0.152694
    80  O   -0.675058
    81  H    0.435162
    82  N   -0.602126
    83  H    0.337231
    84  C   -0.011119
    85  H    0.154232
    86  C    0.640629
    87  C   -0.116016
    88  H    0.147218
    89  O   -0.544273
    90  C   -0.460859
    91  H    0.146770
    92  H    0.164103
    93  H    0.156515
    94  C   -0.446074
    95  H    0.150265
    96  H    0.154175
    97  H    0.152107
    98  N   -0.589727
    99  H    0.345998
   100  C   -0.049334
   101  H    0.203051
   102  C    0.584129
   103  C   -0.265507
   104  H    0.156789
   105  H    0.138149
   106  O   -0.468009
   107  C   -0.300543
   108  H    0.155444
   109  H    0.205984
   110  C   -0.265654
   111  H    0.125444
   112  H    0.127783
   113  C   -0.157714
   114  H    0.179442
   115  H    0.189050
   116  N   -0.792443
   117  H    0.475905
   118  H    0.323237
   119  H    0.332003
   120  O   -0.562486
   121  H    0.418788
 Sum of Mulliken charges =   1.00000

 Dipole moment (field-independent basis, Debye):
    X=            -25.8485    Y=             -1.1002    Z=            -17.4247  Tot=             31.1925
 Quadrupole moment (field-independent basis, Debye-Ang):
   XX=           -105.3024   YY=           -283.2158   ZZ=           -250.4058
   XY=             90.2943   XZ=            120.7076   YZ=             24.3702

 Normal termination of Gaussian 16 at Sun Jul 10 13:39:29 2022.
