 Gaussian 16, Revision C.01,
 Gaussian 16:  ES64L-G16RevC.01  3-Jul-2019

 ----------------------------------------------------------------------
 # B3LYP/6-31G* empiricaldispersion=gd3bj guess=read geom=check nosymm
 integral(ultrafinegrid)
 ----------------------------------------------------------------------

 ------------------------------------------------------
 Candidate Structure: Conf:102 Charge calc in gas phase
 ------------------------------------------------------
 Structure from the checkpoint file:  "conf-102.chk"
 Charge =  1 Multiplicity = 1

                          Input orientation:
 ---------------------------------------------------------------------
 Center     Atomic      Atomic             Coordinates (Angstroms)
 Number     Number       Type             X           Y           Z
 ---------------------------------------------------------------------
      1          7           0       -3.399452   -2.992589   -6.773393
      2          1           0       -2.690302   -2.243085   -7.052166
      3          1           0       -3.789327   -3.467125   -7.590701
      4          1           0       -2.928626   -3.685624   -6.183389
      5          6           0       -4.410753   -2.178807   -5.987857
      6          1           0       -5.299596   -2.080686   -6.617066
      7          6           0       -3.688131   -0.812015   -5.855895
      8          6           0       -4.737562   -2.828405   -4.647275
      9          1           0       -5.557770   -2.288716   -4.164587
     10          1           0       -5.065666   -3.864310   -4.779312
     11          1           0       -3.870760   -2.785662   -3.980146
     12          8           0       -2.630448   -0.656021   -6.481526
     13          7           0       -4.244816    0.091033   -5.055641
     14          1           0       -5.109279   -0.130130   -4.572503
     15          6           0       -3.461958    1.205507   -4.539613
     16          1           0       -3.189053    1.859277   -5.373448
     17          6           0       -2.201812    0.630223   -3.860017
     18          6           0       -4.278077    2.001183   -3.471485
     19          1           0       -4.121129    1.527456   -2.495619
     20          1           0       -3.844031    3.002782   -3.402219
     21          8           0       -2.172080   -0.540980   -3.468557
     22          6           0       -5.745119    2.066364   -3.758451
     23          6           0       -6.439945    3.023143   -4.459074
     24          1           0       -6.094129    3.953646   -4.887518
     25          6           0       -6.698862    1.040563   -3.408131
     26          6           0       -7.957041    1.436050   -3.942555
     27          6           0       -6.606360   -0.174209   -2.699975
     28          1           0       -5.670764   -0.476353   -2.236033
     29          7           0       -7.763039    2.648101   -4.573539
     30          1           0       -8.488918    3.209847   -4.992373
     31          6           0       -8.982394   -0.546698   -3.103795
     32          1           0       -9.858014   -1.173658   -2.968663
     33          6           0       -9.105757    0.653658   -3.794716
     34          1           0      -10.061553    0.970199   -4.201459
     35          6           0       -7.748085   -0.956419   -2.559122
     36          1           0       -7.697175   -1.884400   -1.997306
     37          7           0       -1.205668    1.510602   -3.657427
     38          1           0       -1.313109    2.470354   -3.960897
     39          6           0       -0.031435    1.189409   -2.835663
     40          1           0        0.221330    0.148152   -3.058024
     41          6           0       -0.407665    1.298472   -1.341732
     42          6           0        1.146573    2.094488   -3.164060
     43          1           0        0.870692    3.141043   -3.001339
     44          1           0        1.934644    1.881867   -2.434971
     45          8           0       -0.063239    2.262150   -0.653673
     46          6           0        1.702792    1.902313   -4.583464
     47          1           0        1.902582    0.846906   -4.788099
     48          1           0        0.997446    2.276641   -5.334745
     49          6           0        3.016842    2.659554   -4.681062
     50          8           0        4.100964    2.111262   -4.776512
     51          8           0        2.835924    3.972596   -4.558160
     52          7           0       -1.131667    0.259180   -0.872663
     53          1           0       -1.326932   -0.502556   -1.513753
     54          6           0       -1.411686    0.057693    0.554118
     55          1           0       -1.670796    1.034273    0.975760
     56          6           0       -0.080306   -0.458795    1.149788
     57          6           0       -2.563388   -0.931595    0.755413
     58          1           0       -2.204482   -1.907962    0.404943
     59          8           0        0.205708   -1.652437    1.148188
     60          6           0       -2.882129   -1.055854    2.249773
     61          1           0       -3.214494   -0.095283    2.662780
     62          1           0       -3.683029   -1.784469    2.412444
     63          1           0       -2.005617   -1.390564    2.811381
     64          6           0       -3.805969   -0.528514   -0.049598
     65          1           0       -4.152731    0.473597    0.233194
     66          1           0       -3.607840   -0.527604   -1.127212
     67          1           0       -4.626836   -1.228243    0.143649
     68          7           0        0.757621    0.534970    1.522398
     69          1           0        0.430910    1.494206    1.541020
     70          6           0        2.174949    0.368598    1.754142
     71          1           0        2.353125   -0.628057    2.168606
     72          6           0        2.612788    1.472130    2.721789
     73          6           0        2.997698    0.535433    0.435202
     74          1           0        4.058651    0.457169    0.694707
     75          8           0        1.918246    2.461474    2.922604
     76          6           0        2.670913   -0.529153   -0.610228
     77          1           0        2.850471   -1.536159   -0.221680
     78          1           0        1.621628   -0.482444   -0.914807
     79          1           0        3.298782   -0.367437   -1.492041
     80          8           0        2.856091    1.854917   -0.082834
     81          1           0        1.905780    2.058713   -0.179498
     82          7           0        3.845034    1.278436    3.269932
     83          1           0        4.410608    0.535242    2.869860
     84          6           0        4.658425    2.415327    3.670368
     85          1           0        4.072038    3.316694    3.464268
     86          6           0        5.901704    2.390482    2.769558
     87          6           0        5.030296    2.397341    5.173743
     88          1           0        5.647793    3.289187    5.355475
     89          8           0        6.212405    1.385230    2.129349
     90          6           0        3.761825    2.502702    6.025573
     91          1           0        3.121073    1.629205    5.866394
     92          1           0        3.178081    3.393002    5.768713
     93          1           0        4.015815    2.549838    7.089905
     94          6           0        5.856221    1.160002    5.541297
     95          1           0        5.278681    0.245576    5.364644
     96          1           0        6.126945    1.182804    6.601836
     97          1           0        6.780504    1.094518    4.957465
     98          7           0        6.625483    3.535021    2.744289
     99          1           0        6.347568    4.313068    3.325593
    100          6           0        7.849861    3.651448    1.973259
    101          1           0        8.152819    2.629795    1.726041
    102          6           0        8.983355    4.277045    2.772431
    103          6           0        7.655531    4.438845    0.660206
    104          1           0        8.624229    4.466433    0.149314
    105          1           0        7.396168    5.479166    0.903059
    106          8           0       10.114177    4.383615    2.360931
    107          6           0        6.580417    3.841654   -0.251903
    108          1           0        6.803508    2.785889   -0.449210
    109          1           0        5.609432    3.854064    0.258700
    110          6           0        6.474743    4.611233   -1.573147
    111          1           0        6.383952    5.687704   -1.361136
    112          1           0        7.403687    4.488479   -2.148137
    113          6           0        5.283705    4.177346   -2.428245
    114          1           0        4.349366    4.330788   -1.875552
    115          1           0        5.331977    3.110992   -2.666696
    116          7           0        5.169492    4.896782   -3.716596
    117          1           0        3.754875    4.404818   -4.369853
    118          1           0        5.254346    5.902701   -3.570277
    119          1           0        5.930517    4.620764   -4.335715
    120          8           0        8.586767    4.747001    3.981309
    121          1           0        9.377865    5.145900    4.391361
 ---------------------------------------------------------------------

 SCF Done:  E(RB3LYP) =  -2843.93420597     A.U. after    2 cycles

 Alpha  occ. eigenvalues --  -19.27299 -19.25622 -19.22871 -19.20245 -19.19861
 Alpha  occ. eigenvalues --  -19.19314 -19.18848 -19.17522 -19.16877 -19.16780
 Alpha  occ. eigenvalues --  -19.16521 -14.60166 -14.49626 -14.47811 -14.47190
 Alpha  occ. eigenvalues --  -14.43949 -14.42087 -14.40966 -14.40340 -14.39648
 Alpha  occ. eigenvalues --  -10.43795 -10.41321 -10.39838 -10.37616 -10.36780
 Alpha  occ. eigenvalues --  -10.35545 -10.35012 -10.34393 -10.34076 -10.33730
 Alpha  occ. eigenvalues --  -10.33208 -10.31984 -10.31955 -10.31709 -10.30894
 Alpha  occ. eigenvalues --  -10.29761 -10.29279 -10.28967 -10.28532 -10.28481
 Alpha  occ. eigenvalues --  -10.28475 -10.28434 -10.28253 -10.27944 -10.27897
 Alpha  occ. eigenvalues --  -10.27841 -10.26058 -10.26037 -10.25884 -10.25219
 Alpha  occ. eigenvalues --  -10.24965 -10.24370 -10.24244 -10.23464 -10.23362
 Alpha  occ. eigenvalues --  -10.23081 -10.22471 -10.21699 -10.21366  -1.19906
 Alpha  occ. eigenvalues --   -1.16267  -1.14873  -1.13916  -1.12133  -1.11727
 Alpha  occ. eigenvalues --   -1.09757  -1.09065  -1.08315  -1.07747  -1.07173
 Alpha  occ. eigenvalues --   -1.06808  -1.06186  -1.03388  -1.03345  -1.00403
 Alpha  occ. eigenvalues --   -0.98822  -0.97708  -0.97498  -0.95276  -0.93942
 Alpha  occ. eigenvalues --   -0.93526  -0.90984  -0.88505  -0.87251  -0.86271
 Alpha  occ. eigenvalues --   -0.86071  -0.84898  -0.83291  -0.82501  -0.82141
 Alpha  occ. eigenvalues --   -0.81344  -0.81281  -0.80515  -0.78173  -0.77240
 Alpha  occ. eigenvalues --   -0.76689  -0.75224  -0.75088  -0.74816  -0.74001
 Alpha  occ. eigenvalues --   -0.73591  -0.72676  -0.71946  -0.71742  -0.70119
 Alpha  occ. eigenvalues --   -0.69745  -0.68699  -0.68572  -0.67686  -0.66812
 Alpha  occ. eigenvalues --   -0.66061  -0.65688  -0.65349  -0.64973  -0.64569
 Alpha  occ. eigenvalues --   -0.64318  -0.64006  -0.63852  -0.63139  -0.62991
 Alpha  occ. eigenvalues --   -0.62928  -0.62096  -0.61397  -0.60790  -0.59841
 Alpha  occ. eigenvalues --   -0.59216  -0.58380  -0.58264  -0.58079  -0.57089
 Alpha  occ. eigenvalues --   -0.56839  -0.56732  -0.56239  -0.55883  -0.54699
 Alpha  occ. eigenvalues --   -0.54463  -0.54228  -0.54069  -0.53648  -0.53596
 Alpha  occ. eigenvalues --   -0.53540  -0.53311  -0.52913  -0.52862  -0.52745
 Alpha  occ. eigenvalues --   -0.52306  -0.52142  -0.51845  -0.51455  -0.51275
 Alpha  occ. eigenvalues --   -0.51010  -0.50897  -0.50482  -0.50401  -0.50017
 Alpha  occ. eigenvalues --   -0.49952  -0.49660  -0.49405  -0.49355  -0.48993
 Alpha  occ. eigenvalues --   -0.48798  -0.48449  -0.48348  -0.47926  -0.47448
 Alpha  occ. eigenvalues --   -0.47303  -0.47212  -0.46988  -0.46721  -0.46499
 Alpha  occ. eigenvalues --   -0.46050  -0.45727  -0.45530  -0.44997  -0.44899
 Alpha  occ. eigenvalues --   -0.44748  -0.44621  -0.44329  -0.43939  -0.43397
 Alpha  occ. eigenvalues --   -0.43299  -0.43071  -0.43027  -0.42663  -0.42333
 Alpha  occ. eigenvalues --   -0.42193  -0.42038  -0.41885  -0.41808  -0.41694
 Alpha  occ. eigenvalues --   -0.41350  -0.41190  -0.40531  -0.40383  -0.40106
 Alpha  occ. eigenvalues --   -0.40051  -0.39843  -0.39537  -0.39054  -0.38699
 Alpha  occ. eigenvalues --   -0.38067  -0.37933  -0.37826  -0.37773  -0.37378
 Alpha  occ. eigenvalues --   -0.37165  -0.37125  -0.36594  -0.34856  -0.34035
 Alpha  occ. eigenvalues --   -0.33886  -0.32929  -0.32603  -0.32115  -0.31922
 Alpha  occ. eigenvalues --   -0.31730  -0.31459  -0.30828  -0.30209  -0.29955
 Alpha  occ. eigenvalues --   -0.29904  -0.29797  -0.29319
 Alpha virt. eigenvalues --   -0.13081  -0.11331  -0.10650  -0.09024  -0.07625
 Alpha virt. eigenvalues --   -0.06776  -0.06231  -0.04580  -0.04546  -0.04156
 Alpha virt. eigenvalues --   -0.03438  -0.03184  -0.02641  -0.02342  -0.02108

 Mulliken charges:
               1
     1  N   -0.755537
     2  H    0.438248
     3  H    0.415148
     4  H    0.418291
     5  C   -0.113796
     6  H    0.228491
     7  C    0.674150
     8  C   -0.502616
     9  H    0.212811
    10  H    0.185157
    11  H    0.217329
    12  O   -0.537954
    13  N   -0.608681
    14  H    0.374611
    15  C   -0.036283
    16  H    0.188039
    17  C    0.656094
    18  C   -0.415677
    19  H    0.196026
    20  H    0.177725
    21  O   -0.568538
    22  C    0.065891
    23  C    0.015239
    24  H    0.173562
    25  C    0.032290
    26  C    0.324104
    27  C   -0.250419
    28  H    0.157936
    29  N   -0.685616
    30  H    0.347177
    31  C   -0.152789
    32  H    0.151411
    33  C   -0.155230
    34  H    0.151038
    35  C   -0.149205
    36  H    0.142376
    37  N   -0.597335
    38  H    0.347648
    39  C   -0.059399
    40  H    0.184688
    41  C    0.622739
    42  C   -0.328053
    43  H    0.177845
    44  H    0.197467
    45  O   -0.541421
    46  C   -0.323990
    47  H    0.158978
    48  H    0.146323
    49  C    0.573733
    50  O   -0.491416
    51  O   -0.617870
    52  N   -0.616442
    53  H    0.368599
    54  C   -0.030313
    55  H    0.164861
    56  C    0.625882
    57  C   -0.102373
    58  H    0.154068
    59  O   -0.542994
    60  C   -0.460801
    61  H    0.146149
    62  H    0.150768
    63  H    0.179512
    64  C   -0.471695
    65  H    0.151387
    66  H    0.140958
    67  H    0.149237
    68  N   -0.605017
    69  H    0.364205
    70  C   -0.103143
    71  H    0.182398
    72  C    0.633971
    73  C    0.125577
    74  H    0.165700
    75  O   -0.526971
    76  C   -0.466077
    77  H    0.163093
    78  H    0.133191
    79  H    0.163257
    80  O   -0.656215
    81  H    0.426158
    82  N   -0.595012
    83  H    0.350986
    84  C   -0.087458
    85  H    0.181957
    86  C    0.643408
    87  C   -0.073479
    88  H    0.126181
    89  O   -0.547955
    90  C   -0.444572
    91  H    0.161025
    92  H    0.153480
    93  H    0.147692
    94  C   -0.463039
    95  H    0.153841
    96  H    0.153854
    97  H    0.157487
    98  N   -0.601541
    99  H    0.345928
   100  C   -0.069155
   101  H    0.217033
   102  C    0.594260
   103  C   -0.265222
   104  H    0.173044
   105  H    0.135415
   106  O   -0.451252
   107  C   -0.268212
   108  H    0.160141
   109  H    0.155743
   110  C   -0.267639
   111  H    0.126118
   112  H    0.137389
   113  C   -0.151133
   114  H    0.164339
   115  H    0.186358
   116  N   -0.773999
   117  H    0.468360
   118  H    0.320603
   119  H    0.334682
   120  O   -0.578413
   121  H    0.421088
 Sum of Mulliken charges =   1.00000

 Dipole moment (field-independent basis, Debye):
    X=            -19.5796    Y=             -0.6373    Z=            -24.0320  Tot=             31.0049
 Quadrupole moment (field-independent basis, Debye-Ang):
   XX=           -184.3673   YY=           -263.0476   ZZ=           -167.2936
   XY=             53.3959   XZ=            156.5290   YZ=             53.7038

 Normal termination of Gaussian 16 at Sun Jul 10 13:39:56 2022.
