 Gaussian 16, Revision C.01,
 Gaussian 16:  ES64L-G16RevC.01  3-Jul-2019

 ----------------------------------------------------------------------
 # B3LYP/6-31G* empiricaldispersion=gd3bj guess=read geom=check nosymm
 integral(ultrafinegrid)
 ----------------------------------------------------------------------

 -----------------------------------------------------
 Candidate Structure: Conf:34 Charge calc in gas phase
 -----------------------------------------------------
 Structure from the checkpoint file:  "conf-34.chk"
 Charge =  1 Multiplicity = 1

                          Input orientation:
 ---------------------------------------------------------------------
 Center     Atomic      Atomic             Coordinates (Angstroms)
 Number     Number       Type             X           Y           Z
 ---------------------------------------------------------------------
      1          7           0       -4.890729    0.301598   -7.770020
      2          1           0       -4.416518   -0.622658   -7.812704
      3          1           0       -4.965487    0.675185   -8.718941
      4          1           0       -5.836799    0.178897   -7.351785
      5          6           0       -4.180340    1.236363   -6.820343
      6          1           0       -3.121823    0.972923   -6.795229
      7          6           0       -4.872844    0.935446   -5.470320
      8          6           0       -4.398463    2.683209   -7.249246
      9          1           0       -3.875660    3.344797   -6.553891
     10          1           0       -3.991498    2.868655   -8.249538
     11          1           0       -5.462699    2.940087   -7.233637
     12          8           0       -6.083991    0.695283   -5.486074
     13          7           0       -4.051479    0.988449   -4.417927
     14          1           0       -3.022800    1.000276   -4.646909
     15          6           0       -4.404090    0.468159   -3.100473
     16          1           0       -5.472111    0.645340   -2.936826
     17          6           0       -3.568348    1.197300   -2.037183
     18          6           0       -4.104800   -1.054795   -2.995705
     19          1           0       -3.018191   -1.186603   -3.021639
     20          1           0       -4.433794   -1.389051   -2.008899
     21          8           0       -3.205506    0.613368   -1.016773
     22          6           0       -4.749166   -1.847206   -4.087891
     23          6           0       -6.002524   -2.405687   -4.077178
     24          1           0       -6.730728   -2.447631   -3.279267
     25          6           0       -4.212440   -2.077690   -5.406873
     26          6           0       -5.213223   -2.772150   -6.153192
     27          6           0       -2.993994   -1.753712   -6.030565
     28          1           0       -2.217337   -1.206753   -5.501752
     29          7           0       -6.289161   -2.952710   -5.313866
     30          1           0       -7.123011   -3.474747   -5.536264
     31          6           0       -3.820941   -2.785729   -8.093041
     32          1           0       -3.641577   -3.061341   -9.128076
     33          6           0       -5.032672   -3.128802   -7.493289
     34          1           0       -5.801091   -3.660819   -8.046810
     35          6           0       -2.812588   -2.106460   -7.367540
     36          1           0       -1.873375   -1.868377   -7.858075
     37          7           0       -3.199228    2.482384   -2.309844
     38          1           0       -3.536051    2.846731   -3.191079
     39          6           0       -1.883767    2.979973   -1.879496
     40          1           0       -1.233563    2.105881   -1.783556
     41          6           0       -1.839284    3.593401   -0.474427
     42          6           0       -1.253805    3.871848   -2.951640
     43          1           0       -1.746200    4.853155   -2.976460
     44          1           0       -0.216227    4.017050   -2.646965
     45          8           0       -1.215900    4.650915   -0.222064
     46          6           0       -1.257067    3.231105   -4.347747
     47          1           0       -2.248670    3.289172   -4.810758
     48          1           0       -0.586404    3.804983   -4.999269
     49          6           0       -0.773243    1.757607   -4.344937
     50          8           0       -1.456410    0.941401   -5.043538
     51          8           0        0.236096    1.484861   -3.662092
     52          7           0       -2.380832    2.842178    0.486540
     53          1           0       -2.749385    1.933323    0.184143
     54          6           0       -1.976771    2.946524    1.896912
     55          1           0       -1.641191    3.974722    2.056018
     56          6           0       -0.780186    1.965768    2.018894
     57          6           0       -3.125775    2.611280    2.852090
     58          1           0       -3.366921    1.550396    2.709761
     59          8           0       -0.884370    0.856798    2.525571
     60          6           0       -2.670843    2.804814    4.304090
     61          1           0       -2.384299    3.848501    4.488145
     62          1           0       -3.485825    2.559459    4.992632
     63          1           0       -1.821546    2.160317    4.542632
     64          6           0       -4.363406    3.460312    2.542088
     65          1           0       -4.146724    4.529121    2.665663
     66          1           0       -4.718161    3.306982    1.518010
     67          1           0       -5.179166    3.205338    3.226369
     68          7           0        0.348985    2.419930    1.408975
     69          1           0        0.337182    3.327262    0.964759
     70          6           0        1.463336    1.561500    1.080133
     71          1           0        1.369396    0.671179    1.707727
     72          6           0        2.775962    2.278773    1.400540
     73          6           0        1.432329    1.109108   -0.411935
     74          1           0        2.436542    0.743045   -0.670527
     75          8           0        2.879923    3.505063    1.404061
     76          6           0        0.408615    0.001226   -0.647105
     77          1           0        0.691161   -0.908803   -0.106961
     78          1           0       -0.587834    0.297647   -0.307479
     79          1           0        0.354110   -0.227164   -1.716270
     80          8           0        1.138469    2.261820   -1.203190
     81          1           0        0.950777    1.969422   -2.129324
     82          7           0        3.816600    1.445973    1.673573
     83          1           0        3.687042    0.466759    1.452465
     84          6           0        5.194604    1.917723    1.651041
     85          1           0        5.253808    2.793156    2.306255
     86          6           0        5.532925    2.330555    0.206351
     87          6           0        6.141158    0.814567    2.173668
     88          1           0        6.019125   -0.049734    1.503594
     89          8           0        5.075503    1.716415   -0.752660
     90          6           0        7.608730    1.257243    2.114137
     91          1           0        7.775341    2.146813    2.735331
     92          1           0        7.936146    1.489854    1.097200
     93          1           0        8.254868    0.463392    2.501194
     94          6           0        5.761039    0.400684    3.601043
     95          1           0        5.884271    1.244070    4.291300
     96          1           0        6.408656   -0.411820    3.946089
     97          1           0        4.723306    0.062727    3.672653
     98          7           0        6.330757    3.422738    0.079101
     99          1           0        6.755977    3.852082    0.890360
    100          6           0        6.637659    4.004789   -1.210943
    101          1           0        6.549667    3.212628   -1.959274
    102          6           0        8.063468    4.522731   -1.171941
    103          6           0        5.661842    5.158273   -1.578901
    104          1           0        5.845182    5.447439   -2.619729
    105          1           0        5.892447    6.032058   -0.953547
    106          8           0        8.709890    4.675838   -0.158712
    107          6           0        4.214433    4.731111   -1.346530
    108          1           0        3.977313    3.847465   -1.948553
    109          1           0        4.114953    4.416152   -0.305701
    110          6           0        3.156673    5.813848   -1.594900
    111          1           0        3.461785    6.767873   -1.142991
    112          1           0        3.024960    5.992832   -2.672304
    113          6           0        1.863203    5.311836   -0.969029
    114          1           0        1.928136    5.276470    0.119429
    115          1           0        1.629836    4.293963   -1.291347
    116          7           0        0.655563    6.157084   -1.305518
    117          1           0       -0.213052    5.627127   -0.975414
    118          1           0        0.692810    7.074719   -0.853969
    119          1           0        0.584011    6.310653   -2.314341
    120          8           0        8.509844    4.844095   -2.401472
    121          1           0        9.411801    5.201482   -2.290858
 ---------------------------------------------------------------------

 SCF Done:  E(RB3LYP) =  -2843.96377396     A.U. after    3 cycles

 Alpha  occ. eigenvalues --  -19.26830 -19.22644 -19.22539 -19.21905 -19.21217
 Alpha  occ. eigenvalues --  -19.19842 -19.18850 -19.17870 -19.17606 -19.16449
 Alpha  occ. eigenvalues --  -19.16153 -14.55891 -14.54214 -14.46410 -14.45424
 Alpha  occ. eigenvalues --  -14.44730 -14.43968 -14.42736 -14.42653 -14.41769
 Alpha  occ. eigenvalues --  -10.39458 -10.39179 -10.38496 -10.38438 -10.36226
 Alpha  occ. eigenvalues --  -10.35503 -10.34966 -10.34786 -10.34591 -10.32608
 Alpha  occ. eigenvalues --  -10.32213 -10.32200 -10.30801 -10.30710 -10.30623
 Alpha  occ. eigenvalues --  -10.30041 -10.29846 -10.29738 -10.29646 -10.29242
 Alpha  occ. eigenvalues --  -10.28583 -10.28251 -10.28141 -10.27756 -10.27075
 Alpha  occ. eigenvalues --  -10.27065 -10.27046 -10.26850 -10.26786 -10.26413
 Alpha  occ. eigenvalues --  -10.26204 -10.26175 -10.25118 -10.24949 -10.23437
 Alpha  occ. eigenvalues --  -10.23262 -10.23022 -10.22354 -10.22342  -1.17802
 Alpha  occ. eigenvalues --   -1.15012  -1.13952  -1.13218  -1.10938  -1.10144
 Alpha  occ. eigenvalues --   -1.09856  -1.09493  -1.09435  -1.08937  -1.08819
 Alpha  occ. eigenvalues --   -1.07055  -1.06305  -1.03393  -1.01948  -1.00972
 Alpha  occ. eigenvalues --   -1.00460  -0.99559  -0.99371  -0.98298  -0.92864
 Alpha  occ. eigenvalues --   -0.90137  -0.89089  -0.88427  -0.88343  -0.87419
 Alpha  occ. eigenvalues --   -0.86730  -0.84776  -0.84651  -0.83398  -0.82276
 Alpha  occ. eigenvalues --   -0.81194  -0.80220  -0.79427  -0.78136  -0.77734
 Alpha  occ. eigenvalues --   -0.77172  -0.74949  -0.74595  -0.74190  -0.73730
 Alpha  occ. eigenvalues --   -0.73126  -0.70899  -0.70597  -0.70010  -0.69254
 Alpha  occ. eigenvalues --   -0.69006  -0.68720  -0.68531  -0.68289  -0.67978
 Alpha  occ. eigenvalues --   -0.67328  -0.67224  -0.66502  -0.65735  -0.65429
 Alpha  occ. eigenvalues --   -0.65071  -0.65004  -0.64465  -0.63712  -0.63435
 Alpha  occ. eigenvalues --   -0.62932  -0.61895  -0.60742  -0.60183  -0.59641
 Alpha  occ. eigenvalues --   -0.58752  -0.58405  -0.58173  -0.57976  -0.57346
 Alpha  occ. eigenvalues --   -0.56973  -0.56775  -0.56565  -0.56041  -0.55852
 Alpha  occ. eigenvalues --   -0.55482  -0.55441  -0.55311  -0.54767  -0.54690
 Alpha  occ. eigenvalues --   -0.54243  -0.53845  -0.53406  -0.52924  -0.52778
 Alpha  occ. eigenvalues --   -0.52461  -0.52125  -0.51710  -0.51494  -0.51373
 Alpha  occ. eigenvalues --   -0.51275  -0.50876  -0.50629  -0.50191  -0.50076
 Alpha  occ. eigenvalues --   -0.49955  -0.49713  -0.49376  -0.49182  -0.49052
 Alpha  occ. eigenvalues --   -0.48879  -0.48482  -0.48210  -0.48172  -0.48017
 Alpha  occ. eigenvalues --   -0.47782  -0.47552  -0.47266  -0.47228  -0.46699
 Alpha  occ. eigenvalues --   -0.46543  -0.46442  -0.46405  -0.45984  -0.45872
 Alpha  occ. eigenvalues --   -0.45377  -0.45323  -0.44808  -0.44664  -0.44078
 Alpha  occ. eigenvalues --   -0.44037  -0.43893  -0.43713  -0.43577  -0.43443
 Alpha  occ. eigenvalues --   -0.43277  -0.43105  -0.42631  -0.42385  -0.42304
 Alpha  occ. eigenvalues --   -0.42143  -0.41927  -0.41479  -0.41434  -0.40492
 Alpha  occ. eigenvalues --   -0.40108  -0.40011  -0.39978  -0.39284  -0.39185
 Alpha  occ. eigenvalues --   -0.38827  -0.38803  -0.38298  -0.37994  -0.37247
 Alpha  occ. eigenvalues --   -0.36825  -0.36290  -0.35679  -0.34919  -0.34656
 Alpha  occ. eigenvalues --   -0.34378  -0.33851  -0.32828  -0.32481  -0.32045
 Alpha  occ. eigenvalues --   -0.31878  -0.31429  -0.31082  -0.30917  -0.30778
 Alpha  occ. eigenvalues --   -0.30652  -0.30262  -0.28587
 Alpha virt. eigenvalues --   -0.10154  -0.09428  -0.08795  -0.08298  -0.06914
 Alpha virt. eigenvalues --   -0.06797  -0.06061  -0.05984  -0.05320  -0.03902
 Alpha virt. eigenvalues --   -0.02936  -0.02557  -0.02236  -0.01824  -0.01302

 Mulliken charges:
               1
     1  N   -0.763634
     2  H    0.426157
     3  H    0.394349
     4  H    0.414298
     5  C   -0.115083
     6  H    0.240081
     7  C    0.634611
     8  C   -0.481756
     9  H    0.200755
    10  H    0.175793
    11  H    0.188403
    12  O   -0.545258
    13  N   -0.677647
    14  H    0.431378
    15  C   -0.068361
    16  H    0.203067
    17  C    0.623576
    18  C   -0.358285
    19  H    0.184900
    20  H    0.186980
    21  O   -0.520253
    22  C    0.077661
    23  C    0.026936
    24  H    0.172111
    25  C    0.040185
    26  C    0.319505
    27  C   -0.233114
    28  H    0.205274
    29  N   -0.684383
    30  H    0.342441
    31  C   -0.194172
    32  H    0.149796
    33  C   -0.180856
    34  H    0.148300
    35  C   -0.209759
    36  H    0.154296
    37  N   -0.598219
    38  H    0.344911
    39  C   -0.089387
    40  H    0.232405
    41  C    0.665311
    42  C   -0.315686
    43  H    0.134343
    44  H    0.154371
    45  O   -0.617728
    46  C   -0.381664
    47  H    0.120275
    48  H    0.161735
    49  C    0.598920
    50  O   -0.596145
    51  O   -0.553846
    52  N   -0.607423
    53  H    0.404740
    54  C   -0.066288
    55  H    0.169995
    56  C    0.626286
    57  C   -0.083370
    58  H    0.157223
    59  O   -0.520192
    60  C   -0.462088
    61  H    0.135683
    62  H    0.154898
    63  H    0.178220
    64  C   -0.448087
    65  H    0.139944
    66  H    0.144351
    67  H    0.155958
    68  N   -0.598038
    69  H    0.354169
    70  C   -0.109016
    71  H    0.192354
    72  C    0.648382
    73  C    0.150589
    74  H    0.155375
    75  O   -0.548062
    76  C   -0.500408
    77  H    0.147578
    78  H    0.170042
    79  H    0.181785
    80  O   -0.706473
    81  H    0.457721
    82  N   -0.592465
    83  H    0.339912
    84  C   -0.035142
    85  H    0.163562
    86  C    0.629129
    87  C   -0.109964
    88  H    0.144166
    89  O   -0.538353
    90  C   -0.465764
    91  H    0.146497
    92  H    0.165260
    93  H    0.163562
    94  C   -0.443135
    95  H    0.151295
    96  H    0.159151
    97  H    0.153467
    98  N   -0.601341
    99  H    0.348800
   100  C   -0.044218
   101  H    0.209340
   102  C    0.585291
   103  C   -0.272428
   104  H    0.163165
   105  H    0.141908
   106  O   -0.462755
   107  C   -0.299423
   108  H    0.179017
   109  H    0.201759
   110  C   -0.274720
   111  H    0.145241
   112  H    0.137450
   113  C   -0.255891
   114  H    0.230513
   115  H    0.268215
   116  N   -0.772304
   117  H    0.459791
   118  H    0.392271
   119  H    0.384514
   120  O   -0.562243
   121  H    0.423127
 Sum of Mulliken charges =   1.00000

 Dipole moment (field-independent basis, Debye):
    X=             -9.5541    Y=             15.6499    Z=            -22.7539  Tot=             29.2223
 Quadrupole moment (field-independent basis, Debye-Ang):
   XX=           -204.5915   YY=           -222.2986   ZZ=           -168.0611
   XY=             38.5793   XZ=            114.7964   YZ=            -28.8952

 Normal termination of Gaussian 16 at Sun Jul 10 13:42:05 2022.
