 Gaussian 16, Revision C.01,
 Gaussian 16:  ES64L-G16RevC.01  3-Jul-2019

 ----------------------------------------------------------------------
 # B3LYP/6-31G* empiricaldispersion=gd3bj guess=read geom=check nosymm
 integral(ultrafinegrid)
 ----------------------------------------------------------------------

 ------------------------------------------------------
 Candidate Structure: Conf:231 Charge calc in gas phase
 ------------------------------------------------------
 Structure from the checkpoint file:  "conf-231.chk"
 Charge =  1 Multiplicity = 1

                          Input orientation:
 ---------------------------------------------------------------------
 Center     Atomic      Atomic             Coordinates (Angstroms)
 Number     Number       Type             X           Y           Z
 ---------------------------------------------------------------------
      1          7           0       -6.266325   -0.249117   -6.677025
      2          1           0       -6.890355   -1.031706   -6.464381
      3          1           0       -6.268053   -0.096318   -7.685559
      4          1           0       -6.648875    0.582028   -6.218643
      5          6           0       -4.891520   -0.515939   -6.177781
      6          1           0       -4.571692   -1.488250   -6.548398
      7          6           0       -4.934510   -0.610182   -4.639747
      8          6           0       -3.923810    0.558893   -6.633664
      9          1           0       -2.906491    0.311671   -6.329468
     10          1           0       -3.946528    0.651288   -7.721821
     11          1           0       -4.175255    1.528692   -6.195470
     12          8           0       -5.418788    0.324733   -3.959512
     13          7           0       -4.471244   -1.770497   -4.106669
     14          1           0       -3.959636   -2.409840   -4.687177
     15          6           0       -4.510050   -1.996731   -2.665623
     16          1           0       -5.240292   -1.298707   -2.264883
     17          6           0       -3.145860   -1.606738   -2.116001
     18          6           0       -4.968904   -3.400526   -2.335159
     19          1           0       -4.357653   -4.135280   -2.863787
     20          1           0       -4.800581   -3.579633   -1.267743
     21          8           0       -2.229507   -2.412489   -1.950306
     22          6           0       -6.429613   -3.549150   -2.672234
     23          6           0       -7.329990   -2.591590   -3.084096
     24          1           0       -7.186404   -1.540190   -3.286531
     25          6           0       -7.167105   -4.783534   -2.592446
     26          6           0       -8.494071   -4.511633   -2.969486
     27          6           0       -6.804171   -6.091181   -2.237667
     28          1           0       -5.786150   -6.329349   -1.944166
     29          7           0       -8.566546   -3.170923   -3.268163
     30          1           0       -9.403141   -2.691233   -3.548879
     31          6           0       -9.100704   -6.784053   -2.645318
     32          1           0       -9.836802   -7.579315   -2.657384
     33          6           0       -9.481615   -5.499166   -3.002464
     34          1           0      -10.499730   -5.266502   -3.295545
     35          6           0       -7.776173   -7.076913   -2.267267
     36          1           0       -7.517656   -8.094067   -1.995958
     37          7           0       -3.013496   -0.280028   -1.898053
     38          1           0       -3.814535    0.296546   -2.114707
     39          6           0       -1.720686    0.384662   -1.894123
     40          1           0       -1.033847   -0.240858   -2.481853
     41          6           0       -1.182195    0.426515   -0.460670
     42          6           0       -1.819571    1.764406   -2.531136
     43          1           0       -2.520135    2.375764   -1.961914
     44          1           0       -0.844881    2.255084   -2.470708
     45          8           0       -0.989490    1.484366    0.150378
     46          6           0       -2.231356    1.688183   -3.993365
     47          1           0       -1.598504    0.950211   -4.504280
     48          1           0       -3.268656    1.386559   -4.107048
     49          6           0       -1.995275    3.039853   -4.722189
     50          8           0       -2.892467    3.402318   -5.513800
     51          8           0       -0.906232    3.585887   -4.481398
     52          7           0       -0.936855   -0.780598    0.091190
     53          1           0       -1.113298   -1.613136   -0.460596
     54          6           0       -0.464694   -0.901208    1.463429
     55          1           0       -0.924063   -0.074280    2.015040
     56          6           0        1.054816   -0.690633    1.434278
     57          6           0       -0.867831   -2.228250    2.117009
     58          1           0       -0.268740   -3.014264    1.652230
     59          8           0        1.879258   -1.605291    1.513506
     60          6           0       -0.563272   -2.193491    3.617244
     61          1           0       -1.131797   -1.391875    4.096132
     62          1           0       -0.844751   -3.138430    4.087071
     63          1           0        0.495009   -2.026196    3.817652
     64          6           0       -2.349908   -2.538194    1.899812
     65          1           0       -2.971437   -1.735255    2.306803
     66          1           0       -2.594964   -2.662326    0.841745
     67          1           0       -2.614038   -3.465366    2.412518
     68          7           0        1.437226    0.596688    1.263999
     69          1           0        0.738264    1.317329    1.115815
     70          6           0        2.834684    0.912285    1.072723
     71          1           0        3.272734    0.092391    0.498393
     72          6           0        3.521603    0.982636    2.428419
     73          6           0        3.059645    2.210775    0.291018
     74          1           0        4.150122    2.323749    0.215002
     75          8           0        3.612239    2.056713    3.043465
     76          6           0        2.457096    2.176210   -1.097457
     77          1           0        2.856188    1.340269   -1.676449
     78          1           0        1.370764    2.071567   -1.035257
     79          1           0        2.675368    3.106013   -1.623524
     80          8           0        2.516233    3.347476    0.964071
     81          1           0        2.843620    3.284243    1.874982
     82          7           0        4.029351   -0.155126    2.917463
     83          1           0        3.783375   -1.023959    2.459160
     84          6           0        4.718186   -0.175596    4.210760
     85          1           0        4.168982    0.500940    4.873867
     86          6           0        6.131819    0.394380    3.970895
     87          6           0        4.715795   -1.574392    4.831644
     88          1           0        5.272132   -2.225564    4.153767
     89          8           0        7.120535   -0.294936    3.766359
     90          6           0        5.398909   -1.569250    6.201642
     91          1           0        4.857833   -0.905972    6.881949
     92          1           0        6.432714   -1.228327    6.134816
     93          1           0        5.394783   -2.574206    6.629414
     94          6           0        3.283117   -2.086420    4.978435
     95          1           0        2.737632   -1.443965    5.678035
     96          1           0        3.278107   -3.103382    5.374513
     97          1           0        2.742396   -2.091329    4.030793
     98          7           0        6.176893    1.753405    3.943649
     99          1           0        5.293897    2.241333    3.884023
    100          6           0        7.356200    2.434318    3.443713
    101          1           0        7.716892    1.926315    2.540607
    102          6           0        8.518410    2.388238    4.420274
    103          6           0        6.986090    3.880306    3.091997
    104          1           0        7.896081    4.444481    2.872656
    105          1           0        6.523493    4.343019    3.964966
    106          8           0        9.673012    2.344303    4.074465
    107          6           0        6.041397    3.908948    1.894940
    108          1           0        6.562557    3.484693    1.029155
    109          1           0        5.191361    3.257573    2.097143
    110          6           0        5.491009    5.276012    1.529625
    111          1           0        4.961312    5.698960    2.388999
    112          1           0        6.302088    5.968406    1.285333
    113          6           0        4.531785    5.181013    0.357090
    114          1           0        3.728962    4.472852    0.589052
    115          1           0        5.065825    4.798974   -0.516100
    116          7           0        3.910257    6.490107    0.016804
    117          1           0        3.250716    6.409400   -0.759412
    118          1           0        3.398313    6.864989    0.815694
    119          1           0        4.614978    7.180358   -0.244722
    120          8           0        8.136793    2.458490    5.712324
    121          1           0        8.952032    2.447141    6.232647
 ---------------------------------------------------------------------

 SCF Done:  E(RB3LYP) =  -2843.80479148     A.U. after    1 cycles

 Alpha  occ. eigenvalues --  -19.25116 -19.24422 -19.24271 -19.22007 -19.20307
 Alpha  occ. eigenvalues --  -19.19251 -19.19134 -19.18074 -19.17703 -19.04464
 Alpha  occ. eigenvalues --  -19.04124 -14.62153 -14.61946 -14.49074 -14.45100
 Alpha  occ. eigenvalues --  -14.44777 -14.43496 -14.42996 -14.41958 -14.41632
 Alpha  occ. eigenvalues --  -10.42054 -10.39363 -10.37921 -10.37501 -10.36873
 Alpha  occ. eigenvalues --  -10.36062 -10.35725 -10.34611 -10.34603 -10.33521
 Alpha  occ. eigenvalues --  -10.32721 -10.31680 -10.31592 -10.30584 -10.29825
 Alpha  occ. eigenvalues --  -10.29361 -10.29303 -10.28846 -10.28627 -10.28305
 Alpha  occ. eigenvalues --  -10.28289 -10.28146 -10.27756 -10.25799 -10.25432
 Alpha  occ. eigenvalues --  -10.25172 -10.25114 -10.25077 -10.24720 -10.24646
 Alpha  occ. eigenvalues --  -10.24505 -10.24002 -10.23090 -10.23034 -10.22873
 Alpha  occ. eigenvalues --  -10.22803 -10.22365 -10.21078 -10.18356  -1.17695
 Alpha  occ. eigenvalues --   -1.16591  -1.16329  -1.14636  -1.14575  -1.12140
 Alpha  occ. eigenvalues --   -1.12022  -1.11090  -1.09776  -1.09625  -1.07144
 Alpha  occ. eigenvalues --   -1.05354  -1.04887  -1.01496  -1.00525  -1.00077
 Alpha  occ. eigenvalues --   -0.99325  -0.98725  -0.98200  -0.93125  -0.92235
 Alpha  occ. eigenvalues --   -0.90449  -0.89421  -0.88848  -0.88138  -0.87132
 Alpha  occ. eigenvalues --   -0.86698  -0.86060  -0.84931  -0.82802  -0.82003
 Alpha  occ. eigenvalues --   -0.80864  -0.80075  -0.79480  -0.78192  -0.78064
 Alpha  occ. eigenvalues --   -0.76871  -0.76077  -0.75584  -0.75343  -0.74927
 Alpha  occ. eigenvalues --   -0.74255  -0.73885  -0.73602  -0.73437  -0.73177
 Alpha  occ. eigenvalues --   -0.71659  -0.69672  -0.69133  -0.69081  -0.68808
 Alpha  occ. eigenvalues --   -0.67871  -0.67154  -0.66565  -0.66303  -0.65564
 Alpha  occ. eigenvalues --   -0.65146  -0.64782  -0.64220  -0.63983  -0.63749
 Alpha  occ. eigenvalues --   -0.63190  -0.63048  -0.61965  -0.61601  -0.60869
 Alpha  occ. eigenvalues --   -0.60420  -0.59929  -0.59657  -0.59479  -0.58564
 Alpha  occ. eigenvalues --   -0.58369  -0.57408  -0.57202  -0.55810  -0.55558
 Alpha  occ. eigenvalues --   -0.55315  -0.54936  -0.54663  -0.54608  -0.54224
 Alpha  occ. eigenvalues --   -0.53935  -0.53695  -0.53680  -0.52983  -0.52654
 Alpha  occ. eigenvalues --   -0.52122  -0.51318  -0.51125  -0.50927  -0.50346
 Alpha  occ. eigenvalues --   -0.50132  -0.50082  -0.49901  -0.49815  -0.49460
 Alpha  occ. eigenvalues --   -0.49289  -0.49154  -0.49021  -0.48830  -0.48599
 Alpha  occ. eigenvalues --   -0.48533  -0.48181  -0.48052  -0.48003  -0.47634
 Alpha  occ. eigenvalues --   -0.47325  -0.47181  -0.46860  -0.46560  -0.46375
 Alpha  occ. eigenvalues --   -0.46308  -0.45765  -0.45689  -0.45335  -0.45109
 Alpha  occ. eigenvalues --   -0.44870  -0.44793  -0.44493  -0.44434  -0.44154
 Alpha  occ. eigenvalues --   -0.43865  -0.43577  -0.43513  -0.43293  -0.43093
 Alpha  occ. eigenvalues --   -0.42729  -0.42561  -0.42141  -0.41605  -0.40238
 Alpha  occ. eigenvalues --   -0.40093  -0.40030  -0.39833  -0.39742  -0.39098
 Alpha  occ. eigenvalues --   -0.38987  -0.38879  -0.38762  -0.38581  -0.38129
 Alpha  occ. eigenvalues --   -0.38051  -0.37255  -0.37223  -0.37158  -0.36631
 Alpha  occ. eigenvalues --   -0.35743  -0.35115  -0.34403  -0.34181  -0.34052
 Alpha  occ. eigenvalues --   -0.34005  -0.33521  -0.32635  -0.32552  -0.31422
 Alpha  occ. eigenvalues --   -0.30925  -0.30684  -0.30437  -0.28868  -0.27120
 Alpha  occ. eigenvalues --   -0.20381  -0.19387  -0.18755
 Alpha virt. eigenvalues --   -0.13188  -0.12168  -0.10647  -0.07830  -0.07753
 Alpha virt. eigenvalues --   -0.06869  -0.05975  -0.05846  -0.05642  -0.05518
 Alpha virt. eigenvalues --   -0.05294  -0.04832  -0.03999  -0.03677  -0.03527

 Mulliken charges:
               1
     1  N   -0.711350
     2  H    0.421877
     3  H    0.427629
     4  H    0.436354
     5  C   -0.143837
     6  H    0.193195
     7  C    0.642826
     8  C   -0.470965
     9  H    0.218043
    10  H    0.161371
    11  H    0.258535
    12  O   -0.526321
    13  N   -0.573080
    14  H    0.353920
    15  C   -0.108476
    16  H    0.204357
    17  C    0.644126
    18  C   -0.341632
    19  H    0.165713
    20  H    0.189028
    21  O   -0.549786
    22  C    0.064734
    23  C   -0.035445
    24  H    0.145976
    25  C    0.072633
    26  C    0.319254
    27  C   -0.207888
    28  H    0.132290
    29  N   -0.709516
    30  H    0.326735
    31  C   -0.148193
    32  H    0.140210
    33  C   -0.162031
    34  H    0.131551
    35  C   -0.139139
    36  H    0.136952
    37  N   -0.584076
    38  H    0.361722
    39  C   -0.083823
    40  H    0.169740
    41  C    0.641805
    42  C   -0.280745
    43  H    0.146907
    44  H    0.182349
    45  O   -0.559194
    46  C   -0.383653
    47  H    0.095470
    48  H    0.117011
    49  C    0.556747
    50  O   -0.619664
    51  O   -0.600781
    52  N   -0.626976
    53  H    0.379764
    54  C   -0.033528
    55  H    0.171695
    56  C    0.630802
    57  C   -0.100901
    58  H    0.157878
    59  O   -0.552518
    60  C   -0.470087
    61  H    0.142670
    62  H    0.156548
    63  H    0.170854
    64  C   -0.458415
    65  H    0.145188
    66  H    0.147330
    67  H    0.154527
    68  N   -0.615283
    69  H    0.387627
    70  C   -0.053285
    71  H    0.183816
    72  C    0.655488
    73  C    0.081937
    74  H    0.119588
    75  O   -0.593159
    76  C   -0.456203
    77  H    0.163738
    78  H    0.204204
    79  H    0.142361
    80  O   -0.652595
    81  H    0.431526
    82  N   -0.603219
    83  H    0.382303
    84  C   -0.042267
    85  H    0.170214
    86  C    0.617891
    87  C   -0.110091
    88  H    0.158537
    89  O   -0.514509
    90  C   -0.459775
    91  H    0.140650
    92  H    0.178767
    93  H    0.158314
    94  C   -0.474665
    95  H    0.143333
    96  H    0.161618
    97  H    0.167292
    98  N   -0.620609
    99  H    0.371370
   100  C   -0.007028
   101  H    0.183821
   102  C    0.594892
   103  C   -0.316426
   104  H    0.175746
   105  H    0.164420
   106  O   -0.456021
   107  C   -0.297263
   108  H    0.156305
   109  H    0.175365
   110  C   -0.279421
   111  H    0.153706
   112  H    0.156790
   113  C   -0.278131
   114  H    0.285162
   115  H    0.206656
   116  N   -0.715785
   117  H    0.438708
   118  H    0.423143
   119  H    0.418285
   120  O   -0.560960
   121  H    0.418822
 Sum of Mulliken charges =   1.00000

 Dipole moment (field-independent basis, Debye):
    X=             -8.0005    Y=              7.7000    Z=             -9.6367  Tot=             14.7025
 Quadrupole moment (field-independent basis, Debye-Ang):
   XX=           -147.8809   YY=           -225.0389   ZZ=           -225.1742
   XY=            155.0090   XZ=            142.2466   YZ=             81.7086

 Normal termination of Gaussian 16 at Sun Jul 10 13:39:13 2022.
