 Gaussian 16, Revision C.01,
 Gaussian 16:  ES64L-G16RevC.01  3-Jul-2019

 ----------------------------------------------------------------------
 # B3LYP/6-31G* empiricaldispersion=gd3bj guess=read geom=check nosymm
 integral(ultrafinegrid)
 ----------------------------------------------------------------------

 ------------------------------------------------------
 Candidate Structure: Conf:472 Charge calc in gas phase
 ------------------------------------------------------
 Structure from the checkpoint file:  "conf-472.chk"
 Charge =  1 Multiplicity = 1

                          Input orientation:
 ---------------------------------------------------------------------
 Center     Atomic      Atomic             Coordinates (Angstroms)
 Number     Number       Type             X           Y           Z
 ---------------------------------------------------------------------
      1          7           0       -1.768597    1.057680   -4.006760
      2          1           0       -2.200050    1.695786   -3.325259
      3          1           0       -1.235832    1.581344   -4.701561
      4          1           0       -1.126030    0.347142   -3.411397
      5          6           0       -2.865941    0.228645   -4.608372
      6          1           0       -3.492590    0.893321   -5.213415
      7          6           0       -3.692729   -0.174016   -3.370949
      8          6           0       -2.284872   -0.891940   -5.461402
      9          1           0       -3.085540   -1.464715   -5.939776
     10          1           0       -1.663370   -0.479452   -6.263557
     11          1           0       -1.670431   -1.561951   -4.853833
     12          8           0       -3.876528    0.682126   -2.497100
     13          7           0       -4.136794   -1.431208   -3.312990
     14          1           0       -3.852340   -2.097836   -4.021174
     15          6           0       -4.850040   -1.999019   -2.167025
     16          1           0       -5.483047   -1.206086   -1.755842
     17          6           0       -3.844964   -2.430624   -1.067127
     18          6           0       -5.708187   -3.187943   -2.641680
     19          1           0       -6.053767   -3.719100   -1.752525
     20          1           0       -6.590428   -2.789845   -3.154506
     21          8           0       -3.801529   -3.577970   -0.627305
     22          6           0       -4.964443   -4.118307   -3.557662
     23          6           0       -4.191890   -5.198120   -3.201292
     24          1           0       -3.999300   -5.595236   -2.216351
     25          6           0       -4.848102   -3.988393   -4.992937
     26          6           0       -3.984455   -5.028697   -5.442002
     27          6           0       -5.374932   -3.089260   -5.939618
     28          1           0       -6.047715   -2.294333   -5.628440
     29          7           0       -3.607946   -5.747029   -4.325711
     30          1           0       -3.033042   -6.575329   -4.332727
     31          6           0       -4.169016   -4.274610   -7.696511
     32          1           0       -3.922336   -4.369728   -8.749507
     33          6           0       -3.639687   -5.183485   -6.787566
     34          1           0       -2.982254   -5.984538   -7.113328
     35          6           0       -5.029356   -3.238198   -7.277772
     36          1           0       -5.438481   -2.556451   -8.017650
     37          7           0       -3.031006   -1.444070   -0.632868
     38          1           0       -3.100361   -0.495732   -0.994346
     39          6           0       -1.975202   -1.713306    0.317140
     40          1           0       -2.396762   -2.330703    1.117985
     41          6           0       -1.538344   -0.363820    0.880284
     42          6           0       -0.771077   -2.504405   -0.294320
     43          1           0       -0.430173   -3.231179    0.452593
     44          1           0       -1.167610   -3.082578   -1.130799
     45          8           0       -1.767723    0.690590    0.290768
     46          6           0        0.453403   -1.691815   -0.735745
     47          1           0        0.913565   -1.185283    0.118366
     48          1           0        1.205186   -2.399706   -1.116771
     49          6           0        0.243913   -0.649593   -1.835430
     50          8           0       -0.766991   -0.782585   -2.584473
     51          8           0        1.111151    0.265060   -1.965768
     52          7           0       -0.839125   -0.389713    2.043797
     53          1           0       -0.603121   -1.270983    2.476458
     54          6           0       -0.259558    0.839208    2.565773
     55          1           0       -1.067234    1.576842    2.622608
     56          6           0        0.792785    1.357542    1.574609
     57          6           0        0.307756    0.645002    3.989639
     58          1           0       -0.551942    0.342679    4.603176
     59          8           0        1.800575    0.687303    1.282086
     60          6           0        1.385647   -0.442103    4.104069
     61          1           0        2.268887   -0.186460    3.514626
     62          1           0        1.682534   -0.552632    5.151860
     63          1           0        1.037112   -1.425593    3.766512
     64          6           0        0.828021    1.984989    4.525513
     65          1           0        1.697468    2.328630    3.953800
     66          1           0        0.061326    2.766220    4.476098
     67          1           0        1.137787    1.884184    5.569878
     68          7           0        0.580127    2.581436    1.067868
     69          1           0       -0.265932    3.091774    1.293905
     70          6           0        1.344657    3.116980   -0.048422
     71          1           0        1.651499    2.265056   -0.666879
     72          6           0        2.631934    3.835148    0.391808
     73          6           0        0.447479    4.038348   -0.889381
     74          1           0        1.100616    4.550983   -1.603726
     75          8           0        3.025484    4.858754   -0.163528
     76          6           0       -0.627929    3.260808   -1.634327
     77          1           0       -0.142033    2.535824   -2.295390
     78          1           0       -1.275417    2.704671   -0.950602
     79          1           0       -1.238635    3.957530   -2.217585
     80          8           0       -0.190231    4.988022   -0.036393
     81          1           0        0.481878    5.648202    0.202177
     82          7           0        3.327774    3.202596    1.379917
     83          1           0        3.041153    2.246511    1.585825
     84          6           0        4.751433    3.482853    1.561302
     85          1           0        4.891782    4.557979    1.424951
     86          6           0        5.445969    2.699016    0.445865
     87          6           0        5.241188    3.058106    2.954365
     88          1           0        4.991722    1.994361    3.070832
     89          8           0        5.370335    1.458584    0.415462
     90          6           0        6.764486    3.206163    3.052776
     91          1           0        7.070252    4.245126    2.877532
     92          1           0        7.283765    2.568954    2.329357
     93          1           0        7.110404    2.924003    4.051811
     94          6           0        4.531349    3.867748    4.043825
     95          1           0        4.806386    4.927624    3.980532
     96          1           0        4.819012    3.507354    5.036640
     97          1           0        3.443272    3.799184    3.956582
     98          7           0        6.043526    3.413502   -0.521997
     99          1           0        6.013820    4.423788   -0.475884
    100          6           0        6.580145    2.797428   -1.725171
    101          1           0        6.726772    1.741158   -1.499745
    102          6           0        7.943986    3.359296   -2.104273
    103          6           0        5.627888    2.972222   -2.932583
    104          1           0        6.129002    2.559607   -3.815356
    105          1           0        5.522859    4.050436   -3.105441
    106          8           0        8.698088    2.808614   -2.868854
    107          6           0        4.222998    2.362090   -2.785423
    108          1           0        3.829221    2.571888   -1.785032
    109          1           0        3.565694    2.916796   -3.464009
    110          6           0        4.070990    0.871661   -3.149808
    111          1           0        3.026690    0.691098   -3.425926
    112          1           0        4.675775    0.655695   -4.039060
    113          6           0        4.436561   -0.174201   -2.093965
    114          1           0        5.459837   -0.085068   -1.727609
    115          1           0        4.302988   -1.173934   -2.514991
    116          7           0        3.533863   -0.073116   -0.899488
    117          1           0        3.555631   -0.924050   -0.333995
    118          1           0        3.873375    0.671320   -0.268021
    119          1           0        2.514091    0.089300   -1.198813
    120          8           0        8.179776    4.567549   -1.545955
    121          1           0        9.048023    4.869359   -1.875861
 ---------------------------------------------------------------------

 SCF Done:  E(RB3LYP) =  -2844.00125393     A.U. after    1 cycles

 Alpha  occ. eigenvalues --  -19.28891 -19.22818 -19.22724 -19.22146 -19.21973
 Alpha  occ. eigenvalues --  -19.21317 -19.21307 -19.20851 -19.20358 -19.20102
 Alpha  occ. eigenvalues --  -19.18291 -14.51060 -14.50931 -14.46894 -14.45874
 Alpha  occ. eigenvalues --  -14.45475 -14.45467 -14.44731 -14.44630 -14.41910
 Alpha  occ. eigenvalues --  -10.41089 -10.39090 -10.38653 -10.38586 -10.37931
 Alpha  occ. eigenvalues --  -10.37785 -10.37663 -10.35318 -10.35201 -10.33714
 Alpha  occ. eigenvalues --  -10.33518 -10.32568 -10.32231 -10.32108 -10.31868
 Alpha  occ. eigenvalues --  -10.31205 -10.31091 -10.28787 -10.28779 -10.28741
 Alpha  occ. eigenvalues --  -10.28569 -10.28525 -10.28301 -10.28158 -10.27834
 Alpha  occ. eigenvalues --  -10.27140 -10.27086 -10.26142 -10.25981 -10.25832
 Alpha  occ. eigenvalues --  -10.25544 -10.25389 -10.25276 -10.25202 -10.25164
 Alpha  occ. eigenvalues --  -10.25023 -10.24980 -10.24799 -10.24683  -1.19630
 Alpha  occ. eigenvalues --   -1.14380  -1.13976  -1.13820  -1.13317  -1.12970
 Alpha  occ. eigenvalues --   -1.12583  -1.10648  -1.10240  -1.10109  -1.06973
 Alpha  occ. eigenvalues --   -1.06425  -1.04457  -1.04059  -1.03318  -1.02560
 Alpha  occ. eigenvalues --   -1.02242  -1.01956  -1.01316  -0.99045  -0.90631
 Alpha  occ. eigenvalues --   -0.90516  -0.89978  -0.89110  -0.88565  -0.86949
 Alpha  occ. eigenvalues --   -0.86607  -0.86421  -0.86322  -0.83046  -0.81987
 Alpha  occ. eigenvalues --   -0.81590  -0.80654  -0.80112  -0.79036  -0.78213
 Alpha  occ. eigenvalues --   -0.77240  -0.76924  -0.76164  -0.75956  -0.74728
 Alpha  occ. eigenvalues --   -0.73160  -0.71675  -0.70884  -0.70384  -0.70028
 Alpha  occ. eigenvalues --   -0.68929  -0.68698  -0.68581  -0.68449  -0.67804
 Alpha  occ. eigenvalues --   -0.67623  -0.67034  -0.66386  -0.66051  -0.65610
 Alpha  occ. eigenvalues --   -0.65551  -0.65176  -0.65045  -0.64146  -0.63244
 Alpha  occ. eigenvalues --   -0.62758  -0.62419  -0.61321  -0.60649  -0.60304
 Alpha  occ. eigenvalues --   -0.60068  -0.59730  -0.59458  -0.58750  -0.57998
 Alpha  occ. eigenvalues --   -0.57244  -0.57023  -0.56828  -0.56636  -0.56516
 Alpha  occ. eigenvalues --   -0.56077  -0.55889  -0.55830  -0.55507  -0.55056
 Alpha  occ. eigenvalues --   -0.54622  -0.54434  -0.54237  -0.54004  -0.53363
 Alpha  occ. eigenvalues --   -0.53224  -0.52994  -0.52480  -0.52334  -0.52112
 Alpha  occ. eigenvalues --   -0.51836  -0.51517  -0.51291  -0.50945  -0.50762
 Alpha  occ. eigenvalues --   -0.50486  -0.50186  -0.49934  -0.49700  -0.49473
 Alpha  occ. eigenvalues --   -0.49448  -0.49108  -0.49082  -0.48975  -0.48651
 Alpha  occ. eigenvalues --   -0.48593  -0.48365  -0.48213  -0.48082  -0.47849
 Alpha  occ. eigenvalues --   -0.47673  -0.47311  -0.47265  -0.47078  -0.46783
 Alpha  occ. eigenvalues --   -0.46668  -0.46468  -0.46347  -0.46056  -0.45801
 Alpha  occ. eigenvalues --   -0.45774  -0.45460  -0.45289  -0.44799  -0.44516
 Alpha  occ. eigenvalues --   -0.44187  -0.43877  -0.43511  -0.43177  -0.43079
 Alpha  occ. eigenvalues --   -0.42737  -0.42554  -0.42476  -0.42312  -0.42184
 Alpha  occ. eigenvalues --   -0.41930  -0.41700  -0.41409  -0.41286  -0.40955
 Alpha  occ. eigenvalues --   -0.40608  -0.39932  -0.39871  -0.38112  -0.37711
 Alpha  occ. eigenvalues --   -0.37283  -0.36724  -0.36552  -0.35965  -0.35724
 Alpha  occ. eigenvalues --   -0.35593  -0.35308  -0.35030  -0.34907  -0.34716
 Alpha  occ. eigenvalues --   -0.34321  -0.34142  -0.33808  -0.32612  -0.31578
 Alpha  occ. eigenvalues --   -0.31423  -0.28970  -0.26759
 Alpha virt. eigenvalues --   -0.09140  -0.08629  -0.08505  -0.08020  -0.07730
 Alpha virt. eigenvalues --   -0.07130  -0.06880  -0.05061  -0.04577  -0.04350
 Alpha virt. eigenvalues --   -0.04240  -0.03339  -0.02109  -0.01732  -0.01043

 Mulliken charges:
               1
     1  N   -0.784635
     2  H    0.414674
     3  H    0.373279
     4  H    0.450706
     5  C   -0.090525
     6  H    0.205281
     7  C    0.653682
     8  C   -0.508470
     9  H    0.206356
    10  H    0.164699
    11  H    0.203596
    12  O   -0.550627
    13  N   -0.611382
    14  H    0.380123
    15  C   -0.079814
    16  H    0.195924
    17  C    0.636221
    18  C   -0.353128
    19  H    0.187579
    20  H    0.160066
    21  O   -0.538794
    22  C    0.015499
    23  C    0.026555
    24  H    0.188900
    25  C    0.043032
    26  C    0.322481
    27  C   -0.231331
    28  H    0.131355
    29  N   -0.687287
    30  H    0.336667
    31  C   -0.153879
    32  H    0.138640
    33  C   -0.160570
    34  H    0.136477
    35  C   -0.142891
    36  H    0.133439
    37  N   -0.630538
    38  H    0.397570
    39  C   -0.034059
    40  H    0.180420
    41  C    0.625567
    42  C   -0.254137
    43  H    0.138138
    44  H    0.186454
    45  O   -0.535125
    46  C   -0.427276
    47  H    0.180437
    48  H    0.153335
    49  C    0.664509
    50  O   -0.606963
    51  O   -0.606965
    52  N   -0.622842
    53  H    0.342668
    54  C   -0.012534
    55  H    0.168163
    56  C    0.651691
    57  C   -0.120718
    58  H    0.156741
    59  O   -0.600415
    60  C   -0.455882
    61  H    0.170225
    62  H    0.163657
    63  H    0.131750
    64  C   -0.471656
    65  H    0.159186
    66  H    0.155175
    67  H    0.168983
    68  N   -0.572498
    69  H    0.366564
    70  C   -0.098098
    71  H    0.205958
    72  C    0.617865
    73  C    0.096880
    74  H    0.157795
    75  O   -0.539549
    76  C   -0.503988
    77  H    0.148656
    78  H    0.208353
    79  H    0.153897
    80  O   -0.630736
    81  H    0.411901
    82  N   -0.627717
    83  H    0.373954
    84  C   -0.042034
    85  H    0.169964
    86  C    0.634152
    87  C   -0.091444
    88  H    0.145393
    89  O   -0.597197
    90  C   -0.465984
    91  H    0.149707
    92  H    0.161251
    93  H    0.167051
    94  C   -0.461134
    95  H    0.153167
    96  H    0.160430
    97  H    0.165614
    98  N   -0.569153
    99  H    0.366217
   100  C   -0.078961
   101  H    0.207728
   102  C    0.598724
   103  C   -0.274584
   104  H    0.178742
   105  H    0.162307
   106  O   -0.443194
   107  C   -0.282870
   108  H    0.144208
   109  H    0.161834
   110  C   -0.299850
   111  H    0.184656
   112  H    0.165928
   113  C   -0.179667
   114  H    0.203323
   115  H    0.181753
   116  N   -0.808101
   117  H    0.384702
   118  H    0.427257
   119  H    0.465962
   120  O   -0.572341
   121  H    0.429745
 Sum of Mulliken charges =   1.00000

 Dipole moment (field-independent basis, Debye):
    X=              8.0039    Y=              2.1839    Z=             -7.9393  Tot=             11.4832
 Quadrupole moment (field-independent basis, Debye-Ang):
   XX=           -277.0039   YY=           -289.7803   ZZ=           -255.3498
   XY=             40.3298   XZ=             22.1914   YZ=             11.4659

 Normal termination of Gaussian 16 at Sun Jul 10 13:39:34 2022.
