 Gaussian 16, Revision C.01,
 Gaussian 16:  ES64L-G16RevC.01  3-Jul-2019

 ----------------------------------------------------------------------
 # B3LYP/6-31G* empiricaldispersion=gd3bj guess=read geom=check nosymm
 integral(ultrafinegrid)
 ----------------------------------------------------------------------

 ------------------------------------------------------
 Candidate Structure: Conf:772 Charge calc in gas phase
 ------------------------------------------------------
 Structure from the checkpoint file:  "conf-772.chk"
 Charge =  1 Multiplicity = 1

                          Input orientation:
 ---------------------------------------------------------------------
 Center     Atomic      Atomic             Coordinates (Angstroms)
 Number     Number       Type             X           Y           Z
 ---------------------------------------------------------------------
      1          7           0       -0.315690   -1.314957   -7.876312
      2          1           0       -0.058420   -1.676873   -8.793912
      3          1           0        0.827315   -0.258529   -7.239749
      4          1           0       -1.205174   -0.824868   -7.974561
      5          6           0       -0.514589   -2.434669   -6.926653
      6          1           0       -1.280496   -3.133281   -7.295750
      7          6           0       -1.096041   -1.773524   -5.666417
      8          6           0        0.800878   -3.185703   -6.730972
      9          1           0        0.667687   -4.061759   -6.087685
     10          1           0        1.171507   -3.555261   -7.692325
     11          1           0        1.567110   -2.529366   -6.304859
     12          8           0       -1.927703   -0.871318   -5.779715
     13          7           0       -0.644688   -2.192933   -4.459450
     14          1           0        0.154763   -2.809934   -4.427077
     15          6           0       -0.885028   -1.383881   -3.263492
     16          1           0       -1.958064   -1.195960   -3.183220
     17          6           0       -0.117073   -0.069542   -3.443463
     18          6           0       -0.368486   -2.114370   -2.015687
     19          1           0       -0.949279   -3.037074   -1.897349
     20          1           0        0.672112   -2.403401   -2.205919
     21          8           0        1.121381   -0.076646   -3.427587
     22          6           0       -0.424988   -1.280373   -0.772479
     23          6           0        0.645549   -0.671337   -0.154843
     24          1           0        1.683201   -0.645131   -0.453704
     25          6           0       -1.576761   -1.008935    0.052101
     26          6           0       -1.114426   -0.255543    1.171150
     27          6           0       -2.940825   -1.338666   -0.032453
     28          1           0       -3.320441   -1.916875   -0.871552
     29          7           0        0.240986   -0.054848    1.002884
     30          1           0        0.883354    0.415519    1.635350
     31          6           0       -3.315371   -0.200580    2.089311
     32          1           0       -4.006884    0.092741    2.873455
     33          6           0       -1.973788    0.143270    2.201262
     34          1           0       -1.604380    0.698287    3.057667
     35          6           0       -3.796469   -0.929205    0.981462
     36          1           0       -4.851491   -1.180182    0.929231
     37          7           0       -0.859755    1.038218   -3.640125
     38          1           0       -1.848586    0.899569   -3.811513
     39          6           0       -0.282509    2.343811   -3.936964
     40          1           0        0.796963    2.203145   -3.876468
     41          6           0       -0.585492    3.404918   -2.877643
     42          6           0       -0.615018    2.855798   -5.345567
     43          1           0       -1.691256    3.047128   -5.430542
     44          1           0       -0.109542    3.816825   -5.450599
     45          8           0       -0.310962    4.579338   -3.091899
     46          6           0       -0.198103    1.887005   -6.458581
     47          1           0       -0.842302    1.005183   -6.459224
     48          1           0       -0.324348    2.377181   -7.433096
     49          6           0        1.251206    1.455531   -6.342323
     50          8           0        1.592893    0.260951   -6.791471
     51          8           0        2.093410    2.184848   -5.815527
     52          7           0       -1.103033    2.960730   -1.697796
     53          1           0       -1.025660    1.967318   -1.510685
     54          6           0       -0.952255    3.836519   -0.544814
     55          1           0       -1.347286    4.817318   -0.824406
     56          6           0        0.552562    3.946995   -0.263193
     57          6           0       -1.719187    3.289797    0.676401
     58          1           0       -1.235840    2.349646    0.963916
     59          8           0        1.297721    2.960341   -0.404506
     60          6           0       -1.639296    4.260972    1.860764
     61          1           0       -2.106019    5.222640    1.612054
     62          1           0       -2.176108    3.847563    2.720074
     63          1           0       -0.609833    4.453571    2.176495
     64          6           0       -3.179142    2.991843    0.317685
     65          1           0       -3.685750    3.896662   -0.039462
     66          1           0       -3.260828    2.226040   -0.457942
     67          1           0       -3.711723    2.623423    1.198551
     68          7           0        1.009256    5.132725    0.166058
     69          1           0        0.381377    5.911701    0.329647
     70          6           0        2.417962    5.400606    0.417299
     71          1           0        2.996245    4.812080   -0.305062
     72          6           0        2.829544    4.947315    1.834724
     73          6           0        2.679125    6.903284    0.229372
     74          1           0        3.724390    7.090721    0.502475
     75          8           0        3.412301    5.697317    2.615123
     76          6           0        2.424959    7.365581   -1.197722
     77          1           0        3.123857    6.880406   -1.887676
     78          1           0        1.408074    7.127855   -1.525185
     79          1           0        2.565244    8.447602   -1.260889
     80          8           0        1.807137    7.623566    1.097655
     81          1           0        2.154135    7.472531    1.995242
     82          7           0        2.499242    3.661503    2.117187
     83          1           0        2.094662    3.103360    1.365954
     84          6           0        2.977584    2.964893    3.309988
     85          1           0        3.836496    3.535962    3.675935
     86          6           0        3.436203    1.612834    2.767562
     87          6           0        1.944055    2.884683    4.460025
     88          1           0        2.452322    2.356770    5.279927
     89          8           0        2.635702    0.787920    2.309342
     90          6           0        1.602377    4.301069    4.942540
     91          1           0        1.052686    4.851494    4.171162
     92          1           0        2.499350    4.878575    5.183311
     93          1           0        0.969051    4.251621    5.834024
     94          6           0        0.667237    2.111327    4.106591
     95          1           0        0.215564    2.507085    3.190578
     96          1           0       -0.067226    2.224095    4.911365
     97          1           0        0.858817    1.046399    3.964692
     98          7           0        4.770751    1.423721    2.688408
     99          1           0        5.416432    2.038236    3.170354
    100          6           0        5.330592    0.226205    2.088348
    101          1           0        4.603421   -0.580189    2.218279
    102          6           0        6.606976   -0.112580    2.840925
    103          6           0        5.637002    0.379468    0.576300
    104          1           0        5.871705   -0.621297    0.195489
    105          1           0        6.543230    0.985312    0.446814
    106          8           0        7.162324    0.638681    3.611293
    107          6           0        4.489363    1.006252   -0.232174
    108          1           0        3.526033    0.632236    0.122117
    109          1           0        4.469901    2.089597   -0.064321
    110          6           0        4.627431    0.700234   -1.728342
    111          1           0        5.666521    0.848676   -2.054858
    112          1           0        4.399283   -0.363814   -1.886047
    113          6           0        3.701170    1.546374   -2.602015
    114          1           0        4.089810    2.556605   -2.748159
    115          1           0        2.693152    1.620302   -2.187702
    116          7           0        3.561017    0.904906   -3.959080
    117          1           0        3.155104    1.529385   -4.707409
    118          1           0        4.452620    0.535465   -4.297596
    119          1           0        2.861581    0.148222   -3.883605
    120          8           0        7.067735   -1.331499    2.509288
    121          1           0        7.899924   -1.468556    3.002052
 ---------------------------------------------------------------------

 SCF Done:  E(RB3LYP) =  -2844.00753391     A.U. after    3 cycles

 Alpha  occ. eigenvalues --  -19.28979 -19.27555 -19.23757 -19.23743 -19.23423
 Alpha  occ. eigenvalues --  -19.23093 -19.21545 -19.21018 -19.20777 -19.19952
 Alpha  occ. eigenvalues --  -19.19794 -14.53903 -14.47629 -14.47595 -14.45863
 Alpha  occ. eigenvalues --  -14.45726 -14.45029 -14.43856 -14.43826 -14.43686
 Alpha  occ. eigenvalues --  -10.42069 -10.41432 -10.40408 -10.40070 -10.38468
 Alpha  occ. eigenvalues --  -10.37391 -10.36929 -10.36760 -10.34907 -10.34504
 Alpha  occ. eigenvalues --  -10.33954 -10.33286 -10.32560 -10.31379 -10.31138
 Alpha  occ. eigenvalues --  -10.30934 -10.30919 -10.30609 -10.29574 -10.29079
 Alpha  occ. eigenvalues --  -10.29069 -10.29024 -10.28970 -10.28511 -10.28506
 Alpha  occ. eigenvalues --  -10.28232 -10.26924 -10.26821 -10.25718 -10.25439
 Alpha  occ. eigenvalues --  -10.25418 -10.25388 -10.24946 -10.24790 -10.24651
 Alpha  occ. eigenvalues --  -10.24199 -10.23998 -10.23930 -10.23626  -1.20006
 Alpha  occ. eigenvalues --   -1.19194  -1.15768  -1.14761  -1.13616  -1.12971
 Alpha  occ. eigenvalues --   -1.11888  -1.11350  -1.11130  -1.10911  -1.09087
 Alpha  occ. eigenvalues --   -1.08565  -1.04445  -1.04190  -1.03928  -1.02397
 Alpha  occ. eigenvalues --   -1.01764  -1.01558  -1.00573  -1.00226  -0.91413
 Alpha  occ. eigenvalues --   -0.90801  -0.90204  -0.89148  -0.88595  -0.88005
 Alpha  occ. eigenvalues --   -0.86957  -0.86482  -0.84971  -0.84143  -0.82662
 Alpha  occ. eigenvalues --   -0.81961  -0.80212  -0.80108  -0.79020  -0.78631
 Alpha  occ. eigenvalues --   -0.76688  -0.76233  -0.75434  -0.75152  -0.75034
 Alpha  occ. eigenvalues --   -0.74886  -0.72683  -0.71181  -0.70785  -0.70440
 Alpha  occ. eigenvalues --   -0.69788  -0.69578  -0.68917  -0.68863  -0.68341
 Alpha  occ. eigenvalues --   -0.68282  -0.67861  -0.66799  -0.66540  -0.66091
 Alpha  occ. eigenvalues --   -0.65808  -0.65726  -0.64279  -0.64005  -0.63021
 Alpha  occ. eigenvalues --   -0.62615  -0.62225  -0.61388  -0.61052  -0.60681
 Alpha  occ. eigenvalues --   -0.60433  -0.60051  -0.59569  -0.59180  -0.58939
 Alpha  occ. eigenvalues --   -0.58822  -0.58272  -0.57807  -0.57395  -0.56762
 Alpha  occ. eigenvalues --   -0.56458  -0.56448  -0.56007  -0.55670  -0.55355
 Alpha  occ. eigenvalues --   -0.55269  -0.54882  -0.54521  -0.54498  -0.53968
 Alpha  occ. eigenvalues --   -0.53783  -0.53515  -0.53336  -0.52796  -0.52381
 Alpha  occ. eigenvalues --   -0.52045  -0.51810  -0.51476  -0.51316  -0.51053
 Alpha  occ. eigenvalues --   -0.50864  -0.50565  -0.50082  -0.49999  -0.49809
 Alpha  occ. eigenvalues --   -0.49639  -0.49473  -0.49331  -0.48878  -0.48826
 Alpha  occ. eigenvalues --   -0.48736  -0.48657  -0.48620  -0.48455  -0.48113
 Alpha  occ. eigenvalues --   -0.47993  -0.47629  -0.47272  -0.47258  -0.46725
 Alpha  occ. eigenvalues --   -0.46525  -0.46359  -0.46042  -0.45918  -0.45434
 Alpha  occ. eigenvalues --   -0.45379  -0.45184  -0.45050  -0.44985  -0.44843
 Alpha  occ. eigenvalues --   -0.44689  -0.44635  -0.44006  -0.43960  -0.43527
 Alpha  occ. eigenvalues --   -0.43362  -0.43273  -0.42027  -0.41543  -0.41357
 Alpha  occ. eigenvalues --   -0.41127  -0.41058  -0.40900  -0.40839  -0.40434
 Alpha  occ. eigenvalues --   -0.40303  -0.39939  -0.39837  -0.39768  -0.39334
 Alpha  occ. eigenvalues --   -0.39141  -0.38436  -0.37421  -0.37240  -0.36801
 Alpha  occ. eigenvalues --   -0.36621  -0.35894  -0.35732  -0.35289  -0.35083
 Alpha  occ. eigenvalues --   -0.34254  -0.34170  -0.34001  -0.33042  -0.32698
 Alpha  occ. eigenvalues --   -0.31920  -0.28919  -0.27269
 Alpha virt. eigenvalues --   -0.10386  -0.09559  -0.09094  -0.08697  -0.08105
 Alpha virt. eigenvalues --   -0.07979  -0.07450  -0.06268  -0.05222  -0.04748
 Alpha virt. eigenvalues --   -0.04202  -0.03615  -0.02922  -0.01710  -0.01575

 Mulliken charges:
               1
     1  N   -0.785712
     2  H    0.342550
     3  H    0.484019
     4  H    0.357480
     5  C   -0.063050
     6  H    0.189876
     7  C    0.636964
     8  C   -0.489383
     9  H    0.171828
    10  H    0.180085
    11  H    0.170932
    12  O   -0.534907
    13  N   -0.601124
    14  H    0.347168
    15  C   -0.043587
    16  H    0.180268
    17  C    0.656555
    18  C   -0.374057
    19  H    0.177570
    20  H    0.146983
    21  O   -0.598567
    22  C    0.030146
    23  C    0.015932
    24  H    0.141943
    25  C    0.072907
    26  C    0.299540
    27  C   -0.218620
    28  H    0.120491
    29  N   -0.715095
    30  H    0.394690
    31  C   -0.151932
    32  H    0.138049
    33  C   -0.178389
    34  H    0.153463
    35  C   -0.138240
    36  H    0.135534
    37  N   -0.603130
    38  H    0.363546
    39  C   -0.083739
    40  H    0.201916
    41  C    0.629660
    42  C   -0.269613
    43  H    0.159647
    44  H    0.208925
    45  O   -0.523711
    46  C   -0.421160
    47  H    0.196974
    48  H    0.198143
    49  C    0.630720
    50  O   -0.618935
    51  O   -0.525944
    52  N   -0.607129
    53  H    0.352234
    54  C   -0.032102
    55  H    0.175506
    56  C    0.639868
    57  C   -0.128287
    58  H    0.159354
    59  O   -0.597726
    60  C   -0.477816
    61  H    0.151317
    62  H    0.163703
    63  H    0.158236
    64  C   -0.434347
    65  H    0.146487
    66  H    0.149275
    67  H    0.160304
    68  N   -0.580520
    69  H    0.360784
    70  C   -0.074299
    71  H    0.171121
    72  C    0.622269
    73  C    0.102626
    74  H    0.155065
    75  O   -0.533314
    76  C   -0.452366
    77  H    0.140917
    78  H    0.167109
    79  H    0.177384
    80  O   -0.641034
    81  H    0.416667
    82  N   -0.653175
    83  H    0.390375
    84  C   -0.030972
    85  H    0.173715
    86  C    0.623070
    87  C   -0.078445
    88  H    0.141570
    89  O   -0.555217
    90  C   -0.456136
    91  H    0.152951
    92  H    0.167271
    93  H    0.154609
    94  C   -0.476244
    95  H    0.152143
    96  H    0.153904
    97  H    0.166270
    98  N   -0.603341
    99  H    0.363412
   100  C   -0.047025
   101  H    0.208211
   102  C    0.586531
   103  C   -0.275568
   104  H    0.167004
   105  H    0.156950
   106  O   -0.454618
   107  C   -0.295506
   108  H    0.200161
   109  H    0.156834
   110  C   -0.296194
   111  H    0.156899
   112  H    0.151249
   113  C   -0.194980
   114  H    0.197891
   115  H    0.244925
   116  N   -0.779421
   117  H    0.447273
   118  H    0.382611
   119  H    0.425851
   120  O   -0.560972
   121  H    0.429239
 Sum of Mulliken charges =   1.00000

 Dipole moment (field-independent basis, Debye):
    X=              9.9214    Y=             -2.3718    Z=            -15.6079  Tot=             18.6458
 Quadrupole moment (field-independent basis, Debye-Ang):
   XX=           -269.9759   YY=           -334.5764   ZZ=           -212.4204
   XY=             -6.1157   XZ=             -8.8604   YZ=             32.3361

 Normal termination of Gaussian 16 at Sun Jul 10 13:41:30 2022.
