 Gaussian 16, Revision C.01,
 Gaussian 16:  ES64L-G16RevC.01  3-Jul-2019

 ----------------------------------------------------------------------
 # B3LYP/6-31G* empiricaldispersion=gd3bj guess=read geom=check nosymm
 integral(ultrafinegrid)
 ----------------------------------------------------------------------

 ------------------------------------------------------
 Candidate Structure: Conf:731 Charge calc in gas phase
 ------------------------------------------------------
 Structure from the checkpoint file:  "conf-731.chk"
 Charge =  1 Multiplicity = 1

                          Input orientation:
 ---------------------------------------------------------------------
 Center     Atomic      Atomic             Coordinates (Angstroms)
 Number     Number       Type             X           Y           Z
 ---------------------------------------------------------------------
      1          7           0       -7.298620   -1.917363   -6.471448
      2          1           0       -8.277576   -1.900300   -6.175956
      3          1           0       -7.259478   -2.184100   -7.458968
      4          1           0       -6.847526   -0.953026   -6.321952
      5          6           0       -6.413124   -2.780343   -5.593653
      6          1           0       -7.044861   -3.228562   -4.823263
      7          6           0       -5.451480   -1.734729   -4.961666
      8          6           0       -5.693841   -3.849904   -6.410531
      9          1           0       -5.038866   -4.436033   -5.760584
     10          1           0       -6.405424   -4.540601   -6.873435
     11          1           0       -5.067524   -3.395781   -7.186012
     12          8           0       -5.570237   -0.550825   -5.336241
     13          7           0       -4.583307   -2.205316   -4.093513
     14          1           0       -4.486124   -3.206236   -3.874931
     15          6           0       -3.506772   -1.458520   -3.454012
     16          1           0       -3.094343   -0.741736   -4.167888
     17          6           0       -2.481322   -2.553767   -3.096729
     18          6           0       -3.947493   -0.743142   -2.139017
     19          1           0       -4.987937   -1.028572   -1.938290
     20          1           0       -3.348677   -1.143244   -1.314223
     21          8           0       -2.855595   -3.729708   -3.052959
     22          6           0       -3.805777    0.750194   -2.149805
     23          6           0       -4.055609    1.623699   -3.180748
     24          1           0       -4.366772    1.417094   -4.195121
     25          6           0       -3.473541    1.556567   -1.002449
     26          6           0       -3.557588    2.920683   -1.405827
     27          6           0       -3.146108    1.253539    0.330148
     28          1           0       -3.035877    0.220773    0.646174
     29          7           0       -3.889395    2.926521   -2.743196
     30          1           0       -4.047026    3.748974   -3.304358
     31          6           0       -3.109924    3.642104    0.824939
     32          1           0       -3.064586    4.432996    1.571114
     33          6           0       -3.380996    3.974703   -0.504026
     34          1           0       -3.511179    5.009415   -0.810767
     35          6           0       -2.968456    2.295920    1.232031
     36          1           0       -2.745087    2.074259    2.271314
     37          7           0       -1.254801   -2.103840   -2.812909
     38          1           0       -1.124652   -1.097015   -2.799011
     39          6           0       -0.313559   -2.848225   -1.975885
     40          1           0       -0.506512   -3.911502   -2.128271
     41          6           0       -0.560665   -2.483213   -0.490661
     42          6           0        1.108885   -2.483726   -2.464980
     43          1           0        1.141685   -2.726777   -3.533214
     44          1           0        1.225771   -1.396692   -2.375006
     45          8           0       -1.381419   -1.519468   -0.230689
     46          6           0        2.298876   -3.169815   -1.769397
     47          1           0        3.206674   -2.908594   -2.319122
     48          1           0        2.399509   -2.812058   -0.741968
     49          6           0        2.181662   -4.694366   -1.792458
     50          8           0        2.733175   -5.378659   -2.627751
     51          8           0        1.388366   -5.220992   -0.849618
     52          7           0        0.172043   -3.151517    0.354968
     53          1           0        0.989427   -4.480828   -0.285199
     54          6           0        0.250980   -2.681335    1.739976
     55          1           0       -0.731164   -2.342681    2.103475
     56          6           0        1.187682   -1.469792    1.630035
     57          6           0        0.795127   -3.770402    2.669128
     58          1           0        1.795236   -4.032272    2.302995
     59          8           0        2.418063   -1.543062    1.727837
     60          6           0        0.921201   -3.244069    4.103581
     61          1           0       -0.058999   -2.946528    4.499455
     62          1           0        1.321816   -4.019785    4.764755
     63          1           0        1.590641   -2.379483    4.159172
     64          6           0       -0.095100   -5.015962    2.612651
     65          1           0       -1.112390   -4.784194    2.955234
     66          1           0       -0.161875   -5.414451    1.596976
     67          1           0        0.304985   -5.802570    3.261483
     68          7           0        0.553222   -0.309885    1.266073
     69          1           0       -0.414233   -0.469312    0.976752
     70          6           0        1.302387    0.697601    0.511738
     71          1           0        2.103200    0.188808   -0.039636
     72          6           0        1.968460    1.650868    1.510869
     73          6           0        0.413113    1.430455   -0.515827
     74          1           0       -0.365571    1.975328    0.040485
     75          8           0        1.540634    2.800557    1.774440
     76          6           0        1.245471    2.390452   -1.362501
     77          1           0        1.840815    3.077545   -0.756015
     78          1           0        1.934395    1.812226   -1.985913
     79          1           0        0.588527    2.956603   -2.031320
     80          8           0       -0.199452    0.536604   -1.424204
     81          1           0       -0.741224   -0.138631   -0.936311
     82          7           0        3.046994    1.153669    2.107625
     83          1           0        3.242220    0.165144    1.926487
     84          6           0        3.906643    1.937868    2.977436
     85          1           0        3.328816    2.279112    3.847505
     86          6           0        4.388059    3.164092    2.176485
     87          6           0        5.088585    1.066790    3.463318
     88          1           0        5.621854    0.733937    2.562500
     89          8           0        4.640451    3.097869    0.980500
     90          6           0        6.059584    1.879197    4.329366
     91          1           0        5.555897    2.265216    5.225815
     92          1           0        6.495558    2.727805    3.795738
     93          1           0        6.878879    1.238039    4.668335
     94          6           0        4.584954   -0.163171    4.234146
     95          1           0        4.014272    0.145183    5.119319
     96          1           0        5.436189   -0.759178    4.578438
     97          1           0        3.949024   -0.818346    3.631972
     98          7           0        4.493581    4.320858    2.890268
     99          1           0        4.345329    4.306972    3.888956
    100          6           0        4.928055    5.554041    2.261135
    101          1           0        5.437630    5.251282    1.338280
    102          6           0        5.944677    6.319936    3.095639
    103          6           0        3.744663    6.472459    1.886431
    104          1           0        4.144755    7.364599    1.395079
    105          1           0        3.253634    6.811867    2.809497
    106          8           0        6.271244    7.461586    2.871096
    107          6           0        2.734025    5.738423    1.004486
    108          1           0        3.206186    5.447409    0.058163
    109          1           0        2.467135    4.806119    1.505886
    110          6           0        1.464894    6.546716    0.719065
    111          1           0        1.056203    6.962768    1.652564
    112          1           0        1.687384    7.408881    0.079099
    113          6           0        0.378209    5.728487    0.024111
    114          1           0        0.753864    5.236578   -0.875439
    115          1           0       -0.479961    6.348158   -0.249774
    116          7           0       -0.144227    4.633405    0.916503
    117          1           0       -1.004519    4.204558    0.535971
    118          1           0        0.552123    3.840216    1.115096
    119          1           0       -0.398265    5.014441    1.832652
    120          8           0        6.450682    5.589084    4.116557
    121          1           0        7.101376    6.161268    4.567233
 ---------------------------------------------------------------------

 SCF Done:  E(RB3LYP) =  -2843.90746411     A.U. after    1 cycles

 Alpha  occ. eigenvalues --  -19.27222 -19.27209 -19.21586 -19.21040 -19.20216
 Alpha  occ. eigenvalues --  -19.19767 -19.18408 -19.18059 -19.17111 -19.16001
 Alpha  occ. eigenvalues --  -19.12641 -14.60107 -14.53335 -14.48961 -14.46727
 Alpha  occ. eigenvalues --  -14.43518 -14.43166 -14.42931 -14.41120 -14.34566
 Alpha  occ. eigenvalues --  -10.43556 -10.41250 -10.39372 -10.37198 -10.36899
 Alpha  occ. eigenvalues --  -10.35677 -10.35088 -10.34077 -10.33662 -10.33406
 Alpha  occ. eigenvalues --  -10.31417 -10.31358 -10.31268 -10.30954 -10.30902
 Alpha  occ. eigenvalues --  -10.30429 -10.30302 -10.29965 -10.29415 -10.28683
 Alpha  occ. eigenvalues --  -10.28177 -10.27698 -10.27663 -10.27121 -10.27099
 Alpha  occ. eigenvalues --  -10.26971 -10.26780 -10.26736 -10.26423 -10.26247
 Alpha  occ. eigenvalues --  -10.25799 -10.25025 -10.23590 -10.23503 -10.22991
 Alpha  occ. eigenvalues --  -10.21888 -10.21565 -10.20706 -10.19842  -1.19440
 Alpha  occ. eigenvalues --   -1.17932  -1.13947  -1.12755  -1.12183  -1.10514
 Alpha  occ. eigenvalues --   -1.09575  -1.08862  -1.08652  -1.08464  -1.07958
 Alpha  occ. eigenvalues --   -1.06526  -1.05887  -1.05375  -1.00571  -1.00402
 Alpha  occ. eigenvalues --   -1.00161  -0.99830  -0.97947  -0.93451  -0.92948
 Alpha  occ. eigenvalues --   -0.92875  -0.90061  -0.89471  -0.87791  -0.86084
 Alpha  occ. eigenvalues --   -0.85476  -0.84855  -0.83839  -0.82465  -0.82364
 Alpha  occ. eigenvalues --   -0.81679  -0.80818  -0.80483  -0.79285  -0.76946
 Alpha  occ. eigenvalues --   -0.76525  -0.75822  -0.74531  -0.74466  -0.74124
 Alpha  occ. eigenvalues --   -0.72951  -0.72580  -0.71280  -0.71160  -0.70393
 Alpha  occ. eigenvalues --   -0.69553  -0.69269  -0.68242  -0.67623  -0.67228
 Alpha  occ. eigenvalues --   -0.66940  -0.66604  -0.66451  -0.66230  -0.64967
 Alpha  occ. eigenvalues --   -0.64824  -0.64394  -0.64325  -0.63352  -0.62930
 Alpha  occ. eigenvalues --   -0.62683  -0.60981  -0.60517  -0.60375  -0.59856
 Alpha  occ. eigenvalues --   -0.59740  -0.59459  -0.59117  -0.57988  -0.57713
 Alpha  occ. eigenvalues --   -0.57367  -0.56935  -0.56598  -0.56406  -0.56063
 Alpha  occ. eigenvalues --   -0.55984  -0.55489  -0.55275  -0.54804  -0.54248
 Alpha  occ. eigenvalues --   -0.54081  -0.53864  -0.53535  -0.53365  -0.52773
 Alpha  occ. eigenvalues --   -0.52560  -0.52194  -0.51993  -0.51717  -0.51585
 Alpha  occ. eigenvalues --   -0.51008  -0.50800  -0.50685  -0.50315  -0.50170
 Alpha  occ. eigenvalues --   -0.50059  -0.49745  -0.49721  -0.49317  -0.49159
 Alpha  occ. eigenvalues --   -0.48901  -0.48333  -0.48067  -0.47677  -0.47494
 Alpha  occ. eigenvalues --   -0.47136  -0.47062  -0.46871  -0.46577  -0.46160
 Alpha  occ. eigenvalues --   -0.45679  -0.45442  -0.45414  -0.45245  -0.45094
 Alpha  occ. eigenvalues --   -0.44813  -0.44298  -0.44259  -0.44079  -0.43920
 Alpha  occ. eigenvalues --   -0.43835  -0.43461  -0.42973  -0.42745  -0.42555
 Alpha  occ. eigenvalues --   -0.42445  -0.42382  -0.42041  -0.41829  -0.41804
 Alpha  occ. eigenvalues --   -0.41715  -0.40973  -0.40411  -0.40315  -0.40066
 Alpha  occ. eigenvalues --   -0.39856  -0.39349  -0.38927  -0.38915  -0.38640
 Alpha  occ. eigenvalues --   -0.38231  -0.37123  -0.36650  -0.36427  -0.36252
 Alpha  occ. eigenvalues --   -0.36159  -0.35779  -0.35428  -0.34390  -0.34273
 Alpha  occ. eigenvalues --   -0.33475  -0.33126  -0.32456  -0.32320  -0.31914
 Alpha  occ. eigenvalues --   -0.31655  -0.31132  -0.30608  -0.30049  -0.29111
 Alpha  occ. eigenvalues --   -0.28871  -0.27299  -0.26218
 Alpha virt. eigenvalues --   -0.12260  -0.11284  -0.10454  -0.07145  -0.06891
 Alpha virt. eigenvalues --   -0.06539  -0.06328  -0.05736  -0.05428  -0.04681
 Alpha virt. eigenvalues --   -0.04422  -0.04280  -0.02650  -0.01364  -0.01093

 Mulliken charges:
               1
     1  N   -0.759667
     2  H    0.416108
     3  H    0.414098
     4  H    0.434423
     5  C   -0.107043
     6  H    0.228707
     7  C    0.652477
     8  C   -0.486297
     9  H    0.230977
    10  H    0.195647
    11  H    0.194173
    12  O   -0.555208
    13  N   -0.602753
    14  H    0.379887
    15  C   -0.062195
    16  H    0.188859
    17  C    0.616215
    18  C   -0.390565
    19  H    0.163263
    20  H    0.238897
    21  O   -0.542508
    22  C    0.070564
    23  C   -0.004098
    24  H    0.178794
    25  C    0.074808
    26  C    0.331830
    27  C   -0.212872
    28  H    0.183012
    29  N   -0.694977
    30  H    0.335446
    31  C   -0.237947
    32  H    0.132291
    33  C   -0.180686
    34  H    0.136720
    35  C   -0.141140
    36  H    0.145119
    37  N   -0.590581
    38  H    0.358168
    39  C   -0.098623
    40  H    0.212600
    41  C    0.595374
    42  C   -0.288474
    43  H    0.161065
    44  H    0.148232
    45  O   -0.666630
    46  C   -0.375366
    47  H    0.161267
    48  H    0.177456
    49  C    0.572330
    50  O   -0.472433
    51  O   -0.624135
    52  N   -0.567876
    53  H    0.468326
    54  C   -0.029001
    55  H    0.128598
    56  C    0.618542
    57  C   -0.077647
    58  H    0.153374
    59  O   -0.559564
    60  C   -0.463153
    61  H    0.130817
    62  H    0.150720
    63  H    0.149190
    64  C   -0.453388
    65  H    0.127559
    66  H    0.173375
    67  H    0.145345
    68  N   -0.628901
    69  H    0.367304
    70  C   -0.084895
    71  H    0.188079
    72  C    0.686684
    73  C    0.131449
    74  H    0.101574
    75  O   -0.622237
    76  C   -0.488827
    77  H    0.158451
    78  H    0.181976
    79  H    0.146511
    80  O   -0.702562
    81  H    0.444544
    82  N   -0.613416
    83  H    0.399920
    84  C   -0.006288
    85  H    0.146152
    86  C    0.630413
    87  C   -0.115671
    88  H    0.162736
    89  O   -0.531773
    90  C   -0.470600
    91  H    0.135915
    92  H    0.170730
    93  H    0.165716
    94  C   -0.475886
    95  H    0.142543
    96  H    0.163232
    97  H    0.189735
    98  N   -0.605983
    99  H    0.338949
   100  C   -0.063400
   101  H    0.222843
   102  C    0.590646
   103  C   -0.258657
   104  H    0.179709
   105  H    0.133752
   106  O   -0.450200
   107  C   -0.306619
   108  H    0.167225
   109  H    0.185747
   110  C   -0.283917
   111  H    0.144425
   112  H    0.179065
   113  C   -0.185190
   114  H    0.208482
   115  H    0.183874
   116  N   -0.805423
   117  H    0.411186
   118  H    0.475472
   119  H    0.380861
   120  O   -0.569457
   121  H    0.424173
 Sum of Mulliken charges =   1.00000

 Dipole moment (field-independent basis, Debye):
    X=            -26.8216    Y=             15.7937    Z=            -14.5961  Tot=             34.3786
 Quadrupole moment (field-independent basis, Debye-Ang):
   XX=           -144.3836   YY=           -307.2744   ZZ=           -168.0771
   XY=             77.8515   XZ=            206.0890   YZ=             53.9472

 Normal termination of Gaussian 16 at Sun Jul 10 13:39:30 2022.
