 Gaussian 16, Revision C.01,
 Gaussian 16:  ES64L-G16RevC.01  3-Jul-2019

 ----------------------------------------------------------------------
 # B3LYP/6-31G* empiricaldispersion=gd3bj guess=read geom=check nosymm
 integral(ultrafinegrid)
 ----------------------------------------------------------------------

 ------------------------------------------------------
 Candidate Structure: Conf:234 Charge calc in gas phase
 ------------------------------------------------------
 Structure from the checkpoint file:  "conf-234.chk"
 Charge =  1 Multiplicity = 1

                          Input orientation:
 ---------------------------------------------------------------------
 Center     Atomic      Atomic             Coordinates (Angstroms)
 Number     Number       Type             X           Y           Z
 ---------------------------------------------------------------------
      1          7           0       -7.126943   -3.746450   -3.977215
      2          1           0       -7.281316   -3.543598   -2.956331
      3          1           0       -7.847314   -4.381098   -4.330511
      4          1           0       -7.167867   -2.824690   -4.459542
      5          6           0       -5.718527   -4.237835   -4.230759
      6          1           0       -5.471804   -4.945716   -3.436937
      7          6           0       -4.914659   -2.925254   -4.113476
      8          6           0       -5.614923   -4.866313   -5.615406
      9          1           0       -4.586687   -5.196321   -5.787802
     10          1           0       -6.267565   -5.740743   -5.709651
     11          1           0       -5.869010   -4.134783   -6.388764
     12          8           0       -5.444776   -1.904991   -4.560441
     13          7           0       -3.734699   -2.979787   -3.492959
     14          1           0       -3.303763   -3.851455   -3.195100
     15          6           0       -3.098005   -1.794903   -2.949702
     16          1           0       -3.244223   -0.967703   -3.646817
     17          6           0       -1.625296   -2.157768   -2.749421
     18          6           0       -3.691688   -1.441406   -1.531883
     19          1           0       -3.179713   -2.060478   -0.789561
     20          1           0       -3.421917   -0.406554   -1.298260
     21          8           0       -1.294776   -3.336716   -2.646603
     22          6           0       -5.171181   -1.643189   -1.435066
     23          6           0       -5.787820   -2.780319   -1.005015
     24          1           0       -5.358582   -3.675649   -0.575538
     25          6           0       -6.217716   -0.736049   -1.875453
     26          6           0       -7.453467   -1.392313   -1.688372
     27          6           0       -6.203874    0.553981   -2.419808
     28          1           0       -5.266489    1.074410   -2.589987
     29          7           0       -7.185372   -2.707514   -1.231464
     30          1           0       -7.813173   -3.127037   -0.551205
     31          6           0       -8.636762    0.491392   -2.527099
     32          1           0       -9.567349    0.992544   -2.773664
     33          6           0       -8.674072   -0.801401   -2.007485
     34          1           0       -9.617817   -1.314584   -1.844438
     35          6           0       -7.415713    1.157581   -2.735848
     36          1           0       -7.423784    2.160496   -3.150433
     37          7           0       -0.766154   -1.122115   -2.610601
     38          1           0       -1.162645   -0.193877   -2.533627
     39          6           0        0.503200   -1.332007   -1.920320
     40          1           0        1.113722   -2.018590   -2.515491
     41          6           0        0.208802   -1.932500   -0.529319
     42          6           0        1.203683    0.030448   -1.764236
     43          1           0        1.212043    0.536106   -2.734973
     44          1           0        0.596577    0.638871   -1.082844
     45          8           0       -0.772709   -1.561950    0.112719
     46          6           0        2.642722   -0.063670   -1.235191
     47          1           0        2.724807   -0.687245   -0.345035
     48          1           0        3.286358   -0.501877   -2.008935
     49          6           0        3.205937    1.300401   -0.866742
     50          8           0        3.666185    1.544304    0.241490
     51          8           0        3.132982    2.178477   -1.853529
     52          7           0        1.113451   -2.828510   -0.065036
     53          1           0        1.960303   -2.975956   -0.601278
     54          6           0        1.215253   -3.130566    1.368112
     55          1           0        0.201354   -3.062934    1.769628
     56          6           0        2.105134   -2.008172    1.917550
     57          6           0        1.799665   -4.523881    1.623188
     58          1           0        2.813166   -4.529230    1.200221
     59          8           0        3.309298   -1.979720    1.625851
     60          6           0        1.911628   -4.768291    3.133233
     61          1           0        0.921893   -4.748044    3.606853
     62          1           0        2.354237   -5.749612    3.330196
     63          1           0        2.539316   -4.016990    3.622899
     64          6           0        0.957272   -5.607769    0.943175
     65          1           0       -0.053325   -5.636995    1.370008
     66          1           0        0.859625   -5.432962   -0.132771
     67          1           0        1.410733   -6.593207    1.091558
     68          7           0        1.478117   -1.017759    2.573682
     69          1           0        0.503509   -1.099154    2.838578
     70          6           0        2.099172    0.280819    2.816193
     71          1           0        2.723481    0.523576    1.949124
     72          6           0        3.009579    0.263497    4.053708
     73          6           0        0.995590    1.337530    2.982189
     74          1           0        1.491746    2.274546    3.265653
     75          8           0        2.714979    0.883333    5.089362
     76          6           0        0.196898    1.563894    1.707269
     77          1           0        0.857079    1.944781    0.921178
     78          1           0       -0.276731    0.641597    1.355257
     79          1           0       -0.586947    2.302788    1.896787
     80          8           0        0.099573    0.921988    4.008054
     81          1           0        0.644123    0.934261    4.819316
     82          7           0        4.158282   -0.414122    3.886565
     83          1           0        4.301802   -0.862774    2.982164
     84          6           0        5.272527   -0.346610    4.837417
     85          1           0        4.835252   -0.238804    5.835196
     86          6           0        6.032132    0.941301    4.444436
     87          6           0        6.153662   -1.597688    4.771674
     88          1           0        6.659593   -1.583169    3.798230
     89          8           0        7.026283    0.927077    3.732260
     90          6           0        7.228233   -1.529164    5.863445
     91          1           0        6.772692   -1.520336    6.861935
     92          1           0        7.846032   -0.633722    5.754325
     93          1           0        7.886876   -2.401925    5.805744
     94          6           0        5.318939   -2.878761    4.886463
     95          1           0        4.738433   -2.890041    5.817664
     96          1           0        5.973589   -3.756796    4.890302
     97          1           0        4.621488   -2.984800    4.049696
     98          7           0        5.405428    2.088111    4.856299
     99          1           0        4.493043    1.963450    5.289708
    100          6           0        5.586850    3.311265    4.081753
    101          1           0        6.523681    3.165436    3.531674
    102          6           0        5.782157    4.513330    4.998963
    103          6           0        4.418636    3.516479    3.106413
    104          1           0        3.541557    3.855504    3.671425
    105          1           0        4.179671    2.541049    2.671111
    106          8           0        5.141629    5.541773    4.943973
    107          6           0        4.704118    4.483800    1.955931
    108          1           0        5.077091    5.438208    2.342870
    109          1           0        5.505133    4.047073    1.342750
    110          6           0        3.444386    4.726510    1.111594
    111          1           0        2.935305    3.772537    0.938841
    112          1           0        2.756763    5.366922    1.677663
    113          6           0        3.714412    5.383468   -0.241907
    114          1           0        4.311144    6.297275   -0.104481
    115          1           0        2.769571    5.678746   -0.710803
    116          7           0        4.382323    4.439511   -1.172135
    117          1           0        4.658203    4.926615   -2.024609
    118          1           0        5.244825    4.097444   -0.748528
    119          1           0        3.568514    3.075073   -1.555012
    120          8           0        6.777766    4.315241    5.886490
    121          1           0        6.836172    5.132052    6.417307
 ---------------------------------------------------------------------

 SCF Done:  E(RB3LYP) =  -2843.94931483     A.U. after    1 cycles

 Alpha  occ. eigenvalues --  -19.25433 -19.23517 -19.22342 -19.22139 -19.20142
 Alpha  occ. eigenvalues --  -19.19041 -19.18947 -19.18630 -19.18175 -19.18107
 Alpha  occ. eigenvalues --  -19.15861 -14.58626 -14.49903 -14.48878 -14.46151
 Alpha  occ. eigenvalues --  -14.44640 -14.43385 -14.41422 -14.40804 -14.39566
 Alpha  occ. eigenvalues --  -10.42668 -10.40238 -10.39211 -10.37154 -10.37040
 Alpha  occ. eigenvalues --  -10.36040 -10.35817 -10.34982 -10.34593 -10.33274
 Alpha  occ. eigenvalues --  -10.32975 -10.32928 -10.32655 -10.32521 -10.30426
 Alpha  occ. eigenvalues --  -10.30273 -10.30240 -10.29505 -10.29380 -10.29258
 Alpha  occ. eigenvalues --  -10.28778 -10.28690 -10.28365 -10.28158 -10.27932
 Alpha  occ. eigenvalues --  -10.27598 -10.27591 -10.27427 -10.26312 -10.26130
 Alpha  occ. eigenvalues --  -10.23881 -10.23736 -10.23326 -10.23199 -10.23032
 Alpha  occ. eigenvalues --  -10.22902 -10.22846 -10.21584 -10.20901  -1.18254
 Alpha  occ. eigenvalues --   -1.14627  -1.14594  -1.14097  -1.12903  -1.12094
 Alpha  occ. eigenvalues --   -1.10840  -1.09661  -1.08730  -1.07679  -1.06611
 Alpha  occ. eigenvalues --   -1.05748  -1.05563  -1.05248  -1.02810  -1.00998
 Alpha  occ. eigenvalues --   -0.99532  -0.98135  -0.96540  -0.96352  -0.94525
 Alpha  occ. eigenvalues --   -0.92876  -0.91371  -0.89186  -0.87447  -0.86549
 Alpha  occ. eigenvalues --   -0.85438  -0.84573  -0.83978  -0.83226  -0.83000
 Alpha  occ. eigenvalues --   -0.81201  -0.80510  -0.80385  -0.78777  -0.77367
 Alpha  occ. eigenvalues --   -0.76712  -0.75355  -0.74853  -0.73528  -0.73214
 Alpha  occ. eigenvalues --   -0.72552  -0.72246  -0.71830  -0.71434  -0.71319
 Alpha  occ. eigenvalues --   -0.69834  -0.69153  -0.68669  -0.67798  -0.67111
 Alpha  occ. eigenvalues --   -0.66390  -0.65604  -0.65298  -0.64886  -0.64604
 Alpha  occ. eigenvalues --   -0.64210  -0.63842  -0.63406  -0.62674  -0.62483
 Alpha  occ. eigenvalues --   -0.62235  -0.61631  -0.61129  -0.59966  -0.59397
 Alpha  occ. eigenvalues --   -0.58938  -0.58512  -0.57975  -0.57883  -0.57456
 Alpha  occ. eigenvalues --   -0.57163  -0.57123  -0.56804  -0.55969  -0.55794
 Alpha  occ. eigenvalues --   -0.55706  -0.55020  -0.54524  -0.54201  -0.54091
 Alpha  occ. eigenvalues --   -0.54029  -0.53611  -0.53483  -0.53069  -0.52570
 Alpha  occ. eigenvalues --   -0.52402  -0.52271  -0.52159  -0.51713  -0.51596
 Alpha  occ. eigenvalues --   -0.51416  -0.51077  -0.50885  -0.50597  -0.50336
 Alpha  occ. eigenvalues --   -0.49945  -0.49862  -0.49752  -0.49293  -0.48608
 Alpha  occ. eigenvalues --   -0.48587  -0.48409  -0.48233  -0.47832  -0.47384
 Alpha  occ. eigenvalues --   -0.47285  -0.46991  -0.46896  -0.46643  -0.46331
 Alpha  occ. eigenvalues --   -0.46215  -0.45747  -0.45359  -0.45208  -0.45004
 Alpha  occ. eigenvalues --   -0.44760  -0.44481  -0.44360  -0.44335  -0.43996
 Alpha  occ. eigenvalues --   -0.43736  -0.43686  -0.43465  -0.43292  -0.42983
 Alpha  occ. eigenvalues --   -0.42581  -0.42225  -0.42098  -0.41925  -0.41717
 Alpha  occ. eigenvalues --   -0.40837  -0.40693  -0.40512  -0.40393  -0.40179
 Alpha  occ. eigenvalues --   -0.39757  -0.39446  -0.38818  -0.38556  -0.38218
 Alpha  occ. eigenvalues --   -0.38023  -0.37890  -0.37671  -0.37488  -0.36925
 Alpha  occ. eigenvalues --   -0.36570  -0.36064  -0.35835  -0.35626  -0.35548
 Alpha  occ. eigenvalues --   -0.34431  -0.33788  -0.33526  -0.33479  -0.32589
 Alpha  occ. eigenvalues --   -0.32395  -0.32196  -0.32027  -0.31963  -0.31568
 Alpha  occ. eigenvalues --   -0.30204  -0.29324  -0.28345
 Alpha virt. eigenvalues --   -0.12467  -0.12177  -0.09414  -0.08839  -0.08607
 Alpha virt. eigenvalues --   -0.07083  -0.05319  -0.05199  -0.04532  -0.04280
 Alpha virt. eigenvalues --   -0.04127  -0.03591  -0.03275  -0.02484  -0.01524

 Mulliken charges:
               1
     1  N   -0.765436
     2  H    0.441529
     3  H    0.400104
     4  H    0.423916
     5  C   -0.108042
     6  H    0.198050
     7  C    0.658155
     8  C   -0.469837
     9  H    0.212213
    10  H    0.183410
    11  H    0.201336
    12  O   -0.527358
    13  N   -0.599341
    14  H    0.361106
    15  C   -0.073251
    16  H    0.197679
    17  C    0.647905
    18  C   -0.377035
    19  H    0.207951
    20  H    0.177515
    21  O   -0.533775
    22  C    0.110906
    23  C   -0.076672
    24  H    0.168945
    25  C    0.145739
    26  C    0.215540
    27  C   -0.185297
    28  H    0.139689
    29  N   -0.723681
    30  H    0.357497
    31  C   -0.142282
    32  H    0.157232
    33  C   -0.189896
    34  H    0.143677
    35  C   -0.133175
    36  H    0.155421
    37  N   -0.602526
    38  H    0.342285
    39  C   -0.035918
    40  H    0.174086
    41  C    0.642755
    42  C   -0.319613
    43  H    0.183177
    44  H    0.169728
    45  O   -0.549533
    46  C   -0.382655
    47  H    0.197650
    48  H    0.173073
    49  C    0.589134
    50  O   -0.491966
    51  O   -0.610141
    52  N   -0.594494
    53  H    0.345474
    54  C   -0.034803
    55  H    0.167309
    56  C    0.636949
    57  C   -0.095028
    58  H    0.152386
    59  O   -0.571185
    60  C   -0.471715
    61  H    0.142909
    62  H    0.162340
    63  H    0.175185
    64  C   -0.449110
    65  H    0.139384
    66  H    0.155178
    67  H    0.157056
    68  N   -0.589482
    69  H    0.357282
    70  C   -0.113945
    71  H    0.231674
    72  C    0.637300
    73  C    0.106009
    74  H    0.150158
    75  O   -0.573886
    76  C   -0.491557
    77  H    0.150668
    78  H    0.168483
    79  H    0.163117
    80  O   -0.652378
    81  H    0.418985
    82  N   -0.616969
    83  H    0.387276
    84  C   -0.051276
    85  H    0.172064
    86  C    0.620255
    87  C   -0.093528
    88  H    0.156841
    89  O   -0.515452
    90  C   -0.460550
    91  H    0.139581
    92  H    0.175717
    93  H    0.150230
    94  C   -0.464323
    95  H    0.141589
    96  H    0.150284
    97  H    0.156490
    98  N   -0.609284
    99  H    0.362667
   100  C   -0.061553
   101  H    0.205196
   102  C    0.586864
   103  C   -0.287935
   104  H    0.154245
   105  H    0.167921
   106  O   -0.468769
   107  C   -0.268188
   108  H    0.163257
   109  H    0.126925
   110  C   -0.278405
   111  H    0.165601
   112  H    0.149063
   113  C   -0.143091
   114  H    0.147430
   115  H    0.152038
   116  N   -0.781271
   117  H    0.330726
   118  H    0.340949
   119  H    0.474513
   120  O   -0.550893
   121  H    0.413528
 Sum of Mulliken charges =   1.00000

 Dipole moment (field-independent basis, Debye):
    X=            -24.2457    Y=            -13.3753    Z=            -15.4070  Tot=             31.6880
 Quadrupole moment (field-independent basis, Debye-Ang):
   XX=           -141.9996   YY=           -245.3304   ZZ=           -286.2428
   XY=            115.9038   XZ=             87.5579   YZ=             37.6230

 Normal termination of Gaussian 16 at Sun Jul 10 13:39:21 2022.
