 Gaussian 16, Revision C.01,
 Gaussian 16:  ES64L-G16RevC.01  3-Jul-2019

 ----------------------------------------------------------------------
 # B3LYP/6-31G* empiricaldispersion=gd3 guess=read geom=check nosymm in
 tegral(ultrafinegrid)
 ----------------------------------------------------------------------

 ------------------------------------------------------
 Candidate Structure: Conf:126 Charge calc in gas phase
 ------------------------------------------------------
 Structure from the checkpoint file:  "conf-126.chk"
 Charge =  1 Multiplicity = 1

                          Input orientation:
 ---------------------------------------------------------------------
 Center     Atomic      Atomic             Coordinates (Angstroms)
 Number     Number       Type             X           Y           Z
 ---------------------------------------------------------------------
      1          7           0       -0.758800   -0.451550    2.969529
      2          1           0       -0.306092   -0.622068    3.869482
      3          1           0       -0.498052   -1.174412    2.280364
      4          1           0       -0.443663    0.480390    2.538063
      5          6           0       -2.270022   -0.467323    3.043303
      6          1           0       -2.555233   -1.411502    3.519468
      7          6           0       -2.644118   -0.502387    1.536238
      8          6           0       -2.795656    0.733018    3.831184
      9          1           0       -2.589505    1.658001    3.282039
     10          1           0       -3.885952    0.626542    3.891820
     11          8           0       -1.882859   -1.106458    0.778969
     12          6           0       -2.238752    0.830825    5.263340
     13          1           0       -1.163060    1.049248    5.243039
     14          1           0       -2.401675   -0.095337    5.821377
     15          6           0       -2.909537    1.950469    6.043029
     16          8           0       -3.544587    1.807894    7.058048
     17          8           0       -2.709711    3.142077    5.431499
     18          7           0       -3.696358    0.225152    1.123407
     19          1           0       -4.263909    0.723518    1.796262
     20          6           0       -3.689570    0.799062   -0.234931
     21          1           0       -3.584680   -0.021381   -0.947148
     22          6           0       -2.454196    1.719624   -0.221438
     23          6           0       -4.986135    1.594618   -0.480913
     24          1           0       -5.008516    1.853496   -1.547164
     25          1           0       -4.911846    2.537739    0.072220
     26          8           0       -2.444528    2.718269    0.523354
     27          6           0       -6.215225    0.845142   -0.071024
     28          6           0       -7.081246    1.200805    0.936289
     29          1           0       -7.084347    2.085469    1.559601
     30          6           0       -6.694054   -0.405333   -0.605694
     31          6           0       -7.862016   -0.750414    0.126350
     32          6           0       -6.255367   -1.261650   -1.630927
     33          1           0       -5.374618   -1.017617   -2.219540
     34          7           0       -8.067351    0.243862    1.064560
     35          1           0       -8.868487    0.311620    1.673213
     36          6           0       -8.133093   -2.740445   -1.154209
     37          1           0       -8.677710   -3.650763   -1.386844
     38          6           0       -8.592713   -1.913657   -0.136061
     39          1           0       -9.486189   -2.159902    0.430832
     40          6           0       -6.976492   -2.418324   -1.895323
     41          1           0       -6.651113   -3.085984   -2.687655
     42          7           0       -1.386253    1.310910   -0.913896
     43          1           0       -1.370522    0.417950   -1.402196
     44          6           0       -0.093325    1.979651   -0.860810
     45          1           0       -0.253353    3.061754   -0.919259
     46          6           0        0.697589    1.440109   -2.075327
     47          6           0        0.687461    1.645082    0.444063
     48          1           0        0.950681    0.580681    0.399836
     49          8           0        0.467192    0.296710   -2.470453
     50          6           0        1.931154    2.503586    0.641392
     51          1           0        2.672785    2.369350   -0.150377
     52          1           0        2.397621    2.247265    1.597143
     53          1           0        1.654244    3.563795    0.677705
     54          8           0       -0.164588    1.790714    1.612960
     55          1           0       -0.910524    2.400667    1.392883
     56          7           0        1.615861    2.272237   -2.592180
     57          1           0        1.844342    3.142498   -2.117631
     58          6           0        2.701309    1.831038   -3.466995
     59          1           0        2.696037    0.740725   -3.508781
     60          6           0        4.034870    2.343594   -2.880376
     61          6           0        2.507066    2.419312   -4.890669
     62          1           0        2.440042    3.511733   -4.790880
     63          1           0        1.527375    2.081012   -5.244551
     64          8           0        5.075098    1.753691   -3.256328
     65          6           0        3.598310    2.040054   -5.924261
     66          1           0        4.193368    1.201356   -5.549035
     67          1           0        3.126258    1.703772   -6.854437
     68          6           0        4.553620    3.184987   -6.314050
     69          1           0        5.227922    2.842755   -7.108636
     70          1           0        3.983362    4.037036   -6.701519
     71          7           0        5.340767    3.635044   -5.158645
     72          1           0        5.516520    2.907551   -4.438106
     73          7           0        5.451898    5.906582   -5.647990
     74          1           0        5.472971    6.865937   -5.336118
     75          1           0        5.713494    5.731616   -6.607251
     76          7           0        5.656530    5.137623   -3.445860
     77          1           0        5.208617    4.482082   -2.763983
     78          1           0        5.955149    6.050187   -3.133919
     79          6           0        5.485249    4.892195   -4.748302
     80          8           0        3.956972    3.409618   -2.193289
     81          1           0       -3.157694    3.822560    5.969979
 ---------------------------------------------------------------------

 SCF Done:  E(RB3LYP) =  -2054.05361585     A.U. after    1 cycles

 Alpha  occ. eigenvalues --  -19.29357 -19.26572 -19.24983 -19.23693 -19.22370
 Alpha  occ. eigenvalues --  -19.19719 -19.16321 -19.15121 -14.56737 -14.48448
 Alpha  occ. eigenvalues --  -14.47347 -14.46461 -14.45299 -14.44597 -14.44496
 Alpha  occ. eigenvalues --  -14.43302 -10.42188 -10.42163 -10.42116 -10.39366
 Alpha  occ. eigenvalues --  -10.39321 -10.37090 -10.34814 -10.34140 -10.33517
 Alpha  occ. eigenvalues --  -10.33484 -10.33222 -10.32383 -10.30965 -10.29716
 Alpha  occ. eigenvalues --  -10.28869 -10.28626 -10.28473 -10.26172 -10.26072
 Alpha  occ. eigenvalues --  -10.25997 -10.25826 -10.25507 -10.25448 -10.25391
 Alpha  occ. eigenvalues --  -10.24956 -10.24594  -1.20177  -1.17639  -1.14783
 Alpha  occ. eigenvalues --   -1.12766  -1.11690  -1.11395  -1.11013  -1.10787
 Alpha  occ. eigenvalues --   -1.09010  -1.05298  -1.04963  -1.02662  -1.01016
 Alpha  occ. eigenvalues --   -0.99936  -0.99496  -0.98404  -0.93937  -0.90752
 Alpha  occ. eigenvalues --   -0.89676  -0.87967  -0.86603  -0.86315  -0.84117
 Alpha  occ. eigenvalues --   -0.81846  -0.80426  -0.80161  -0.78863  -0.77345
 Alpha  occ. eigenvalues --   -0.75249  -0.74358  -0.72692  -0.72446  -0.71853
 Alpha  occ. eigenvalues --   -0.70885  -0.70674  -0.69428  -0.69147  -0.68733
 Alpha  occ. eigenvalues --   -0.68126  -0.66902  -0.66500  -0.65880  -0.65121
 Alpha  occ. eigenvalues --   -0.64393  -0.63441  -0.63242  -0.61847  -0.61362
 Alpha  occ. eigenvalues --   -0.60851  -0.60311  -0.60161  -0.59810  -0.59246
 Alpha  occ. eigenvalues --   -0.58924  -0.57750  -0.57478  -0.57133  -0.56161
 Alpha  occ. eigenvalues --   -0.55440  -0.55162  -0.54620  -0.54142  -0.53985
 Alpha  occ. eigenvalues --   -0.53663  -0.53302  -0.52746  -0.52620  -0.52029
 Alpha  occ. eigenvalues --   -0.51764  -0.51645  -0.50555  -0.50204  -0.50048
 Alpha  occ. eigenvalues --   -0.49741  -0.49651  -0.49376  -0.49044  -0.48799
 Alpha  occ. eigenvalues --   -0.48511  -0.48350  -0.48254  -0.47939  -0.47569
 Alpha  occ. eigenvalues --   -0.47312  -0.47094  -0.46622  -0.46205  -0.46156
 Alpha  occ. eigenvalues --   -0.45376  -0.44964  -0.43975  -0.43133  -0.42218
 Alpha  occ. eigenvalues --   -0.42038  -0.41538  -0.41488  -0.40598  -0.40279
 Alpha  occ. eigenvalues --   -0.40079  -0.39557  -0.39151  -0.38736  -0.37922
 Alpha  occ. eigenvalues --   -0.37077  -0.36765  -0.35241  -0.34849  -0.34371
 Alpha  occ. eigenvalues --   -0.33926  -0.33736  -0.31623  -0.30735  -0.29151
 Alpha  occ. eigenvalues --   -0.28766  -0.27608
 Alpha virt. eigenvalues --   -0.12684  -0.09522  -0.09049  -0.08032  -0.07259
 Alpha virt. eigenvalues --   -0.07172  -0.06082  -0.04379  -0.03368  -0.03263
 Alpha virt. eigenvalues --   -0.02290  -0.02003  -0.01502  -0.01138  -0.00607

 Mulliken charges:
               1
     1  N   -0.779578
     2  H    0.398248
     3  H    0.419118
     4  H    0.461693
     5  C   -0.114806
     6  H    0.223481
     7  C    0.649858
     8  C   -0.323450
     9  H    0.211172
    10  H    0.189695
    11  O   -0.523401
    12  C   -0.363311
    13  H    0.173823
    14  H    0.193059
    15  C    0.571425
    16  O   -0.423838
    17  O   -0.558275
    18  N   -0.580510
    19  H    0.350879
    20  C   -0.039583
    21  H    0.193798
    22  C    0.617211
    23  C   -0.403202
    24  H    0.182182
    25  H    0.180698
    26  O   -0.584417
    27  C    0.055764
    28  C   -0.018249
    29  H    0.156848
    30  C    0.093048
    31  C    0.309476
    32  C   -0.210266
    33  H    0.122570
    34  N   -0.685909
    35  H    0.338661
    36  C   -0.149033
    37  H    0.142492
    38  C   -0.159638
    39  H    0.138115
    40  C   -0.138343
    41  H    0.137662
    42  N   -0.577475
    43  H    0.376930
    44  C   -0.102251
    45  H    0.182508
    46  C    0.608372
    47  C    0.150778
    48  H    0.148497
    49  O   -0.532462
    50  C   -0.470844
    51  H    0.200818
    52  H    0.159674
    53  H    0.157646
    54  O   -0.714771
    55  H    0.453515
    56  N   -0.591844
    57  H    0.349428
    58  C   -0.056750
    59  H    0.187566
    60  C    0.592626
    61  C   -0.271370
    62  H    0.136239
    63  H    0.163562
    64  O   -0.581318
    65  C   -0.301119
    66  H    0.194007
    67  H    0.157300
    68  C   -0.156347
    69  H    0.170894
    70  H    0.160264
    71  N   -0.603697
    72  H    0.414249
    73  N   -0.753174
    74  H    0.362106
    75  H    0.371350
    76  N   -0.768293
    77  H    0.420252
    78  H    0.344727
    79  C    0.750750
    80  O   -0.616389
    81  H    0.428879
 Sum of Mulliken charges =   1.00000

 Dipole moment (field-independent basis, Debye):
    X=             -2.7568    Y=             12.6783    Z=              0.3027  Tot=             12.9781
 Quadrupole moment (field-independent basis, Debye-Ang):
   XX=           -136.3923   YY=           -154.3056   ZZ=           -139.0957
   XY=             61.3534   XZ=            -75.5631   YZ=            -64.8425

 Normal termination of Gaussian 16 at Fri May 13 15:51:45 2022.
