 Gaussian 16, Revision C.01,
 Gaussian 16:  ES64L-G16RevC.01  3-Jul-2019

 ----------------------------------------------------------------------
 # B3LYP/6-31G* empiricaldispersion=gd3 guess=read geom=check nosymm in
 tegral(ultrafinegrid)
 ----------------------------------------------------------------------

 ------------------------------------------------------
 Candidate Structure: Conf:156 Charge calc in gas phase
 ------------------------------------------------------
 Structure from the checkpoint file:  "conf-156.chk"
 Charge =  1 Multiplicity = 1

                          Input orientation:
 ---------------------------------------------------------------------
 Center     Atomic      Atomic             Coordinates (Angstroms)
 Number     Number       Type             X           Y           Z
 ---------------------------------------------------------------------
      1          7           0       -5.102365    1.307719    3.954809
      2          1           0       -5.847143    2.005980    3.871130
      3          1           0       -5.317977    0.509829    3.288885
      4          1           0       -5.055887    0.986660    4.925692
      5          6           0       -3.771096    1.789467    3.410353
      6          1           0       -3.731336    2.879143    3.479358
      7          6           0       -3.815197    1.277370    1.947587
      8          6           0       -2.637536    1.127799    4.218927
      9          1           0       -2.689702    1.492193    5.250557
     10          1           0       -2.808565    0.044224    4.239572
     11          8           0       -4.534509    0.293065    1.718275
     12          6           0       -1.245478    1.408167    3.637845
     13          1           0       -1.101911    2.480930    3.451245
     14          1           0       -1.094505    0.917084    2.676806
     15          6           0       -0.074205    0.979554    4.499179
     16          8           0        1.052946    0.859484    4.069777
     17          8           0       -0.392468    0.791651    5.795139
     18          7           0       -3.033649    1.910029    1.080256
     19          1           0       -2.379890    2.628922    1.404731
     20          6           0       -2.522713    1.281491   -0.141623
     21          1           0       -2.701937    0.206600   -0.056620
     22          6           0       -0.998823    1.552807   -0.071274
     23          6           0       -3.198602    1.795779   -1.440907
     24          1           0       -2.921901    2.843367   -1.605134
     25          1           0       -4.282333    1.765158   -1.274252
     26          8           0       -0.569487    2.430129    0.692569
     27          6           0       -2.801634    0.929153   -2.595952
     28          6           0       -1.837725    1.185558   -3.538232
     29          1           0       -1.259898    2.084620   -3.700015
     30          6           0       -3.187089   -0.452747   -2.770103
     31          6           0       -2.406256   -0.966493   -3.839285
     32          6           0       -4.091592   -1.302052   -2.108309
     33          1           0       -4.706825   -0.929890   -1.291916
     34          7           0       -1.624905    0.070015   -4.322198
     35          1           0       -0.743907   -0.083979   -4.792842
     36          6           0       -3.388554   -3.120782   -3.571465
     37          1           0       -3.479414   -4.162852   -3.863448
     38          6           0       -2.495063   -2.299081   -4.249627
     39          1           0       -1.885528   -2.678405   -5.064508
     40          6           0       -4.181539   -2.627591   -2.514702
     41          1           0       -4.873975   -3.298052   -2.013777
     42          7           0       -0.230849    0.778442   -0.841082
     43          1           0       -0.644624    0.126893   -1.499349
     44          6           0        1.211305    0.713801   -0.712715
     45          1           0        1.565048    1.677585   -0.334911
     46          6           0        1.774601    0.414481   -2.113700
     47          6           0        1.584167   -0.409797    0.317087
     48          1           0        1.330688   -1.367522   -0.153288
     49          8           0        1.076650   -0.157380   -2.956221
     50          6           0        3.058205   -0.393776    0.715393
     51          1           0        3.730517   -0.568563   -0.128257
     52          1           0        3.235961   -1.170778    1.464574
     53          1           0        3.323788    0.574915    1.160808
     54          8           0        0.743929   -0.322584    1.462985
     55          1           0        1.155158    0.272224    2.115743
     56          7           0        3.050268    0.786538   -2.315242
     57          1           0        3.611064    1.166973   -1.558304
     58          6           0        3.865496    0.329201   -3.434026
     59          1           0        3.389060   -0.545643   -3.879497
     60          6           0        5.252126   -0.076760   -2.899971
     61          6           0        3.994626    1.453090   -4.497305
     62          1           0        4.141357    2.399613   -3.958852
     63          1           0        3.020167    1.544474   -4.989054
     64          8           0        5.889818   -0.911232   -3.566139
     65          6           0        5.106386    1.292636   -5.560868
     66          1           0        5.393693    0.241121   -5.654171
     67          1           0        4.724013    1.613836   -6.537272
     68          6           0        6.351962    2.158925   -5.292130
     69          1           0        7.036103    2.128722   -6.146804
     70          1           0        6.050104    3.206390   -5.191474
     71          7           0        7.105875    1.841072   -4.073635
     72          1           0        6.680130    2.143893   -3.200521
     73          7           0        8.509530    0.196824   -4.993527
     74          1           0        8.684455   -0.798296   -4.905568
     75          1           0        8.190253    0.462238   -5.913866
     76          7           0        8.272958    0.434417   -2.679310
     77          1           0        7.440580    0.434256   -2.043439
     78          1           0        8.850167   -0.393062   -2.612707
     79          6           0        7.929758    0.794179   -3.923717
     80          8           0        5.659290    0.587890   -1.880975
     81          1           0        0.429718    0.546564    6.261808
 ---------------------------------------------------------------------

 SCF Done:  E(RB3LYP) =  -2054.04061774     A.U. after    1 cycles

 Alpha  occ. eigenvalues --  -19.30371 -19.26560 -19.24346 -19.20616 -19.20428
 Alpha  occ. eigenvalues --  -19.18126 -19.15161 -19.13926 -14.60616 -14.48554
 Alpha  occ. eigenvalues --  -14.45896 -14.45513 -14.43706 -14.43094 -14.42792
 Alpha  occ. eigenvalues --  -14.41831 -10.43145 -10.42986 -10.41307 -10.41107
 Alpha  occ. eigenvalues --  -10.37426 -10.35314 -10.34356 -10.32994 -10.32211
 Alpha  occ. eigenvalues --  -10.31682 -10.31321 -10.30839 -10.30057 -10.28005
 Alpha  occ. eigenvalues --  -10.27902 -10.27450 -10.27381 -10.25842 -10.25403
 Alpha  occ. eigenvalues --  -10.24664 -10.24315 -10.24298 -10.24265 -10.23945
 Alpha  occ. eigenvalues --  -10.23841 -10.23646  -1.21158  -1.19068  -1.14238
 Alpha  occ. eigenvalues --   -1.12454  -1.12053  -1.10289  -1.09923  -1.08104
 Alpha  occ. eigenvalues --   -1.07576  -1.05394  -1.03446  -1.00432  -0.99921
 Alpha  occ. eigenvalues --   -0.99374  -0.98150  -0.97496  -0.94886  -0.89746
 Alpha  occ. eigenvalues --   -0.88879  -0.86893  -0.86510  -0.84589  -0.82924
 Alpha  occ. eigenvalues --   -0.80627  -0.79300  -0.78918  -0.78228  -0.77346
 Alpha  occ. eigenvalues --   -0.74929  -0.74384  -0.74060  -0.73195  -0.71684
 Alpha  occ. eigenvalues --   -0.71363  -0.70421  -0.68433  -0.67703  -0.67525
 Alpha  occ. eigenvalues --   -0.66580  -0.66179  -0.66030  -0.64863  -0.64416
 Alpha  occ. eigenvalues --   -0.63721  -0.62930  -0.62554  -0.61612  -0.59784
 Alpha  occ. eigenvalues --   -0.59324  -0.59030  -0.58727  -0.58507  -0.57727
 Alpha  occ. eigenvalues --   -0.57189  -0.56788  -0.56631  -0.56042  -0.55068
 Alpha  occ. eigenvalues --   -0.54829  -0.54586  -0.54142  -0.53826  -0.53708
 Alpha  occ. eigenvalues --   -0.52763  -0.52723  -0.52474  -0.51653  -0.51180
 Alpha  occ. eigenvalues --   -0.51086  -0.50756  -0.50319  -0.50123  -0.49616
 Alpha  occ. eigenvalues --   -0.49181  -0.49086  -0.48787  -0.48479  -0.48082
 Alpha  occ. eigenvalues --   -0.47437  -0.47074  -0.46944  -0.46378  -0.46196
 Alpha  occ. eigenvalues --   -0.45928  -0.45366  -0.45119  -0.44289  -0.43801
 Alpha  occ. eigenvalues --   -0.43323  -0.43069  -0.42744  -0.42042  -0.41786
 Alpha  occ. eigenvalues --   -0.41543  -0.41064  -0.40966  -0.39765  -0.39492
 Alpha  occ. eigenvalues --   -0.39201  -0.38774  -0.38419  -0.37812  -0.37035
 Alpha  occ. eigenvalues --   -0.35181  -0.34933  -0.34418  -0.33273  -0.33055
 Alpha  occ. eigenvalues --   -0.32453  -0.31458  -0.30456  -0.29684  -0.27908
 Alpha  occ. eigenvalues --   -0.27411  -0.26292
 Alpha virt. eigenvalues --   -0.12570  -0.11165  -0.09642  -0.07236  -0.06881
 Alpha virt. eigenvalues --   -0.06544  -0.06234  -0.04419  -0.04253  -0.03260
 Alpha virt. eigenvalues --   -0.02099  -0.01943  -0.01599  -0.00873  -0.00588

 Mulliken charges:
               1
     1  N   -0.751471
     2  H    0.418909
     3  H    0.431858
     4  H    0.415704
     5  C   -0.124027
     6  H    0.213932
     7  C    0.637163
     8  C   -0.289395
     9  H    0.193380
    10  H    0.190504
    11  O   -0.532208
    12  C   -0.406728
    13  H    0.206442
    14  H    0.240736
    15  C    0.611612
    16  O   -0.455224
    17  O   -0.562941
    18  N   -0.584987
    19  H    0.368079
    20  C   -0.090406
    21  H    0.208977
    22  C    0.643766
    23  C   -0.340508
    24  H    0.160493
    25  H    0.167182
    26  O   -0.573366
    27  C    0.025547
    28  C    0.005908
    29  H    0.154670
    30  C    0.078466
    31  C    0.291888
    32  C   -0.219254
    33  H    0.126650
    34  N   -0.651127
    35  H    0.351597
    36  C   -0.151066
    37  H    0.136532
    38  C   -0.157603
    39  H    0.138680
    40  C   -0.138315
    41  H    0.128189
    42  N   -0.585019
    43  H    0.379230
    44  C   -0.096874
    45  H    0.173485
    46  C    0.619062
    47  C    0.159685
    48  H    0.150051
    49  O   -0.559724
    50  C   -0.505660
    51  H    0.186573
    52  H    0.172633
    53  H    0.148031
    54  O   -0.661898
    55  H    0.423924
    56  N   -0.599472
    57  H    0.350562
    58  C   -0.039673
    59  H    0.178656
    60  C    0.599787
    61  C   -0.279036
    62  H    0.132476
    63  H    0.157829
    64  O   -0.586160
    65  C   -0.274107
    66  H    0.184817
    67  H    0.150457
    68  C   -0.181487
    69  H    0.159275
    70  H    0.179660
    71  N   -0.557718
    72  H    0.365766
    73  N   -0.744655
    74  H    0.372534
    75  H    0.362344
    76  N   -0.724014
    77  H    0.395540
    78  H    0.342139
    79  C    0.748903
    80  O   -0.648423
    81  H    0.432260
 Sum of Mulliken charges =   1.00000

 Dipole moment (field-independent basis, Debye):
    X=             -4.2305    Y=              8.5616    Z=              7.2014  Tot=             11.9607
 Quadrupole moment (field-independent basis, Debye-Ang):
   XX=            -74.0412   YY=           -223.2390   ZZ=           -105.2830
   XY=            -20.7285   XZ=           -135.7464   YZ=             11.7315

 Normal termination of Gaussian 16 at Fri May 13 15:51:47 2022.
