 Gaussian 16, Revision C.01,
 Gaussian 16:  ES64L-G16RevC.01  3-Jul-2019

 ----------------------------------------------------------------------
 # B3LYP/6-31G* empiricaldispersion=gd3 guess=read geom=check nosymm in
 tegral(ultrafinegrid)
 ----------------------------------------------------------------------

 ------------------------------------------------------
 Candidate Structure: Conf:122 Charge calc in gas phase
 ------------------------------------------------------
 Structure from the checkpoint file:  "conf-122.chk"
 Charge =  1 Multiplicity = 1

                          Input orientation:
 ---------------------------------------------------------------------
 Center     Atomic      Atomic             Coordinates (Angstroms)
 Number     Number       Type             X           Y           Z
 ---------------------------------------------------------------------
      1          7           0       -2.257367   -1.255003    3.146132
      2          1           0       -2.854288   -2.042397    3.411158
      3          1           0       -1.845419   -1.437677    2.177978
      4          1           0       -1.517585   -1.148456    3.845355
      5          6           0       -3.027378    0.031768    2.899352
      6          1           0       -4.033101   -0.076088    3.302760
      7          6           0       -3.041252    0.104837    1.350407
      8          6           0       -2.264651    1.184875    3.590739
      9          1           0       -2.324460    1.010928    4.672954
     10          1           0       -1.216552    1.124827    3.277019
     11          8           0       -2.290244   -0.666975    0.732362
     12          6           0       -2.708960    2.624698    3.280991
     13          1           0       -2.568387    2.841995    2.213887
     14          1           0       -2.054728    3.311581    3.822913
     15          6           0       -4.132475    3.019358    3.611844
     16          8           0       -4.484983    4.107289    3.988201
     17          8           0       -5.019581    2.010429    3.335812
     18          7           0       -3.841275    1.008359    0.787765
     19          1           0       -4.474124    1.536245    1.382619
     20          6           0       -3.668677    1.416480   -0.618489
     21          1           0       -3.701670    0.511124   -1.232110
     22          6           0       -2.278685    2.089380   -0.672172
     23          6           0       -4.775640    2.400761   -1.042866
     24          1           0       -4.692652    2.527893   -2.128221
     25          1           0       -4.539380    3.373737   -0.599986
     26          8           0       -2.114072    3.196490   -0.141022
     27          6           0       -6.154944    1.969338   -0.638384
     28          6           0       -6.914065    0.953783   -1.168751
     29          1           0       -6.715087    0.311482   -2.016050
     30          6           0       -6.904123    2.497734    0.474703
     31          6           0       -8.105175    1.741403    0.574318
     32          6           0       -6.678032    3.537538    1.394590
     33          1           0       -5.782813    4.151337    1.335667
     34          7           0       -8.079880    0.810078   -0.441847
     35          1           0       -8.829511    0.173901   -0.667452
     36          6           0       -8.790618    2.988073    2.488598
     37          1           0       -9.507817    3.196057    3.276908
     38          6           0       -9.055836    1.974925    1.574588
     39          1           0       -9.966755    1.386206    1.636206
     40          6           0       -7.613973    3.767082    2.400100
     41          1           0       -7.441551    4.565648    3.115556
     42          7           0       -1.305423    1.362072   -1.234389
     43          1           0       -1.475198    0.410430   -1.547713
     44          6           0        0.106091    1.693413   -1.133918
     45          1           0        0.229452    2.767729   -1.306716
     46          6           0        0.820500    0.853023   -2.209579
     47          6           0        0.675515    1.326900    0.277344
     48          1           0        0.702871    0.232756    0.343025
     49          8           0        0.336894   -0.231516   -2.550555
     50          6           0        2.060214    1.918457    0.531851
     51          1           0        2.824984    1.564826   -0.166295
     52          1           0        2.373665    1.662595    1.548396
     53          1           0        2.021738    3.013021    0.459914
     54          8           0       -0.234371    1.731567    1.310889
     55          1           0       -0.541970    2.629504    1.089986
     56          7           0        1.975825    1.355013   -2.672509
     57          1           0        2.416307    2.140810   -2.191849
     58          6           0        2.984113    0.518952   -3.310527
     59          1           0        2.993618   -0.459000   -2.809757
     60          6           0        4.382949    1.240080   -3.073354
     61          6           0        2.876558    0.323744   -4.805439
     62          1           0        3.790868   -0.237503   -4.983608
     63          1           0        2.997839    1.307099   -5.274000
     64          8           0        5.285818    1.010121   -3.936317
     65          6           0        1.813525   -0.445492   -5.571930
     66          1           0        1.496088   -1.351777   -5.044459
     67          1           0        0.912127    0.146349   -5.768392
     68          6           0        2.513038   -0.860066   -6.884753
     69          1           0        3.305854   -1.581885   -6.665885
     70          1           0        1.825592   -1.328562   -7.596393
     71          7           0        3.145518    0.263499   -7.621870
     72          1           0        2.540251    0.741338   -8.276519
     73          7           0        5.289852    0.585622   -6.617808
     74          1           0        6.253775    0.791943   -6.852006
     75          1           0        5.111576    0.663067   -5.565707
     76          7           0        4.801492    1.393731   -8.731430
     77          1           0        4.387820    1.190312   -9.629660
     78          1           0        5.609608    1.998718   -8.716802
     79          6           0        4.412968    0.730575   -7.609766
     80          8           0        4.436890    1.978651   -2.073404
     81          1           0       -5.923355    2.400691    3.351554
 ---------------------------------------------------------------------

 SCF Done:  E(RB3LYP) =  -2054.01269977     A.U. after    3 cycles

 Alpha  occ. eigenvalues --  -19.29381 -19.25684 -19.23321 -19.22183 -19.20207
 Alpha  occ. eigenvalues --  -19.18081 -19.12604 -19.11944 -14.58567 -14.48268
 Alpha  occ. eigenvalues --  -14.48259 -14.48225 -14.46407 -14.45475 -14.44270
 Alpha  occ. eigenvalues --  -14.40857 -10.44050 -10.42183 -10.41638 -10.39075
 Alpha  occ. eigenvalues --  -10.37442 -10.34966 -10.33551 -10.32461 -10.32003
 Alpha  occ. eigenvalues --  -10.31456 -10.30599 -10.30503 -10.30357 -10.30324
 Alpha  occ. eigenvalues --  -10.30207 -10.28351 -10.27028 -10.26929 -10.26789
 Alpha  occ. eigenvalues --  -10.26750 -10.26542 -10.26392 -10.26176 -10.25705
 Alpha  occ. eigenvalues --  -10.23598 -10.23173  -1.19756  -1.18102  -1.12683
 Alpha  occ. eigenvalues --   -1.12111  -1.11911  -1.11062  -1.09742  -1.09080
 Alpha  occ. eigenvalues --   -1.06261  -1.05481  -1.04916  -1.01726  -1.00618
 Alpha  occ. eigenvalues --   -0.99495  -0.97995  -0.96516  -0.93029  -0.92076
 Alpha  occ. eigenvalues --   -0.89627  -0.87303  -0.86422  -0.85037  -0.83904
 Alpha  occ. eigenvalues --   -0.81751  -0.80872  -0.80228  -0.78143  -0.77886
 Alpha  occ. eigenvalues --   -0.75619  -0.74424  -0.72693  -0.72304  -0.71883
 Alpha  occ. eigenvalues --   -0.71189  -0.70386  -0.69174  -0.68690  -0.68316
 Alpha  occ. eigenvalues --   -0.67559  -0.67256  -0.66634  -0.65806  -0.65386
 Alpha  occ. eigenvalues --   -0.63383  -0.62940  -0.62377  -0.61715  -0.61456
 Alpha  occ. eigenvalues --   -0.61112  -0.59957  -0.59609  -0.58918  -0.57802
 Alpha  occ. eigenvalues --   -0.57527  -0.57280  -0.56939  -0.56390  -0.55929
 Alpha  occ. eigenvalues --   -0.55292  -0.54969  -0.54718  -0.54415  -0.53674
 Alpha  occ. eigenvalues --   -0.52912  -0.52392  -0.52132  -0.51638  -0.51134
 Alpha  occ. eigenvalues --   -0.51027  -0.50943  -0.50667  -0.50373  -0.49932
 Alpha  occ. eigenvalues --   -0.49423  -0.48943  -0.48727  -0.48697  -0.48172
 Alpha  occ. eigenvalues --   -0.47819  -0.47290  -0.46776  -0.46531  -0.46001
 Alpha  occ. eigenvalues --   -0.45842  -0.45365  -0.44995  -0.44756  -0.44029
 Alpha  occ. eigenvalues --   -0.43416  -0.43200  -0.42909  -0.41977  -0.41526
 Alpha  occ. eigenvalues --   -0.41442  -0.41286  -0.40929  -0.40557  -0.40360
 Alpha  occ. eigenvalues --   -0.40227  -0.39276  -0.38655  -0.38475  -0.36759
 Alpha  occ. eigenvalues --   -0.36592  -0.35701  -0.35334  -0.34518  -0.33083
 Alpha  occ. eigenvalues --   -0.31741  -0.31291  -0.30690  -0.28594  -0.27956
 Alpha  occ. eigenvalues --   -0.27069  -0.26160
 Alpha virt. eigenvalues --   -0.11221  -0.09998  -0.09570  -0.09484  -0.08475
 Alpha virt. eigenvalues --   -0.07208  -0.06211  -0.04894  -0.04722  -0.04257
 Alpha virt. eigenvalues --   -0.02534  -0.02244  -0.00928  -0.00243   0.00180

 Mulliken charges:
               1
     1  N   -0.760713
     2  H    0.411287
     3  H    0.435381
     4  H    0.412893
     5  C   -0.106388
     6  H    0.230121
     7  C    0.659670
     8  C   -0.309028
     9  H    0.172682
    10  H    0.214834
    11  O   -0.548485
    12  C   -0.401579
    13  H    0.229545
    14  H    0.211054
    15  C    0.590048
    16  O   -0.426858
    17  O   -0.614486
    18  N   -0.611606
    19  H    0.390608
    20  C   -0.032701
    21  H    0.172522
    22  C    0.643966
    23  C   -0.408150
    24  H    0.180537
    25  H    0.196958
    26  O   -0.570570
    27  C    0.060218
    28  C    0.006631
    29  H    0.163921
    30  C    0.076279
    31  C    0.317816
    32  C   -0.263277
    33  H    0.155693
    34  N   -0.686140
    35  H    0.341728
    36  C   -0.149086
    37  H    0.149994
    38  C   -0.159467
    39  H    0.144249
    40  C   -0.189764
    41  H    0.164337
    42  N   -0.574422
    43  H    0.362598
    44  C   -0.107496
    45  H    0.178084
    46  C    0.611743
    47  C    0.154982
    48  H    0.141458
    49  O   -0.555922
    50  C   -0.483299
    51  H    0.203125
    52  H    0.155040
    53  H    0.149196
    54  O   -0.667623
    55  H    0.418351
    56  N   -0.601557
    57  H    0.358166
    58  C   -0.068845
    59  H    0.155061
    60  C    0.601275
    61  C   -0.272554
    62  H    0.149709
    63  H    0.134770
    64  O   -0.610199
    65  C   -0.250347
    66  H    0.172403
    67  H    0.145067
    68  C   -0.175751
    69  H    0.192224
    70  H    0.168548
    71  N   -0.588979
    72  H    0.352371
    73  N   -0.769558
    74  H    0.355006
    75  H    0.453943
    76  N   -0.762275
    77  H    0.366067
    78  H    0.372156
    79  C    0.767130
    80  O   -0.561449
    81  H    0.437130
 Sum of Mulliken charges =   1.00000

 Dipole moment (field-independent basis, Debye):
    X=            -11.6287    Y=             -3.9687    Z=             -9.7178  Tot=             15.6657
 Quadrupole moment (field-independent basis, Debye-Ang):
   XX=           -134.7720   YY=           -246.1655   ZZ=             -7.3188
   XY=             11.5251   XZ=           -100.4335   YZ=            -32.4833

 Normal termination of Gaussian 16 at Fri May 13 15:52:33 2022.
