 Gaussian 16, Revision C.01,
 Gaussian 16:  ES64L-G16RevC.01  3-Jul-2019

 ----------------------------------------------------------------------
 # B3LYP/6-31G* empiricaldispersion=gd3 guess=read geom=check nosymm in
 tegral(ultrafinegrid)
 ----------------------------------------------------------------------

 ------------------------------------------------------
 Candidate Structure: Conf:962 Charge calc in gas phase
 ------------------------------------------------------
 Structure from the checkpoint file:  "conf-962.chk"
 Charge =  1 Multiplicity = 1

                          Input orientation:
 ---------------------------------------------------------------------
 Center     Atomic      Atomic             Coordinates (Angstroms)
 Number     Number       Type             X           Y           Z
 ---------------------------------------------------------------------
      1          7           0       -1.683395   -0.812162    1.863045
      2          1           0       -1.328615   -1.384611    1.084072
      3          1           0       -0.924529   -0.119126    2.022364
      4          1           0       -1.917936   -1.386205    2.697977
      5          6           0       -2.947984   -0.153357    1.365988
      6          1           0       -3.664102   -0.971200    1.238526
      7          6           0       -2.538924    0.369782   -0.033852
      8          6           0       -3.507788    0.875722    2.364168
      9          1           0       -2.955132    1.811562    2.280170
     10          1           0       -4.541939    1.089157    2.073884
     11          8           0       -1.722962   -0.295396   -0.680361
     12          6           0       -3.474413    0.472060    3.859309
     13          1           0       -4.086162    1.175512    4.427702
     14          1           0       -2.448259    0.549771    4.236658
     15          6           0       -3.922915   -0.948273    4.132352
     16          8           0       -3.255586   -1.930286    3.826689
     17          8           0       -5.110362   -1.034112    4.724357
     18          7           0       -3.077118    1.525733   -0.428913
     19          1           0       -3.740741    2.005036    0.169899
     20          6           0       -2.633181    2.254711   -1.633899
     21          1           0       -2.401119    1.489005   -2.379232
     22          6           0       -1.336244    3.003997   -1.197629
     23          6           0       -3.722891    3.243563   -2.151819
     24          1           0       -3.748187    3.193597   -3.243465
     25          1           0       -3.383549    4.250495   -1.889236
     26          8           0       -1.323982    4.204323   -0.964181
     27          6           0       -5.081997    3.023968   -1.558513
     28          6           0       -6.173776    2.383500   -2.087439
     29          1           0       -6.314337    1.959526   -3.072405
     30          6           0       -5.441416    3.391983   -0.209124
     31          6           0       -6.764338    2.922106    0.021911
     32          6           0       -4.744176    4.039831    0.831117
     33          1           0       -3.739878    4.423414    0.660006
     34          7           0       -7.185254    2.319578   -1.145482
     35          1           0       -8.113954    1.964625   -1.316640
     36          6           0       -6.683960    3.710289    2.273306
     37          1           0       -7.152567    3.850927    3.243026
     38          6           0       -7.398582    3.078284    1.258887
     39          1           0       -8.411084    2.720847    1.424630
     40          6           0       -5.372249    4.187855    2.063780
     41          1           0       -4.855520    4.695089    2.873625
     42          7           0       -0.266677    2.176342   -1.001447
     43          1           0       -0.458600    1.179548   -1.051621
     44          6           0        0.877255    2.567241   -0.184510
     45          1           0        0.981007    3.648646   -0.325664
     46          6           0        2.133310    1.835375   -0.728416
     47          6           0        0.721488    2.279986    1.322277
     48          1           0        1.661729    2.553953    1.811304
     49          8           0        2.919512    1.284247    0.053018
     50          6           0       -0.431640    3.038251    1.951039
     51          1           0       -0.231651    4.112775    1.924798
     52          1           0       -0.556481    2.739904    2.998260
     53          1           0       -1.362248    2.873794    1.406033
     54          8           0        0.499766    0.868875    1.555558
     55          1           0        1.357218    0.457201    1.337394
     56          7           0        2.251013    1.856031   -2.060957
     57          1           0        1.492536    2.228534   -2.624268
     58          6           0        3.374333    1.320028   -2.822762
     59          1           0        4.311015    1.721795   -2.425284
     60          6           0        3.229808    1.764085   -4.295472
     61          6           0        3.414493   -0.240846   -2.745987
     62          1           0        2.381252   -0.571313   -2.919663
     63          1           0        3.681747   -0.510063   -1.721591
     64          8           0        4.271939    1.906656   -4.955208
     65          6           0        4.371420   -0.937072   -3.755006
     66          1           0        5.112597   -0.220049   -4.121486
     67          1           0        4.904755   -1.746332   -3.242216
     68          6           0        3.659105   -1.596739   -4.954054
     69          1           0        4.358054   -2.174140   -5.568399
     70          1           0        2.918502   -2.318130   -4.591515
     71          7           0        2.931622   -0.663898   -5.811292
     72          1           0        2.128407   -0.199073   -5.390039
     73          7           0        4.542838   -0.395529   -7.484046
     74          1           0        5.021156    0.274230   -8.069716
     75          1           0        5.157590   -1.041819   -7.011560
     76          7           0        2.701892    1.052487   -7.315024
     77          1           0        2.268276    1.579872   -6.523703
     78          1           0        3.144884    1.648483   -8.004918
     79          6           0        3.425673    0.020478   -6.848329
     80          8           0        2.016970    1.800360   -4.718857
     81          1           0       -5.317563   -1.978372    4.875195
 ---------------------------------------------------------------------

 SCF Done:  E(RB3LYP) =  -2054.06602629     A.U. after    1 cycles

 Alpha  occ. eigenvalues --  -19.33054 -19.27909 -19.26242 -19.25182 -19.21456
 Alpha  occ. eigenvalues --  -19.19119 -19.15012 -19.13894 -14.55665 -14.48924
 Alpha  occ. eigenvalues --  -14.46867 -14.46594 -14.45390 -14.44951 -14.43309
 Alpha  occ. eigenvalues --  -14.42439 -10.45998 -10.42473 -10.41721 -10.39237
 Alpha  occ. eigenvalues --  -10.38324 -10.36167 -10.34071 -10.34006 -10.33705
 Alpha  occ. eigenvalues --  -10.33670 -10.32242 -10.31715 -10.31581 -10.30963
 Alpha  occ. eigenvalues --  -10.30840 -10.28202 -10.27908 -10.27832 -10.27582
 Alpha  occ. eigenvalues --  -10.27421 -10.27410 -10.27340 -10.27205 -10.27106
 Alpha  occ. eigenvalues --  -10.25959 -10.25459  -1.24275  -1.17680  -1.15212
 Alpha  occ. eigenvalues --   -1.13480  -1.12975  -1.10851  -1.10649  -1.10292
 Alpha  occ. eigenvalues --   -1.07547  -1.06775  -1.05537  -1.01908  -1.00325
 Alpha  occ. eigenvalues --   -0.99375  -0.98394  -0.97852  -0.94323  -0.92826
 Alpha  occ. eigenvalues --   -0.90105  -0.87923  -0.86908  -0.86323  -0.84802
 Alpha  occ. eigenvalues --   -0.82468  -0.82101  -0.80842  -0.79492  -0.79151
 Alpha  occ. eigenvalues --   -0.75715  -0.74705  -0.73306  -0.72519  -0.72250
 Alpha  occ. eigenvalues --   -0.71584  -0.70997  -0.69738  -0.68743  -0.67914
 Alpha  occ. eigenvalues --   -0.67555  -0.67455  -0.67033  -0.65427  -0.64409
 Alpha  occ. eigenvalues --   -0.63985  -0.63638  -0.63246  -0.63097  -0.62441
 Alpha  occ. eigenvalues --   -0.61302  -0.60845  -0.60600  -0.59883  -0.59200
 Alpha  occ. eigenvalues --   -0.58811  -0.58225  -0.57363  -0.56924  -0.56646
 Alpha  occ. eigenvalues --   -0.56302  -0.55933  -0.55603  -0.55308  -0.54887
 Alpha  occ. eigenvalues --   -0.54203  -0.53952  -0.53688  -0.52791  -0.52251
 Alpha  occ. eigenvalues --   -0.52093  -0.51731  -0.51360  -0.51244  -0.50803
 Alpha  occ. eigenvalues --   -0.50646  -0.50483  -0.50410  -0.49782  -0.49448
 Alpha  occ. eigenvalues --   -0.49126  -0.48652  -0.47996  -0.47773  -0.47562
 Alpha  occ. eigenvalues --   -0.47388  -0.47064  -0.46854  -0.46405  -0.45714
 Alpha  occ. eigenvalues --   -0.45307  -0.45109  -0.44341  -0.43796  -0.43572
 Alpha  occ. eigenvalues --   -0.43094  -0.42270  -0.42095  -0.41834  -0.41692
 Alpha  occ. eigenvalues --   -0.41636  -0.40252  -0.39776  -0.39351  -0.38969
 Alpha  occ. eigenvalues --   -0.37253  -0.36390  -0.35718  -0.34558  -0.34383
 Alpha  occ. eigenvalues --   -0.32719  -0.32126  -0.31333  -0.30420  -0.29679
 Alpha  occ. eigenvalues --   -0.29253  -0.27743
 Alpha virt. eigenvalues --   -0.13121  -0.12238  -0.10158  -0.07453  -0.07066
 Alpha virt. eigenvalues --   -0.06833  -0.06140  -0.05583  -0.03650  -0.02819
 Alpha virt. eigenvalues --   -0.02566  -0.01964  -0.01485  -0.00684  -0.00447

 Mulliken charges:
               1
     1  N   -0.784861
     2  H    0.410306
     3  H    0.437939
     4  H    0.426654
     5  C   -0.120189
     6  H    0.224494
     7  C    0.649465
     8  C   -0.332452
     9  H    0.201386
    10  H    0.214622
    11  O   -0.552105
    12  C   -0.378319
    13  H    0.218650
    14  H    0.195634
    15  C    0.604423
    16  O   -0.487974
    17  O   -0.524206
    18  N   -0.622595
    19  H    0.387972
    20  C   -0.063927
    21  H    0.198116
    22  C    0.617792
    23  C   -0.394962
    24  H    0.176135
    25  H    0.214985
    26  O   -0.501659
    27  C    0.067116
    28  C    0.007077
    29  H    0.170769
    30  C    0.013182
    31  C    0.326740
    32  C   -0.254822
    33  H    0.167655
    34  N   -0.687714
    35  H    0.343074
    36  C   -0.158821
    37  H    0.145707
    38  C   -0.164205
    39  H    0.145690
    40  C   -0.148015
    41  H    0.140188
    42  N   -0.634496
    43  H    0.373518
    44  C   -0.084677
    45  H    0.209537
    46  C    0.613439
    47  C    0.137978
    48  H    0.178211
    49  O   -0.563493
    50  C   -0.486101
    51  H    0.192265
    52  H    0.148853
    53  H    0.149279
    54  O   -0.691078
    55  H    0.430129
    56  N   -0.606589
    57  H    0.360593
    58  C    0.000296
    59  H    0.172489
    60  C    0.578369
    61  C   -0.295121
    62  H    0.125446
    63  H    0.176993
    64  O   -0.578595
    65  C   -0.273325
    66  H    0.189394
    67  H    0.149160
    68  C   -0.177528
    69  H    0.154262
    70  H    0.175463
    71  N   -0.566585
    72  H    0.370342
    73  N   -0.748762
    74  H    0.367586
    75  H    0.368720
    76  N   -0.740859
    77  H    0.395761
    78  H    0.342702
    79  C    0.767100
    80  O   -0.647298
    81  H    0.437677
 Sum of Mulliken charges =   1.00000

 Dipole moment (field-independent basis, Debye):
    X=            -11.2730    Y=             -3.3226    Z=             -1.3374  Tot=             11.8283
 Quadrupole moment (field-independent basis, Debye-Ang):
   XX=           -121.7510   YY=           -243.0534   ZZ=           -127.9805
   XY=            -18.6089   XZ=            -68.9174   YZ=             10.0495

 Normal termination of Gaussian 16 at Fri May 13 15:51:54 2022.
