 Gaussian 16, Revision C.01,
 Gaussian 16:  ES64L-G16RevC.01  3-Jul-2019

 ----------------------------------------------------------------------
 # B3LYP/6-31G* empiricaldispersion=gd3 guess=read geom=check nosymm in
 tegral(ultrafinegrid)
 ----------------------------------------------------------------------

 ------------------------------------------------------
 Candidate Structure: Conf:365 Charge calc in gas phase
 ------------------------------------------------------
 Structure from the checkpoint file:  "conf-365.chk"
 Charge =  1 Multiplicity = 1

                          Input orientation:
 ---------------------------------------------------------------------
 Center     Atomic      Atomic             Coordinates (Angstroms)
 Number     Number       Type             X           Y           Z
 ---------------------------------------------------------------------
      1          7           0       -5.988879    0.850568    3.069057
      2          1           0       -6.198113    1.736255    2.561152
      3          1           0       -6.063777    0.059123    2.388692
      4          1           0       -6.652253    0.738351    3.838826
      5          6           0       -4.542928    0.805663    3.503994
      6          1           0       -4.223378    1.837172    3.667514
      7          6           0       -3.852448    0.168247    2.274173
      8          6           0       -4.360451   -0.056455    4.756062
      9          1           0       -4.761969   -1.058173    4.557024
     10          1           0       -3.285546   -0.179679    4.919751
     11          8           0       -4.514660   -0.637085    1.610805
     12          6           0       -4.994748    0.549664    6.020013
     13          1           0       -6.075530    0.696928    5.924201
     14          1           0       -4.537785    1.524756    6.229943
     15          6           0       -4.802532   -0.341473    7.236721
     16          8           0       -5.694441   -0.779816    7.920572
     17          8           0       -3.489319   -0.585497    7.450537
     18          7           0       -2.596256    0.543507    2.030802
     19          1           0       -2.127713    1.235406    2.608027
     20          6           0       -1.895682    0.225748    0.786705
     21          1           0       -2.287585   -0.721972    0.412064
     22          6           0       -0.396044    0.195752    1.079881
     23          6           0       -2.130113    1.352912   -0.270816
     24          1           0       -1.561134    1.098056   -1.168453
     25          1           0       -1.711779    2.277684    0.142818
     26          8           0        0.100967    1.102748    1.743220
     27          6           0       -3.575064    1.506141   -0.621927
     28          6           0       -4.227103    0.829361   -1.623512
     29          1           0       -3.793230    0.203571   -2.393721
     30          6           0       -4.578418    2.247198    0.094289
     31          6           0       -5.839249    1.934505   -0.502966
     32          6           0       -4.546949    3.150883    1.169644
     33          1           0       -3.597068    3.446677    1.607882
     34          7           0       -5.584452    1.076686   -1.547103
     35          1           0       -6.273159    0.728437   -2.196562
     36          6           0       -6.985459    3.322982    1.071906
     37          1           0       -7.902177    3.761890    1.454989
     38          6           0       -7.043323    2.451516   -0.016899
     39          1           0       -7.993658    2.198697   -0.478787
     40          6           0       -5.744452    3.681614    1.653454
     41          1           0       -5.726319    4.405172    2.464250
     42          7           0        0.297917   -0.796122    0.470586
     43          1           0       -0.199702   -1.575888    0.058584
     44          6           0        1.716209   -0.704565    0.145792
     45          1           0        2.148022    0.084795    0.764419
     46          6           0        1.960687   -0.310021   -1.334846
     47          6           0        2.423023   -2.034434    0.435618
     48          1           0        3.441617   -1.941165    0.036180
     49          8           0        3.106249   -0.098341   -1.723062
     50          6           0        2.460654   -2.376808    1.921540
     51          1           0        3.029014   -1.625858    2.481043
     52          1           0        2.943875   -3.348531    2.079173
     53          1           0        1.445952   -2.425692    2.329347
     54          8           0        1.677750   -3.007351   -0.311712
     55          1           0        2.087776   -3.874592   -0.174194
     56          7           0        0.858941   -0.242335   -2.108043
     57          1           0       -0.058627   -0.478819   -1.752411
     58          6           0        0.822402    0.084240   -3.520314
     59          1           0        1.278646    1.069737   -3.673400
     60          6           0       -0.691630    0.181652   -3.896996
     61          6           0        1.611706   -0.966235   -4.367660
     62          1           0        0.939733   -1.787934   -4.648667
     63          1           0        2.358277   -1.390212   -3.694787
     64          8           0       -0.947522    0.651746   -5.052862
     65          6           0        2.358146   -0.418544   -5.612808
     66          1           0        2.399844    0.677348   -5.579770
     67          1           0        3.400009   -0.755344   -5.596832
     68          6           0        1.768169   -0.843472   -6.963768
     69          1           0        2.369301   -0.429870   -7.783701
     70          1           0        1.780146   -1.938407   -7.054583
     71          7           0        0.388937   -0.361627   -7.049366
     72          1           0        0.062090    0.249941   -6.261170
     73          7           0       -0.406524   -1.756379   -8.749032
     74          1           0       -1.103153   -2.437568   -9.012290
     75          1           0        0.527907   -1.892265   -9.104381
     76          7           0       -1.869431   -0.739900   -7.244661
     77          1           0       -1.959586   -0.183142   -6.379921
     78          1           0       -2.647013   -0.807820   -7.885057
     79          6           0       -0.614016   -0.951234   -7.680911
     80          8           0       -1.530199   -0.207237   -3.056573
     81          1           0       -3.424902   -1.154956    8.241169
 ---------------------------------------------------------------------

 SCF Done:  E(RB3LYP) =  -2054.05242374     A.U. after    1 cycles

 Alpha  occ. eigenvalues --  -19.29057 -19.24367 -19.23374 -19.21563 -19.19893
 Alpha  occ. eigenvalues --  -19.16446 -19.16093 -19.16009 -14.57262 -14.48061
 Alpha  occ. eigenvalues --  -14.47593 -14.46736 -14.45203 -14.44570 -14.44112
 Alpha  occ. eigenvalues --  -14.40310 -10.42384 -10.41882 -10.41610 -10.38829
 Alpha  occ. eigenvalues --  -10.37099 -10.33997 -10.33636 -10.33113 -10.32687
 Alpha  occ. eigenvalues --  -10.32121 -10.31446 -10.31210 -10.30501 -10.29667
 Alpha  occ. eigenvalues --  -10.29470 -10.28976 -10.28740 -10.28680 -10.28536
 Alpha  occ. eigenvalues --  -10.28055 -10.27871 -10.27048 -10.26217 -10.26162
 Alpha  occ. eigenvalues --  -10.24862 -10.24115  -1.19889  -1.17000  -1.12015
 Alpha  occ. eigenvalues --   -1.11510  -1.11158  -1.11093  -1.09433  -1.09000
 Alpha  occ. eigenvalues --   -1.07760  -1.06650  -1.04493  -1.01309  -1.00663
 Alpha  occ. eigenvalues --   -0.99982  -0.99094  -0.96826  -0.93908  -0.93515
 Alpha  occ. eigenvalues --   -0.89479  -0.87189  -0.86405  -0.85175  -0.83770
 Alpha  occ. eigenvalues --   -0.83082  -0.81017  -0.80717  -0.77518  -0.77297
 Alpha  occ. eigenvalues --   -0.74871  -0.74082  -0.72725  -0.72169  -0.71589
 Alpha  occ. eigenvalues --   -0.70733  -0.70229  -0.70113  -0.68573  -0.68373
 Alpha  occ. eigenvalues --   -0.67789  -0.67526  -0.66929  -0.65323  -0.64742
 Alpha  occ. eigenvalues --   -0.63828  -0.63015  -0.62530  -0.62194  -0.60969
 Alpha  occ. eigenvalues --   -0.60048  -0.59219  -0.58670  -0.58162  -0.57909
 Alpha  occ. eigenvalues --   -0.57738  -0.57651  -0.56663  -0.56438  -0.56100
 Alpha  occ. eigenvalues --   -0.55867  -0.55333  -0.55103  -0.54503  -0.54289
 Alpha  occ. eigenvalues --   -0.54165  -0.52942  -0.52571  -0.52007  -0.51910
 Alpha  occ. eigenvalues --   -0.51369  -0.50949  -0.50566  -0.50102  -0.49631
 Alpha  occ. eigenvalues --   -0.49520  -0.49282  -0.48860  -0.48643  -0.48191
 Alpha  occ. eigenvalues --   -0.48013  -0.47776  -0.47570  -0.47123  -0.46667
 Alpha  occ. eigenvalues --   -0.46472  -0.46212  -0.45697  -0.45393  -0.44439
 Alpha  occ. eigenvalues --   -0.44001  -0.43921  -0.43326  -0.43185  -0.42389
 Alpha  occ. eigenvalues --   -0.42222  -0.41300  -0.41213  -0.40676  -0.40270
 Alpha  occ. eigenvalues --   -0.39328  -0.39163  -0.38080  -0.37702  -0.36944
 Alpha  occ. eigenvalues --   -0.36587  -0.35334  -0.34975  -0.34011  -0.33800
 Alpha  occ. eigenvalues --   -0.32168  -0.31990  -0.31340  -0.30441  -0.30026
 Alpha  occ. eigenvalues --   -0.29058  -0.28854
 Alpha virt. eigenvalues --   -0.11346  -0.10996  -0.08370  -0.08140  -0.07393
 Alpha virt. eigenvalues --   -0.07376  -0.06479  -0.03714  -0.03416  -0.02868
 Alpha virt. eigenvalues --   -0.02005  -0.01558  -0.01063  -0.00942  -0.00198

 Mulliken charges:
               1
     1  N   -0.767926
     2  H    0.421052
     3  H    0.421565
     4  H    0.400060
     5  C   -0.104799
     6  H    0.195862
     7  C    0.668480
     8  C   -0.301624
     9  H    0.189742
    10  H    0.216974
    11  O   -0.540780
    12  C   -0.362253
    13  H    0.165779
    14  H    0.196356
    15  C    0.578052
    16  O   -0.427503
    17  O   -0.557652
    18  N   -0.595506
    19  H    0.355863
    20  C   -0.069432
    21  H    0.188269
    22  C    0.627174
    23  C   -0.374070
    24  H    0.211894
    25  H    0.167188
    26  O   -0.530138
    27  C    0.054341
    28  C    0.032685
    29  H    0.215156
    30  C    0.068548
    31  C    0.327998
    32  C   -0.233274
    33  H    0.142470
    34  N   -0.686526
    35  H    0.341798
    36  C   -0.195015
    37  H    0.152490
    38  C   -0.166871
    39  H    0.151486
    40  C   -0.212660
    41  H    0.147459
    42  N   -0.623097
    43  H    0.355330
    44  C   -0.074097
    45  H    0.207870
    46  C    0.641535
    47  C    0.126877
    48  H    0.166897
    49  O   -0.544841
    50  C   -0.464005
    51  H    0.163313
    52  H    0.147313
    53  H    0.153477
    54  O   -0.650928
    55  H    0.403251
    56  N   -0.633662
    57  H    0.342023
    58  C   -0.033503
    59  H    0.170476
    60  C    0.596553
    61  C   -0.288803
    62  H    0.136619
    63  H    0.193988
    64  O   -0.623891
    65  C   -0.303967
    66  H    0.170003
    67  H    0.170655
    68  C   -0.153510
    69  H    0.168955
    70  H    0.156118
    71  N   -0.604538
    72  H    0.416556
    73  N   -0.758222
    74  H    0.366715
    75  H    0.374226
    76  N   -0.780965
    77  H    0.408914
    78  H    0.350982
    79  C    0.767816
    80  O   -0.561459
    81  H    0.430311
 Sum of Mulliken charges =   1.00000

 Dipole moment (field-independent basis, Debye):
    X=            -18.6386    Y=             -3.6876    Z=             -5.1521  Tot=             19.6860
 Quadrupole moment (field-independent basis, Debye-Ang):
   XX=           -124.8111   YY=           -221.8411   ZZ=            -40.1807
   XY=            -32.7483   XZ=            -32.2250   YZ=             47.6373

 Normal termination of Gaussian 16 at Fri May 13 15:51:47 2022.
