 Gaussian 16, Revision C.01,
 Gaussian 16:  ES64L-G16RevC.01  3-Jul-2019

 ----------------------------------------------------------------------
 # B3LYP/6-31G* empiricaldispersion=gd3 guess=read geom=check nosymm in
 tegral(ultrafinegrid)
 ----------------------------------------------------------------------

 ------------------------------------------------------
 Candidate Structure: Conf:433 Charge calc in gas phase
 ------------------------------------------------------
 Structure from the checkpoint file:  "conf-433.chk"
 Charge =  1 Multiplicity = 1

                          Input orientation:
 ---------------------------------------------------------------------
 Center     Atomic      Atomic             Coordinates (Angstroms)
 Number     Number       Type             X           Y           Z
 ---------------------------------------------------------------------
      1          7           0       -3.449780    3.603913    2.864552
      2          1           0       -4.224312    3.122159    2.364388
      3          1           0       -3.405989    3.221315    3.813617
      4          1           0       -3.533214    4.633092    2.913105
      5          6           0       -2.193785    3.261462    2.084367
      6          1           0       -2.157772    4.007577    1.284888
      7          6           0       -2.526975    1.885252    1.466611
      8          6           0       -0.924375    3.344154    2.926478
      9          1           0       -0.850033    2.460900    3.572723
     10          1           0       -0.077383    3.310187    2.225200
     11          8           0       -3.713911    1.522707    1.548299
     12          6           0       -0.801478    4.613174    3.808116
     13          1           0        0.223839    4.688462    4.175094
     14          1           0       -1.454106    4.545559    4.689410
     15          6           0       -1.188089    5.899156    3.105542
     16          8           0       -2.324461    6.173730    2.736320
     17          8           0       -0.157485    6.724587    2.914363
     18          7           0       -1.539578    1.193333    0.911730
     19          1           0       -0.592836    1.585182    0.844371
     20          6           0       -1.801956   -0.062823    0.194326
     21          1           0       -2.550956   -0.617192    0.768921
     22          6           0       -0.447212   -0.808008    0.248040
     23          6           0       -2.364659    0.267338   -1.207956
     24          1           0       -1.628421    0.900763   -1.717776
     25          1           0       -3.254923    0.885692   -1.050386
     26          8           0        0.293889   -0.606329    1.216321
     27          6           0       -2.681859   -0.914146   -2.078835
     28          6           0       -3.459204   -2.014773   -1.802409
     29          1           0       -4.040544   -2.253370   -0.920979
     30          6           0       -2.149219   -1.113699   -3.405355
     31          6           0       -2.633671   -2.364734   -3.872168
     32          6           0       -1.297258   -0.357634   -4.230077
     33          1           0       -0.918180    0.606999   -3.900590
     34          7           0       -3.425745   -2.888710   -2.872858
     35          1           0       -3.914388   -3.770503   -2.914196
     36          6           0       -1.470296   -2.093786   -5.932201
     37          1           0       -1.191045   -2.454320   -6.917508
     38          6           0       -2.305633   -2.866412   -5.135199
     39          1           0       -2.691603   -3.821151   -5.481556
     40          6           0       -0.971668   -0.851452   -5.484771
     41          1           0       -0.328381   -0.271552   -6.139747
     42          7           0       -0.082321   -1.553768   -0.809390
     43          1           0       -0.676397   -1.682697   -1.624254
     44          6           0        1.320160   -1.858659   -1.071551
     45          1           0        1.818368   -2.001874   -0.107608
     46          6           0        1.994294   -0.656861   -1.811732
     47          6           0        1.397044   -3.133952   -1.929701
     48          1           0        2.440292   -3.245083   -2.254641
     49          8           0        2.413102   -0.722777   -2.973549
     50          6           0        0.953175   -4.387263   -1.189931
     51          1           0        1.592678   -4.578072   -0.322132
     52          1           0        1.006121   -5.246212   -1.864729
     53          1           0       -0.080634   -4.281925   -0.846538
     54          8           0        0.527391   -2.990544   -3.057566
     55          1           0        0.845806   -2.241519   -3.588487
     56          7           0        1.991481    0.463317   -1.070040
     57          1           0        1.725456    0.422963   -0.082536
     58          6           0        2.350885    1.787554   -1.520717
     59          1           0        3.447766    1.881860   -1.547156
     60          6           0        1.868046    2.831297   -0.492881
     61          6           0        1.782704    2.164432   -2.928068
     62          1           0        1.318735    3.142251   -2.853328
     63          1           0        0.987443    1.471256   -3.207959
     64          8           0        2.324977    4.003557   -0.632074
     65          6           0        2.842976    2.217040   -4.036902
     66          1           0        3.325234    1.241729   -4.156604
     67          1           0        2.347770    2.419156   -4.989299
     68          6           0        3.915797    3.304630   -3.822907
     69          1           0        4.349969    3.599964   -4.787652
     70          1           0        3.483285    4.196121   -3.368605
     71          7           0        5.041315    2.907041   -2.971355
     72          1           0        5.597053    2.131174   -3.298184
     73          7           0        4.715480    4.382028   -1.213201
     74          1           0        5.182432    4.996279   -0.562600
     75          1           0        3.657929    4.184876   -1.013746
     76          7           0        6.799441    3.413591   -1.568371
     77          1           0        7.487129    3.078806   -2.226921
     78          1           0        7.118090    3.675052   -0.647495
     79          6           0        5.495219    3.579040   -1.915250
     80          8           0        1.044598    2.461661    0.385563
     81          1           0       -0.493078    7.523031    2.460257
 ---------------------------------------------------------------------

 SCF Done:  E(RB3LYP) =  -2054.05931566     A.U. after    1 cycles

 Alpha  occ. eigenvalues --  -19.31396 -19.26441 -19.22769 -19.19231 -19.18707
 Alpha  occ. eigenvalues --  -19.18588 -19.17771 -19.17606 -14.56431 -14.48604
 Alpha  occ. eigenvalues --  -14.48374 -14.45613 -14.44565 -14.44481 -14.42639
 Alpha  occ. eigenvalues --  -14.42074 -10.44507 -10.43749 -10.39890 -10.37566
 Alpha  occ. eigenvalues --  -10.36201 -10.35626 -10.35420 -10.32281 -10.32008
 Alpha  occ. eigenvalues --  -10.31904 -10.31796 -10.29592 -10.29372 -10.29294
 Alpha  occ. eigenvalues --  -10.28714 -10.27971 -10.27117 -10.26531 -10.26032
 Alpha  occ. eigenvalues --  -10.25122 -10.24790 -10.24739 -10.24625 -10.24261
 Alpha  occ. eigenvalues --  -10.24109 -10.22747  -1.22637  -1.15496  -1.13493
 Alpha  occ. eigenvalues --   -1.12707  -1.11301  -1.10898  -1.10376  -1.09890
 Alpha  occ. eigenvalues --   -1.06681  -1.04296  -1.02827  -1.02414  -1.02251
 Alpha  occ. eigenvalues --   -0.99697  -0.99417  -0.98386  -0.92752  -0.90004
 Alpha  occ. eigenvalues --   -0.88310  -0.87746  -0.85960  -0.83968  -0.82400
 Alpha  occ. eigenvalues --   -0.81773  -0.79625  -0.78260  -0.77742  -0.77283
 Alpha  occ. eigenvalues --   -0.75614  -0.74233  -0.73585  -0.71990  -0.71030
 Alpha  occ. eigenvalues --   -0.70194  -0.69593  -0.68746  -0.68419  -0.67917
 Alpha  occ. eigenvalues --   -0.66642  -0.66449  -0.65551  -0.65169  -0.63982
 Alpha  occ. eigenvalues --   -0.63002  -0.62823  -0.62455  -0.62241  -0.61215
 Alpha  occ. eigenvalues --   -0.60487  -0.60311  -0.60130  -0.58925  -0.58360
 Alpha  occ. eigenvalues --   -0.57695  -0.57504  -0.56469  -0.56057  -0.55273
 Alpha  occ. eigenvalues --   -0.54971  -0.54446  -0.54303  -0.53755  -0.53228
 Alpha  occ. eigenvalues --   -0.53024  -0.52436  -0.52278  -0.52044  -0.51435
 Alpha  occ. eigenvalues --   -0.51235  -0.50726  -0.50045  -0.49652  -0.49322
 Alpha  occ. eigenvalues --   -0.49151  -0.48843  -0.48518  -0.48181  -0.47829
 Alpha  occ. eigenvalues --   -0.47527  -0.47409  -0.47067  -0.46700  -0.46367
 Alpha  occ. eigenvalues --   -0.46039  -0.45718  -0.45071  -0.44626  -0.43711
 Alpha  occ. eigenvalues --   -0.43578  -0.43513  -0.42890  -0.42770  -0.41978
 Alpha  occ. eigenvalues --   -0.41685  -0.41511  -0.41282  -0.40221  -0.39764
 Alpha  occ. eigenvalues --   -0.39314  -0.39017  -0.38255  -0.37338  -0.36391
 Alpha  occ. eigenvalues --   -0.35844  -0.34774  -0.33594  -0.33426  -0.33150
 Alpha  occ. eigenvalues --   -0.32795  -0.32072  -0.31842  -0.31716  -0.30246
 Alpha  occ. eigenvalues --   -0.28325  -0.26633
 Alpha virt. eigenvalues --   -0.11686  -0.08948  -0.08917  -0.07545  -0.07061
 Alpha virt. eigenvalues --   -0.06993  -0.05209  -0.03704  -0.03389  -0.02656
 Alpha virt. eigenvalues --   -0.02409  -0.01057  -0.00998  -0.00138   0.00003

 Mulliken charges:
               1
     1  N   -0.750220
     2  H    0.423653
     3  H    0.399587
     4  H    0.425578
     5  C   -0.129587
     6  H    0.232002
     7  C    0.651823
     8  C   -0.333133
     9  H    0.189513
    10  H    0.251761
    11  O   -0.568849
    12  C   -0.375270
    13  H    0.217845
    14  H    0.174827
    15  C    0.607362
    16  O   -0.494481
    17  O   -0.525054
    18  N   -0.625398
    19  H    0.426120
    20  C   -0.051372
    21  H    0.197132
    22  C    0.594015
    23  C   -0.351999
    24  H    0.155208
    25  H    0.178472
    26  O   -0.536773
    27  C    0.000044
    28  C    0.010438
    29  H    0.161821
    30  C    0.059258
    31  C    0.349345
    32  C   -0.218299
    33  H    0.129762
    34  N   -0.686757
    35  H    0.339150
    36  C   -0.147142
    37  H    0.138776
    38  C   -0.145470
    39  H    0.138258
    40  C   -0.149613
    41  H    0.127554
    42  N   -0.613224
    43  H    0.394838
    44  C   -0.104066
    45  H    0.185416
    46  C    0.619278
    47  C    0.136857
    48  H    0.139831
    49  O   -0.552391
    50  C   -0.449564
    51  H    0.145721
    52  H    0.167727
    53  H    0.154557
    54  O   -0.648282
    55  H    0.415866
    56  N   -0.643534
    57  H    0.378754
    58  C   -0.008474
    59  H    0.143993
    60  C    0.570049
    61  C   -0.295875
    62  H    0.162826
    63  H    0.174040
    64  O   -0.611894
    65  C   -0.284193
    66  H    0.181553
    67  H    0.155092
    68  C   -0.160209
    69  H    0.173548
    70  H    0.198803
    71  N   -0.583220
    72  H    0.351888
    73  N   -0.771450
    74  H    0.340281
    75  H    0.458728
    76  N   -0.767261
    77  H    0.365537
    78  H    0.367430
    79  C    0.756949
    80  O   -0.568533
    81  H    0.432721
 Sum of Mulliken charges =   1.00000

 Dipole moment (field-independent basis, Debye):
    X=              5.5675    Y=             15.6699    Z=              1.9684  Tot=             16.7457
 Quadrupole moment (field-independent basis, Debye-Ang):
   XX=           -106.3765   YY=           -147.5267   ZZ=           -185.5761
   XY=             37.4940   XZ=            -48.7359   YZ=             30.1355

 Normal termination of Gaussian 16 at Fri May 13 15:51:52 2022.
