 Gaussian 16, Revision C.01,
 Gaussian 16:  ES64L-G16RevC.01  3-Jul-2019

 ----------------------------------------------------------------------
 # B3LYP/6-31G* empiricaldispersion=gd3 guess=read geom=check nosymm in
 tegral(ultrafinegrid)
 ----------------------------------------------------------------------

 ------------------------------------------------------
 Candidate Structure: Conf:535 Charge calc in gas phase
 ------------------------------------------------------
 Structure from the checkpoint file:  "conf-535.chk"
 Charge =  1 Multiplicity = 1

                          Input orientation:
 ---------------------------------------------------------------------
 Center     Atomic      Atomic             Coordinates (Angstroms)
 Number     Number       Type             X           Y           Z
 ---------------------------------------------------------------------
      1          7           0       -6.142655    0.611885    3.457845
      2          1           0       -6.947452    1.232034    3.340154
      3          1           0       -6.169220   -0.170550    2.719870
      4          1           0       -6.172837    0.215308    4.401166
      5          6           0       -4.812652    1.263180    3.125071
      6          1           0       -5.005035    2.309514    2.872666
      7          6           0       -4.362951    0.469166    1.863533
      8          6           0       -3.822351    1.151746    4.287803
      9          1           0       -3.687769    0.091230    4.540923
     10          1           0       -2.847301    1.506823    3.941783
     11          8           0       -5.076961   -0.488228    1.510017
     12          6           0       -4.240003    1.961727    5.527164
     13          1           0       -5.210060    1.651704    5.928582
     14          1           0       -4.306053    3.025422    5.265627
     15          6           0       -3.242018    1.810295    6.666456
     16          8           0       -3.518259    1.432439    7.777772
     17          8           0       -1.999998    2.151898    6.258705
     18          7           0       -3.249273    0.869002    1.281392
     19          1           0       -2.654802    1.621754    1.644017
     20          6           0       -2.615890    0.186307    0.154191
     21          1           0       -2.632835   -0.891526    0.343798
     22          6           0       -1.161027    0.711982    0.176044
     23          6           0       -3.357660    0.460869   -1.187637
     24          1           0       -3.178742    1.498753   -1.490814
     25          1           0       -4.430146    0.357396   -0.982640
     26          8           0       -0.875066    1.660821    0.914405
     27          6           0       -2.931079   -0.503720   -2.247091
     28          6           0       -2.131750   -0.255411   -3.336646
     29          1           0       -1.677954    0.668670   -3.662290
     30          6           0       -3.182350   -1.925502   -2.234830
     31          6           0       -2.493721   -2.475020   -3.350102
     32          6           0       -3.907554   -2.777501   -1.383644
     33          1           0       -4.455787   -2.373858   -0.535049
     34          7           0       -1.891886   -1.424724   -4.020486
     35          1           0       -1.140464   -1.522200   -4.687476
     36          6           0       -3.213509   -4.668620   -2.758205
     37          1           0       -3.235737   -5.739037   -2.940766
     38          6           0       -2.499879   -3.845646   -3.623438
     39          1           0       -1.966886   -4.252957   -4.477823
     40          6           0       -3.913062   -4.141282   -1.652912
     41          1           0       -4.467115   -4.815783   -1.006079
     42          7           0       -0.291907    0.066107   -0.622278
     43          1           0       -0.646947   -0.561918   -1.340942
     44          6           0        1.097811    0.483157   -0.794697
     45          1           0        1.209186    1.470938   -0.340773
     46          6           0        1.390427    0.492472   -2.303915
     47          6           0        2.047630   -0.516977   -0.059873
     48          1           0        2.045241   -1.454620   -0.640026
     49          8           0        0.792526   -0.289998   -3.051641
     50          6           0        3.470180    0.009536    0.074070
     51          1           0        3.949382    0.186391   -0.891981
     52          1           0        4.067858   -0.717597    0.630604
     53          1           0        3.467224    0.947597    0.641132
     54          8           0        1.575188   -0.749211    1.259920
     55          1           0        0.699958   -1.159537    1.180676
     56          7           0        2.338251    1.357462   -2.705024
     57          1           0        2.898570    1.857393   -2.017467
     58          6           0        3.021395    1.272272   -3.995984
     59          1           0        2.713904    0.351597   -4.495234
     60          6           0        4.542004    1.261813   -3.694877
     61          6           0        2.651425    2.510015   -4.846314
     62          1           0        3.059731    3.392749   -4.335976
     63          1           0        1.559632    2.610882   -4.813826
     64          8           0        5.265979    0.634554   -4.536893
     65          6           0        3.066241    2.516450   -6.329149
     66          1           0        2.651310    1.634893   -6.834262
     67          1           0        2.586371    3.386519   -6.801012
     68          6           0        4.567928    2.543393   -6.658313
     69          1           0        5.020984    1.599115   -6.369543
     70          1           0        4.700091    2.687463   -7.738076
     71          7           0        5.266594    3.632492   -5.955620
     72          1           0        4.802341    4.531283   -5.949604
     73          7           0        7.048169    2.433772   -5.031169
     74          1           0        7.949954    2.487660   -4.576566
     75          1           0        6.436908    1.567346   -4.792971
     76          7           0        7.011099    4.768369   -4.970275
     77          1           0        6.821149    5.604556   -5.502371
     78          1           0        7.817107    4.787533   -4.364161
     79          6           0        6.446941    3.579534   -5.313506
     80          8           0        4.921908    1.937067   -2.719134
     81          1           0       -1.397125    2.039616    7.018986
 ---------------------------------------------------------------------

 SCF Done:  E(RB3LYP) =  -2054.02530909     A.U. after    1 cycles

 Alpha  occ. eigenvalues --  -19.29812 -19.27179 -19.24157 -19.21159 -19.20231
 Alpha  occ. eigenvalues --  -19.17864 -19.14258 -19.13631 -14.60051 -14.49167
 Alpha  occ. eigenvalues --  -14.46400 -14.46119 -14.44362 -14.43652 -14.42706
 Alpha  occ. eigenvalues --  -14.41387 -10.43625 -10.42707 -10.41671 -10.41301
 Alpha  occ. eigenvalues --  -10.38170 -10.34990 -10.34831 -10.33687 -10.33232
 Alpha  occ. eigenvalues --  -10.31704 -10.30089 -10.29723 -10.29251 -10.28383
 Alpha  occ. eigenvalues --  -10.28351 -10.27790 -10.27041 -10.26005 -10.24989
 Alpha  occ. eigenvalues --  -10.24964 -10.24638 -10.24597 -10.24527 -10.24135
 Alpha  occ. eigenvalues --  -10.23940 -10.22373  -1.20659  -1.19492  -1.13966
 Alpha  occ. eigenvalues --   -1.13046  -1.11907  -1.10127  -1.09674  -1.07924
 Alpha  occ. eigenvalues --   -1.07381  -1.05935  -1.03899  -1.00658  -0.99858
 Alpha  occ. eigenvalues --   -0.99267  -0.97604  -0.97191  -0.95367  -0.90213
 Alpha  occ. eigenvalues --   -0.89374  -0.87428  -0.86262  -0.84559  -0.83014
 Alpha  occ. eigenvalues --   -0.80231  -0.79449  -0.79031  -0.78450  -0.77132
 Alpha  occ. eigenvalues --   -0.75700  -0.74412  -0.74051  -0.72791  -0.71666
 Alpha  occ. eigenvalues --   -0.71470  -0.70414  -0.68105  -0.67896  -0.67518
 Alpha  occ. eigenvalues --   -0.66269  -0.66031  -0.65279  -0.65120  -0.64345
 Alpha  occ. eigenvalues --   -0.63841  -0.63518  -0.62829  -0.61261  -0.60042
 Alpha  occ. eigenvalues --   -0.59650  -0.59469  -0.59360  -0.58539  -0.58295
 Alpha  occ. eigenvalues --   -0.58062  -0.57534  -0.56831  -0.56628  -0.55411
 Alpha  occ. eigenvalues --   -0.54971  -0.54602  -0.54253  -0.53581  -0.53462
 Alpha  occ. eigenvalues --   -0.53144  -0.53031  -0.52882  -0.51689  -0.51558
 Alpha  occ. eigenvalues --   -0.50710  -0.50611  -0.50011  -0.49489  -0.49391
 Alpha  occ. eigenvalues --   -0.49190  -0.48988  -0.48890  -0.48855  -0.48134
 Alpha  occ. eigenvalues --   -0.47621  -0.46787  -0.46647  -0.46540  -0.45728
 Alpha  occ. eigenvalues --   -0.45344  -0.44907  -0.44416  -0.44115  -0.43799
 Alpha  occ. eigenvalues --   -0.43307  -0.42761  -0.42071  -0.42011  -0.41838
 Alpha  occ. eigenvalues --   -0.41606  -0.41280  -0.40441  -0.39666  -0.39279
 Alpha  occ. eigenvalues --   -0.39102  -0.38791  -0.38515  -0.37626  -0.36824
 Alpha  occ. eigenvalues --   -0.35606  -0.34982  -0.34267  -0.33469  -0.33264
 Alpha  occ. eigenvalues --   -0.32385  -0.31295  -0.29638  -0.28305  -0.28154
 Alpha  occ. eigenvalues --   -0.27715  -0.26588
 Alpha virt. eigenvalues --   -0.12626  -0.11491  -0.09253  -0.07294  -0.06800
 Alpha virt. eigenvalues --   -0.06581  -0.06260  -0.04413  -0.04079  -0.03463
 Alpha virt. eigenvalues --   -0.03394  -0.02301  -0.01212  -0.01172  -0.00562

 Mulliken charges:
               1
     1  N   -0.763420
     2  H    0.416853
     3  H    0.438682
     4  H    0.414964
     5  C   -0.106527
     6  H    0.219994
     7  C    0.657087
     8  C   -0.319049
     9  H    0.188202
    10  H    0.231575
    11  O   -0.546645
    12  C   -0.359751
    13  H    0.165560
    14  H    0.198573
    15  C    0.579426
    16  O   -0.424141
    17  O   -0.554651
    18  N   -0.610832
    19  H    0.377780
    20  C   -0.064768
    21  H    0.201622
    22  C    0.604098
    23  C   -0.351930
    24  H    0.160456
    25  H    0.174201
    26  O   -0.538180
    27  C    0.010115
    28  C    0.023350
    29  H    0.161804
    30  C    0.084834
    31  C    0.301789
    32  C   -0.227587
    33  H    0.133802
    34  N   -0.662811
    35  H    0.348907
    36  C   -0.150097
    37  H    0.137961
    38  C   -0.158933
    39  H    0.139432
    40  C   -0.140909
    41  H    0.127580
    42  N   -0.634192
    43  H    0.384701
    44  C   -0.072749
    45  H    0.182359
    46  C    0.609268
    47  C    0.134424
    48  H    0.134817
    49  O   -0.561924
    50  C   -0.476190
    51  H    0.182852
    52  H    0.171114
    53  H    0.155206
    54  O   -0.614566
    55  H    0.389577
    56  N   -0.591207
    57  H    0.353327
    58  C   -0.048356
    59  H    0.169439
    60  C    0.598897
    61  C   -0.257110
    62  H    0.136470
    63  H    0.146224
    64  O   -0.619719
    65  C   -0.294344
    66  H    0.163808
    67  H    0.136889
    68  C   -0.154742
    69  H    0.232757
    70  H    0.162475
    71  N   -0.603701
    72  H    0.340442
    73  N   -0.756058
    74  H    0.342102
    75  H    0.436108
    76  N   -0.772170
    77  H    0.359353
    78  H    0.366478
    79  C    0.794093
    80  O   -0.578611
    81  H    0.434046
 Sum of Mulliken charges =   1.00000

 Dipole moment (field-independent basis, Debye):
    X=             -9.8986    Y=             13.6714    Z=              0.8407  Tot=             16.8996
 Quadrupole moment (field-independent basis, Debye-Ang):
   XX=            -55.9971   YY=           -177.9712   ZZ=           -131.1291
   XY=             42.0461   XZ=           -128.8157   YZ=            -40.5109

 Normal termination of Gaussian 16 at Fri May 13 15:51:49 2022.
