 Gaussian 16, Revision C.01,
 Gaussian 16:  ES64L-G16RevC.01  3-Jul-2019

 ----------------------------------------------------------------------
 # B3LYP/6-31G* empiricaldispersion=gd3 guess=read geom=check nosymm in
 tegral(ultrafinegrid)
 ----------------------------------------------------------------------

 ------------------------------------------------------
 Candidate Structure: Conf:306 Charge calc in gas phase
 ------------------------------------------------------
 Structure from the checkpoint file:  "conf-306.chk"
 Charge =  1 Multiplicity = 1

                          Input orientation:
 ---------------------------------------------------------------------
 Center     Atomic      Atomic             Coordinates (Angstroms)
 Number     Number       Type             X           Y           Z
 ---------------------------------------------------------------------
      1          7           0       -5.643269   -0.366678    2.355830
      2          1           0       -6.326341    0.304834    1.917598
      3          1           0       -5.431365   -1.080663    1.633239
      4          1           0       -6.056886   -0.800955    3.185196
      5          6           0       -4.322443    0.325256    2.641458
      6          1           0       -4.569797    1.302052    3.066310
      7          6           0       -3.696015    0.435371    1.233945
      8          6           0       -3.439319   -0.492248    3.584467
      9          1           0       -3.221779   -1.462368    3.122034
     10          1           0       -2.474709    0.021238    3.663870
     11          8           0       -3.853571   -0.506591    0.464076
     12          6           0       -4.018756   -0.675693    4.991313
     13          1           0       -4.859123   -1.380300    5.025340
     14          1           0       -4.390714    0.276556    5.395245
     15          6           0       -2.947577   -1.177531    5.954012
     16          8           0       -1.759603   -1.107724    5.747077
     17          8           0       -3.505717   -1.681799    7.068902
     18          7           0       -3.029500    1.577761    0.952070
     19          1           0       -3.102157    2.330868    1.626946
     20          6           0       -2.863794    1.995086   -0.445358
     21          1           0       -2.929348    1.078174   -1.038819
     22          6           0       -1.484562    2.595233   -0.742867
     23          6           0       -4.028139    2.946160   -0.839104
     24          1           0       -3.936830    3.154828   -1.908398
     25          1           0       -3.906482    3.905790   -0.321763
     26          8           0       -1.356228    3.287450   -1.761529
     27          6           0       -5.346067    2.322604   -0.487064
     28          6           0       -6.097738    2.588345    0.619599
     29          1           0       -5.983777    3.368762    1.361078
     30          6           0       -5.967980    1.194288   -1.159112
     31          6           0       -7.099434    0.820374   -0.402459
     32          6           0       -5.645510    0.471140   -2.315927
     33          1           0       -4.772360    0.731137   -2.907176
     34          7           0       -7.137142    1.635329    0.754951
     35          1           0       -8.034159    1.920633    1.138162
     36          6           0       -7.606982   -0.924891   -1.935049
     37          1           0       -8.239538   -1.744215   -2.262619
     38          6           0       -7.934614   -0.233573   -0.769584
     39          1           0       -8.811470   -0.498948   -0.184825
     40          6           0       -6.472712   -0.580699   -2.694597
     41          1           0       -6.244177   -1.147334   -3.591842
     42          7           0       -0.527142    2.295241    0.134432
     43          1           0       -0.760891    1.732424    0.944640
     44          6           0        0.897890    2.480144   -0.066527
     45          1           0        1.147693    3.548245   -0.051215
     46          6           0        1.358483    1.842527   -1.403033
     47          6           0        1.630924    1.737839    1.113227
     48          1           0        1.706794    0.681547    0.832094
     49          8           0        0.653168    0.977219   -1.953896
     50          6           0        3.007642    2.306857    1.422321
     51          1           0        3.687739    2.288924    0.563434
     52          1           0        3.458030    1.731667    2.236898
     53          1           0        2.920779    3.354897    1.743509
     54          8           0        0.798991    1.725188    2.287924
     55          1           0        0.986472    2.541419    2.780049
     56          7           0        2.547564    2.266893   -1.829779
     57          1           0        3.115961    2.943912   -1.270385
     58          6           0        3.563832    1.466524   -2.532631
     59          1           0        3.502284    0.433401   -2.166787
     60          6           0        4.952892    2.080319   -2.030341
     61          6           0        3.522633    1.430782   -4.061375
     62          1           0        4.490454    1.004638   -4.339225
     63          1           0        3.534580    2.461535   -4.442285
     64          8           0        5.959714    1.608526   -2.565599
     65          6           0        2.370359    0.614901   -4.689878
     66          1           0        2.749482   -0.062812   -5.465254
     67          1           0        1.893788   -0.007374   -3.925589
     68          6           0        1.287670    1.476971   -5.349234
     69          1           0        1.675324    1.988547   -6.235873
     70          1           0        0.453775    0.860410   -5.700766
     71          7           0        0.718177    2.467426   -4.423538
     72          1           0        0.314845    2.045157   -3.581513
     73          7           0        1.734812    4.382531   -5.330316
     74          1           0        2.173824    5.261096   -5.089273
     75          1           0        2.297375    3.813294   -5.945923
     76          7           0        0.588978    4.490771   -3.318768
     77          1           0       -0.079470    4.080299   -2.655750
     78          1           0        0.640428    5.497223   -3.368059
     79          6           0        1.027595    3.758499   -4.351121
     80          8           0        4.826364    2.981034   -1.141705
     81          1           0       -2.781431   -1.959526    7.663227
 ---------------------------------------------------------------------

 SCF Done:  E(RB3LYP) =  -2053.99875399     A.U. after    1 cycles

 Alpha  occ. eigenvalues --  -19.30552 -19.27513 -19.25109 -19.23858 -19.22743
 Alpha  occ. eigenvalues --  -19.18349 -19.09744 -19.08341 -14.60457 -14.51238
 Alpha  occ. eigenvalues --  -14.51216 -14.47253 -14.46221 -14.45956 -14.45730
 Alpha  occ. eigenvalues --  -14.39738 -10.44649 -10.43650 -10.43071 -10.41781
 Alpha  occ. eigenvalues --  -10.39915 -10.35892 -10.35116 -10.34696 -10.34552
 Alpha  occ. eigenvalues --  -10.34178 -10.34173 -10.32390 -10.31637 -10.31593
 Alpha  occ. eigenvalues --  -10.31544 -10.31078 -10.30617 -10.30567 -10.29886
 Alpha  occ. eigenvalues --  -10.29785 -10.29201 -10.27350 -10.24883 -10.24426
 Alpha  occ. eigenvalues --  -10.23280 -10.22698  -1.21567  -1.20094  -1.14771
 Alpha  occ. eigenvalues --   -1.14395  -1.12839  -1.11572  -1.11019  -1.10040
 Alpha  occ. eigenvalues --   -1.09430  -1.07959  -1.02707  -1.02477  -1.00964
 Alpha  occ. eigenvalues --   -0.99689  -0.96938  -0.95854  -0.95600  -0.93801
 Alpha  occ. eigenvalues --   -0.93051  -0.89783  -0.87278  -0.85906  -0.85216
 Alpha  occ. eigenvalues --   -0.85039  -0.83702  -0.80121  -0.79809  -0.79147
 Alpha  occ. eigenvalues --   -0.76680  -0.75000  -0.74394  -0.73915  -0.73594
 Alpha  occ. eigenvalues --   -0.73132  -0.71971  -0.71231  -0.71009  -0.69878
 Alpha  occ. eigenvalues --   -0.69411  -0.68879  -0.68255  -0.66357  -0.66283
 Alpha  occ. eigenvalues --   -0.65122  -0.64596  -0.64357  -0.62481  -0.62031
 Alpha  occ. eigenvalues --   -0.61475  -0.61061  -0.60406  -0.60073  -0.59962
 Alpha  occ. eigenvalues --   -0.59347  -0.59027  -0.58849  -0.58427  -0.57857
 Alpha  occ. eigenvalues --   -0.57732  -0.56207  -0.56182  -0.55607  -0.55045
 Alpha  occ. eigenvalues --   -0.54482  -0.53982  -0.53912  -0.53642  -0.53011
 Alpha  occ. eigenvalues --   -0.52805  -0.52349  -0.51972  -0.51883  -0.51401
 Alpha  occ. eigenvalues --   -0.51276  -0.50919  -0.50408  -0.50164  -0.49524
 Alpha  occ. eigenvalues --   -0.49441  -0.49336  -0.49057  -0.48693  -0.47483
 Alpha  occ. eigenvalues --   -0.47040  -0.46481  -0.46198  -0.45390  -0.44893
 Alpha  occ. eigenvalues --   -0.44050  -0.43808  -0.43272  -0.42777  -0.42686
 Alpha  occ. eigenvalues --   -0.41926  -0.41278  -0.41106  -0.40404  -0.39874
 Alpha  occ. eigenvalues --   -0.39611  -0.38837  -0.38812  -0.38564  -0.38151
 Alpha  occ. eigenvalues --   -0.37305  -0.36749  -0.36499  -0.35743  -0.35079
 Alpha  occ. eigenvalues --   -0.34639  -0.33232  -0.32199  -0.30964  -0.24713
 Alpha  occ. eigenvalues --   -0.24645  -0.22481
 Alpha virt. eigenvalues --   -0.14580  -0.13378  -0.10990  -0.10305  -0.09896
 Alpha virt. eigenvalues --   -0.08805  -0.07422  -0.07134  -0.06689  -0.05391
 Alpha virt. eigenvalues --   -0.05028  -0.03638  -0.03402  -0.03114  -0.02340

 Mulliken charges:
               1
     1  N   -0.769948
     2  H    0.441359
     3  H    0.425205
     4  H    0.405746
     5  C   -0.124302
     6  H    0.185765
     7  C    0.655179
     8  C   -0.284356
     9  H    0.201517
    10  H    0.228564
    11  O   -0.500497
    12  C   -0.390259
    13  H    0.175000
    14  H    0.194215
    15  C    0.598961
    16  O   -0.429750
    17  O   -0.556232
    18  N   -0.611337
    19  H    0.341152
    20  C   -0.093987
    21  H    0.240867
    22  C    0.680593
    23  C   -0.364744
    24  H    0.207171
    25  H    0.160752
    26  O   -0.576956
    27  C    0.103206
    28  C   -0.079020
    29  H    0.163701
    30  C    0.132215
    31  C    0.222599
    32  C   -0.191319
    33  H    0.152593
    34  N   -0.725895
    35  H    0.358407
    36  C   -0.140943
    37  H    0.161596
    38  C   -0.189870
    39  H    0.145715
    40  C   -0.131742
    41  H    0.160805
    42  N   -0.620064
    43  H    0.366137
    44  C   -0.048542
    45  H    0.163248
    46  C    0.576686
    47  C    0.099377
    48  H    0.175518
    49  O   -0.580218
    50  C   -0.510941
    51  H    0.237315
    52  H    0.171167
    53  H    0.134087
    54  O   -0.641210
    55  H    0.397751
    56  N   -0.601138
    57  H    0.363516
    58  C   -0.077688
    59  H    0.153036
    60  C    0.590691
    61  C   -0.276032
    62  H    0.200261
    63  H    0.097807
    64  O   -0.554574
    65  C   -0.272215
    66  H    0.153163
    67  H    0.180208
    68  C   -0.183651
    69  H    0.154056
    70  H    0.177090
    71  N   -0.587084
    72  H    0.393100
    73  N   -0.748607
    74  H    0.367466
    75  H    0.373431
    76  N   -0.798175
    77  H    0.428594
    78  H    0.353038
    79  C    0.787648
    80  O   -0.610327
    81  H    0.434346
 Sum of Mulliken charges =   1.00000

 Dipole moment (field-independent basis, Debye):
    X=            -34.5067    Y=              7.8692    Z=              6.4554  Tot=             35.9765
 Quadrupole moment (field-independent basis, Debye-Ang):
   XX=           -154.5160   YY=           -186.6357   ZZ=           -132.2767
   XY=            -17.6626   XZ=            -55.6038   YZ=            -28.3087

 Normal termination of Gaussian 16 at Fri May 13 15:51:48 2022.
