 Gaussian 16, Revision C.01,
 Gaussian 16:  ES64L-G16RevC.01  3-Jul-2019

 ----------------------------------------------------------------------
 # B3LYP/6-31G* empiricaldispersion=gd3 guess=read geom=check nosymm in
 tegral(ultrafinegrid)
 ----------------------------------------------------------------------

 ------------------------------------------------------
 Candidate Structure: Conf:446 Charge calc in gas phase
 ------------------------------------------------------
 Structure from the checkpoint file:  "conf-446.chk"
 Charge =  1 Multiplicity = 1

                          Input orientation:
 ---------------------------------------------------------------------
 Center     Atomic      Atomic             Coordinates (Angstroms)
 Number     Number       Type             X           Y           Z
 ---------------------------------------------------------------------
      1          7           0       -5.374412    3.215475    3.331994
      2          1           0       -6.181844    3.765144    3.023800
      3          1           0       -5.499456    2.221808    2.992483
      4          1           0       -5.319800    3.254957    4.353554
      5          6           0       -4.081283    3.617962    2.648145
      6          1           0       -4.139965    4.673224    2.371418
      7          6           0       -4.044334    2.648918    1.437246
      8          6           0       -2.899009    3.336806    3.603230
      9          1           0       -3.157036    3.721835    4.598819
     10          1           0       -2.774046    2.253011    3.692164
     11          8           0       -4.679895    1.593350    1.548572
     12          6           0       -1.577193    3.989022    3.157621
     13          1           0       -1.563977    5.054518    3.397119
     14          1           0       -1.415338    3.878267    2.079959
     15          6           0       -0.339353    3.364143    3.784625
     16          8           0        0.572588    3.985317    4.263586
     17          8           0       -0.367960    2.010567    3.677670
     18          7           0       -3.268506    2.998820    0.406072
     19          1           0       -2.700218    3.838919    0.492709
     20          6           0       -2.635374    2.020184   -0.481872
     21          1           0       -2.958586    1.027416   -0.163954
     22          6           0       -1.122430    2.209569   -0.274976
     23          6           0       -2.972354    2.238269   -1.980664
     24          1           0       -2.112121    1.883895   -2.563578
     25          1           0       -3.048166    3.314468   -2.168210
     26          8           0       -0.677274    3.312914    0.044655
     27          6           0       -4.188018    1.496332   -2.432332
     28          6           0       -5.410363    1.965430   -2.840918
     29          1           0       -5.769655    2.981491   -2.917639
     30          6           0       -4.244084    0.059304   -2.535256
     31          6           0       -5.536067   -0.277696   -3.022324
     32          6           0       -3.318210   -0.971762   -2.277548
     33          1           0       -2.312541   -0.755706   -1.921908
     34          7           0       -6.222225    0.905886   -3.196888
     35          1           0       -7.167117    0.988408   -3.538878
     36          6           0       -4.987668   -2.601273   -2.993472
     37          1           0       -5.258794   -3.639246   -3.160127
     38          6           0       -5.918367   -1.601529   -3.261899
     39          1           0       -6.907237   -1.843694   -3.640205
     40          6           0       -3.699769   -2.292599   -2.503682
     41          1           0       -2.994169   -3.094375   -2.306735
     42          7           0       -0.399886    1.101026   -0.504143
     43          1           0       -0.843740    0.286507   -0.925233
     44          6           0        1.044975    1.066714   -0.714478
     45          1           0        1.407971    2.088832   -0.843469
     46          6           0        1.233297    0.211176   -1.989756
     47          6           0        1.735126    0.435092    0.539753
     48          1           0        1.507016   -0.644252    0.529676
     49          8           0        0.287848   -0.536093   -2.356389
     50          6           0        3.236566    0.656192    0.591857
     51          1           0        3.770734    0.209919   -0.250462
     52          1           0        3.622802    0.226145    1.520440
     53          1           0        3.451391    1.730673    0.602392
     54          8           0        1.184481    1.034589    1.712329
     55          1           0        0.221452    0.962065    1.630353
     56          7           0        2.398967    0.334561   -2.603871
     57          1           0        3.200209    0.853930   -2.166973
     58          6           0        3.073160   -0.687500   -3.419376
     59          1           0        2.731114   -1.677582   -3.093920
     60          6           0        4.617867   -0.533538   -3.050185
     61          6           0        2.886136   -0.576748   -4.933273
     62          1           0        3.584159   -1.296127   -5.369672
     63          1           0        3.205690    0.418089   -5.273093
     64          8           0        5.368278   -1.320863   -3.629864
     65          6           0        1.457890   -0.871525   -5.392385
     66          1           0        1.449874   -1.170126   -6.451391
     67          1           0        1.081039   -1.732738   -4.828580
     68          6           0        0.483867    0.293328   -5.165632
     69          1           0        0.790747    0.886723   -4.306900
     70          1           0        0.426576    0.979595   -6.017390
     71          7           0       -0.869491   -0.200675   -4.851622
     72          1           0       -0.933648   -0.565225   -3.901547
     73          7           0       -1.441427   -0.560408   -7.080650
     74          1           0       -2.163112   -0.654564   -7.779010
     75          1           0       -0.500728   -0.386042   -7.397808
     76          7           0       -2.939215   -1.099324   -5.407358
     77          1           0       -3.150406   -1.194504   -4.420969
     78          1           0       -3.422744   -1.736849   -6.020876
     79          6           0       -1.731978   -0.635957   -5.767557
     80          8           0        4.849712    0.392820   -2.216647
     81          1           0        0.526872    1.678851    3.894825
 ---------------------------------------------------------------------

 SCF Done:  E(RB3LYP) =  -2053.98294242     A.U. after    1 cycles

 Alpha  occ. eigenvalues --  -19.28542 -19.28264 -19.23136 -19.22618 -19.21282
 Alpha  occ. eigenvalues --  -19.20238 -19.09452 -19.08050 -14.61989 -14.51163
 Alpha  occ. eigenvalues --  -14.50114 -14.49011 -14.48841 -14.48588 -14.46375
 Alpha  occ. eigenvalues --  -14.40825 -10.45709 -10.45349 -10.42533 -10.41251
 Alpha  occ. eigenvalues --  -10.40046 -10.36293 -10.35959 -10.35204 -10.33188
 Alpha  occ. eigenvalues --  -10.33166 -10.31833 -10.31606 -10.31399 -10.31126
 Alpha  occ. eigenvalues --  -10.30774 -10.30219 -10.30069 -10.29731 -10.29557
 Alpha  occ. eigenvalues --  -10.29464 -10.29438 -10.27084 -10.26189 -10.25023
 Alpha  occ. eigenvalues --  -10.23157 -10.21339  -1.21064  -1.19001  -1.15872
 Alpha  occ. eigenvalues --   -1.15062  -1.14340  -1.11033  -1.10432  -1.08989
 Alpha  occ. eigenvalues --   -1.08907  -1.07799  -1.03319  -1.02887  -1.02765
 Alpha  occ. eigenvalues --   -1.02531  -0.97748  -0.95860  -0.95286  -0.93779
 Alpha  occ. eigenvalues --   -0.92468  -0.88807  -0.87260  -0.86886  -0.85012
 Alpha  occ. eigenvalues --   -0.84511  -0.83043  -0.80710  -0.79994  -0.78770
 Alpha  occ. eigenvalues --   -0.77507  -0.76456  -0.75735  -0.73849  -0.73596
 Alpha  occ. eigenvalues --   -0.73423  -0.72714  -0.71770  -0.70412  -0.70337
 Alpha  occ. eigenvalues --   -0.69480  -0.68377  -0.68216  -0.67166  -0.66937
 Alpha  occ. eigenvalues --   -0.65438  -0.64993  -0.64673  -0.63356  -0.62987
 Alpha  occ. eigenvalues --   -0.62446  -0.62045  -0.60888  -0.60331  -0.59465
 Alpha  occ. eigenvalues --   -0.59217  -0.58340  -0.58062  -0.57973  -0.57505
 Alpha  occ. eigenvalues --   -0.56761  -0.56414  -0.56379  -0.55505  -0.55399
 Alpha  occ. eigenvalues --   -0.54722  -0.54649  -0.54084  -0.53955  -0.53681
 Alpha  occ. eigenvalues --   -0.53335  -0.52700  -0.52559  -0.51839  -0.51365
 Alpha  occ. eigenvalues --   -0.51007  -0.50645  -0.49920  -0.49677  -0.49470
 Alpha  occ. eigenvalues --   -0.48985  -0.48085  -0.47860  -0.47719  -0.47228
 Alpha  occ. eigenvalues --   -0.46519  -0.46165  -0.45643  -0.44915  -0.44631
 Alpha  occ. eigenvalues --   -0.44347  -0.43770  -0.43000  -0.42641  -0.41989
 Alpha  occ. eigenvalues --   -0.41665  -0.41316  -0.41055  -0.40546  -0.40378
 Alpha  occ. eigenvalues --   -0.39944  -0.39452  -0.38782  -0.38441  -0.37440
 Alpha  occ. eigenvalues --   -0.37096  -0.36809  -0.36547  -0.36066  -0.34882
 Alpha  occ. eigenvalues --   -0.33631  -0.33185  -0.32235  -0.31639  -0.24489
 Alpha  occ. eigenvalues --   -0.24333  -0.22234
 Alpha virt. eigenvalues --   -0.14436  -0.12749  -0.12554  -0.10348  -0.09385
 Alpha virt. eigenvalues --   -0.08763  -0.08399  -0.07861  -0.06179  -0.05672
 Alpha virt. eigenvalues --   -0.05577  -0.04738  -0.03573  -0.02839  -0.02532

 Mulliken charges:
               1
     1  N   -0.748027
     2  H    0.418987
     3  H    0.432721
     4  H    0.416966
     5  C   -0.122384
     6  H    0.215236
     7  C    0.642527
     8  C   -0.306803
     9  H    0.177887
    10  H    0.215519
    11  O   -0.524099
    12  C   -0.393393
    13  H    0.195824
    14  H    0.216965
    15  C    0.594058
    16  O   -0.418888
    17  O   -0.583654
    18  N   -0.579344
    19  H    0.364216
    20  C   -0.095679
    21  H    0.205863
    22  C    0.602682
    23  C   -0.367850
    24  H    0.177465
    25  H    0.172946
    26  O   -0.522372
    27  C    0.080642
    28  C    0.002483
    29  H    0.168779
    30  C    0.082922
    31  C    0.326893
    32  C   -0.313155
    33  H    0.161560
    34  N   -0.688138
    35  H    0.344660
    36  C   -0.160734
    37  H    0.158497
    38  C   -0.163093
    39  H    0.153520
    40  C   -0.169449
    41  H    0.161797
    42  N   -0.645545
    43  H    0.391809
    44  C   -0.086407
    45  H    0.197325
    46  C    0.606693
    47  C    0.141385
    48  H    0.125978
    49  O   -0.629463
    50  C   -0.483434
    51  H    0.215370
    52  H    0.162009
    53  H    0.158864
    54  O   -0.642752
    55  H    0.395046
    56  N   -0.597764
    57  H    0.379972
    58  C   -0.088272
    59  H    0.150651
    60  C    0.600608
    61  C   -0.270029
    62  H    0.194373
    63  H    0.142051
    64  O   -0.556371
    65  C   -0.279457
    66  H    0.124442
    67  H    0.159200
    68  C   -0.185238
    69  H    0.207315
    70  H    0.160980
    71  N   -0.599050
    72  H    0.398676
    73  N   -0.760292
    74  H    0.372783
    75  H    0.389721
    76  N   -0.778974
    77  H    0.405113
    78  H    0.360567
    79  C    0.785909
    80  O   -0.602282
    81  H    0.443936
 Sum of Mulliken charges =   1.00000

 Dipole moment (field-independent basis, Debye):
    X=            -41.1674    Y=             10.6452    Z=             -4.3532  Tot=             42.7437
 Quadrupole moment (field-independent basis, Debye-Ang):
   XX=           -163.5398   YY=           -195.1470   ZZ=            -90.5007
   XY=            -61.2061   XZ=             26.8263   YZ=             40.4258

 Normal termination of Gaussian 16 at Fri May 13 15:51:51 2022.
