 Gaussian 16, Revision C.01,
 Gaussian 16:  ES64L-G16RevC.01  3-Jul-2019

 ----------------------------------------------------------------------
 # B3LYP/6-31G* empiricaldispersion=gd3 guess=read geom=check nosymm in
 tegral(ultrafinegrid)
 ----------------------------------------------------------------------

 ------------------------------------------------------
 Candidate Structure: Conf:123 Charge calc in gas phase
 ------------------------------------------------------
 Structure from the checkpoint file:  "conf-123.chk"
 Charge =  1 Multiplicity = 1

                          Input orientation:
 ---------------------------------------------------------------------
 Center     Atomic      Atomic             Coordinates (Angstroms)
 Number     Number       Type             X           Y           Z
 ---------------------------------------------------------------------
      1          7           0       -7.096602    2.230690    4.353741
      2          1           0       -7.119959    2.829979    5.190187
      3          1           0       -7.777088    1.466452    4.450359
      4          1           0       -7.246579    2.836046    3.431091
      5          6           0       -5.682477    1.707705    4.022351
      6          1           0       -5.029210    1.820991    4.888933
      7          6           0       -5.302888    2.665117    2.861626
      8          6           0       -5.775607    0.227795    3.575328
      9          1           0       -6.515261    0.178661    2.764024
     10          8           0       -6.262643    3.291657    2.313150
     11          6           0       -4.418599   -0.265510    3.026712
     12          1           0       -3.625590   -0.125974    3.773304
     13          1           0       -4.491425   -1.336685    2.819661
     14          1           0       -4.151115    0.240513    2.096690
     15          6           0       -6.223214   -0.659945    4.760677
     16          1           0       -5.474571   -0.622130    5.560201
     17          1           0       -7.195760   -0.372961    5.182683
     18          1           0       -6.311365   -1.696723    4.423726
     19          7           0       -4.031876    2.792848    2.540997
     20          1           0       -3.248614    2.221982    2.901865
     21          6           0       -3.563097    3.523947    1.361050
     22          1           0       -4.157114    4.422029    1.185555
     23          6           0       -3.570521    2.544850    0.175662
     24          6           0       -2.060781    3.801778    1.695557
     25          1           0       -1.996254    4.544390    2.493369
     26          1           0       -1.530822    4.147142    0.805362
     27          8           0       -3.781442    1.323742    0.313001
     28          8           0       -1.511534    2.545131    2.182807
     29          1           0       -1.163923    2.079133    1.351378
     30          7           0       -3.165905    3.072967   -1.009937
     31          1           0       -2.957168    4.062647   -1.098269
     32          6           0       -2.566007    2.153191   -1.987835
     33          1           0       -3.320032    1.442201   -2.332164
     34          6           0       -1.440947    1.386431   -1.252894
     35          6           0       -1.953100    2.944298   -3.156810
     36          1           0       -1.513745    2.257113   -3.885217
     37          1           0       -1.156705    3.598548   -2.785941
     38          1           0       -2.719583    3.543289   -3.657707
     39          8           0       -0.831305    1.899043   -0.272968
     40          7           0       -1.147503    0.189724   -1.759737
     41          1           0       -1.513367   -0.148098   -2.655645
     42          6           0       -0.011276   -0.613847   -1.281916
     43          1           0        0.677326    0.058197   -0.768430
     44          6           0        0.654871   -1.122417   -2.576470
     45          6           0       -0.488920   -1.749080   -0.356446
     46          1           0       -1.163408   -2.393731   -0.934073
     47          1           0        0.381560   -2.350546   -0.062135
     48          8           0        0.011003   -1.127182   -3.654247
     49          6           0       -1.215175   -1.240954    0.914833
     50          1           0       -2.029785   -0.571772    0.608339
     51          6           0       -1.816304   -2.448686    1.667639
     52          1           0       -1.023575   -3.158024    1.935407
     53          1           0       -2.303065   -2.121160    2.592417
     54          1           0       -2.555328   -2.971423    1.049104
     55          6           0       -0.256274   -0.464964    1.844968
     56          1           0        0.512802   -1.136857    2.243929
     57          1           0       -0.811213   -0.027334    2.683217
     58          1           0        0.229546    0.356498    1.313557
     59          7           0        1.955082   -1.418150   -2.448545
     60          1           0        2.450688   -1.363545   -1.549286
     61          6           0        2.911793   -1.428033   -3.561346
     62          1           0        2.815937   -2.334684   -4.169198
     63          6           0        4.280887   -1.407951   -2.843307
     64          6           0        2.750304   -0.162712   -4.475302
     65          1           0        1.755628   -0.227612   -4.921824
     66          1           0        3.490684   -0.207971   -5.280117
     67          8           0        4.353761   -1.469632   -1.593104
     68          6           0        2.897731    1.110603   -3.667136
     69          6           0        1.790779    1.632819   -2.980083
     70          1           0        0.816155    1.199648   -3.155661
     71          6           0        4.141590    1.732023   -3.493220
     72          1           0        5.010890    1.375433   -4.037322
     73          6           0        1.919265    2.690630   -2.087691
     74          1           0        1.076076    3.030587   -1.500573
     75          6           0        4.269235    2.818620   -2.626094
     76          1           0        5.237554    3.296109   -2.511616
     77          8           0        3.236862    4.342213   -0.998508
     78          1           0        4.164651    4.691165   -0.952403
     79          6           0        3.169530    3.291165   -1.902109
     80          7           0        5.367936   -1.275128   -3.627214
     81          1           0        5.292763   -1.008483   -4.607566
     82          6           0        6.658115   -0.904692   -3.020583
     83          1           0        6.449764   -0.153448   -2.243356
     84          6           0        7.459725   -0.204562   -4.151153
     85          6           0        7.372874   -2.088523   -2.356294
     86          1           0        6.620820   -2.651813   -1.797905
     87          1           0        7.782874   -2.746447   -3.129204
     88          8           0        8.776224   -0.244881   -4.105830
     89          6           0        8.467059   -1.589292   -1.368932
     90          1           0        7.994732   -1.423687   -0.395235
     91          1           0        8.847338   -0.622516   -1.715550
     92          6           0        9.658457   -2.569663   -1.219517
     93          1           0       10.076196   -2.513100   -0.207694
     94          1           0        9.319282   -3.603157   -1.369149
     95          6           0       10.801601   -2.243981   -2.196655
     96          1           0       11.615317   -2.972640   -2.103471
     97          1           0       11.194653   -1.246148   -1.981550
     98          7           0       10.295957   -2.198144   -3.623836
     99          1           0       11.059607   -1.976753   -4.277044
    100          1           0        9.888217   -3.101880   -3.894728
    101          1           0        9.386907   -1.176298   -3.806328
    102          8           0        6.812659    0.409110   -5.023962
 ---------------------------------------------------------------------

 SCF Done:  E(RB3LYP) =  -2312.21376114     A.U. after   13 cycles

 Alpha  occ. eigenvalues --  -19.26377 -19.22763 -19.22446 -19.21813 -19.20613
 Alpha  occ. eigenvalues --  -19.18978 -19.18304 -19.18160 -19.16663 -14.57481
 Alpha  occ. eigenvalues --  -14.48821 -14.45837 -14.45073 -14.44452 -14.41932
 Alpha  occ. eigenvalues --  -14.41701 -10.42909 -10.39465 -10.38889 -10.37775
 Alpha  occ. eigenvalues --  -10.35466 -10.35397 -10.35038 -10.34296 -10.33287
 Alpha  occ. eigenvalues --  -10.33055 -10.32736 -10.30294 -10.30067 -10.29931
 Alpha  occ. eigenvalues --  -10.29930 -10.29458 -10.28618 -10.27418 -10.27218
 Alpha  occ. eigenvalues --  -10.25980 -10.25383 -10.25044 -10.24594 -10.24531
 Alpha  occ. eigenvalues --  -10.24500 -10.23582 -10.23565 -10.23414 -10.23311
 Alpha  occ. eigenvalues --  -10.22983 -10.22953 -10.22868  -1.17740  -1.13501
 Alpha  occ. eigenvalues --   -1.11269  -1.10737  -1.10352  -1.09577  -1.09138
 Alpha  occ. eigenvalues --   -1.09127  -1.08652  -1.04804  -1.02569  -1.01820
 Alpha  occ. eigenvalues --   -1.00542  -0.99263  -0.98573  -0.97762  -0.93624
 Alpha  occ. eigenvalues --   -0.89802  -0.88578  -0.87502  -0.86491  -0.85512
 Alpha  occ. eigenvalues --   -0.84343  -0.83125  -0.81625  -0.81067  -0.79616
 Alpha  occ. eigenvalues --   -0.79175  -0.77997  -0.75191  -0.75065  -0.74184
 Alpha  occ. eigenvalues --   -0.73941  -0.73136  -0.72895  -0.72023  -0.71207
 Alpha  occ. eigenvalues --   -0.70394  -0.69322  -0.68470  -0.67949  -0.67113
 Alpha  occ. eigenvalues --   -0.66468  -0.65564  -0.65170  -0.64299  -0.64207
 Alpha  occ. eigenvalues --   -0.63318  -0.62878  -0.62218  -0.61875  -0.61401
 Alpha  occ. eigenvalues --   -0.60655  -0.60071  -0.59840  -0.59068  -0.58715
 Alpha  occ. eigenvalues --   -0.58114  -0.57176  -0.56955  -0.56045  -0.55350
 Alpha  occ. eigenvalues --   -0.55042  -0.54831  -0.54518  -0.53854  -0.53730
 Alpha  occ. eigenvalues --   -0.53159  -0.52820  -0.52525  -0.52038  -0.51943
 Alpha  occ. eigenvalues --   -0.51206  -0.51002  -0.50706  -0.50358  -0.50337
 Alpha  occ. eigenvalues --   -0.50166  -0.49972  -0.49562  -0.49504  -0.49314
 Alpha  occ. eigenvalues --   -0.48918  -0.48875  -0.48428  -0.47777  -0.47670
 Alpha  occ. eigenvalues --   -0.47342  -0.47227  -0.46499  -0.46228  -0.46053
 Alpha  occ. eigenvalues --   -0.45841  -0.45737  -0.45568  -0.45108  -0.44838
 Alpha  occ. eigenvalues --   -0.44790  -0.44650  -0.44518  -0.44281  -0.44209
 Alpha  occ. eigenvalues --   -0.43933  -0.43827  -0.43295  -0.42499  -0.42207
 Alpha  occ. eigenvalues --   -0.41866  -0.41685  -0.41176  -0.41104  -0.39976
 Alpha  occ. eigenvalues --   -0.39842  -0.39414  -0.39271  -0.38953  -0.38726
 Alpha  occ. eigenvalues --   -0.38534  -0.38240  -0.38169  -0.36978  -0.36766
 Alpha  occ. eigenvalues --   -0.35609  -0.34913  -0.34512  -0.34290  -0.33588
 Alpha  occ. eigenvalues --   -0.32849  -0.32489  -0.31943  -0.31852  -0.30920
 Alpha  occ. eigenvalues --   -0.30088  -0.29493  -0.26329
 Alpha virt. eigenvalues --   -0.12055  -0.09595  -0.08851  -0.06857  -0.05772
 Alpha virt. eigenvalues --   -0.04979  -0.04302  -0.03992  -0.03807  -0.03542
 Alpha virt. eigenvalues --   -0.03355  -0.01877  -0.01720  -0.00357   0.00054

 Mulliken charges:
               1
     1  N   -0.777283
     2  H    0.406374
     3  H    0.404602
     4  H    0.442816
     5  C   -0.091124
     6  H    0.205804
     7  C    0.659764
     8  C   -0.111691
     9  H    0.166766
    10  O   -0.569332
    11  C   -0.518701
    12  H    0.151185
    13  H    0.180130
    14  H    0.244038
    15  C   -0.460576
    16  H    0.172430
    17  H    0.130955
    18  H    0.195437
    19  N   -0.578243
    20  H    0.395956
    21  C   -0.114208
    22  H    0.198484
    23  C    0.635544
    24  C   -0.064251
    25  H    0.174356
    26  H    0.176262
    27  O   -0.516998
    28  O   -0.687428
    29  H    0.490503
    30  N   -0.587701
    31  H    0.341915
    32  C   -0.033112
    33  H    0.189128
    34  C    0.665757
    35  C   -0.494564
    36  H    0.194103
    37  H    0.181025
    38  H    0.178503
    39  O   -0.606745
    40  N   -0.587950
    41  H    0.363959
    42  C   -0.085830
    43  H    0.205202
    44  C    0.624576
    45  C   -0.251725
    46  H    0.147548
    47  H    0.149297
    48  O   -0.563645
    49  C   -0.097548
    50  H    0.158088
    51  C   -0.448582
    52  H    0.148097
    53  H    0.135309
    54  H    0.142628
    55  C   -0.471896
    56  H    0.142309
    57  H    0.141761
    58  H    0.170012
    59  N   -0.617194
    60  H    0.372062
    61  C   -0.021687
    62  H    0.184607
    63  C    0.621030
    64  C   -0.407558
    65  H    0.199508
    66  H    0.161373
    67  O   -0.558520
    68  C    0.146738
    69  C   -0.209569
    70  H    0.132328
    71  C   -0.206010
    72  H    0.186950
    73  C   -0.180488
    74  H    0.142712
    75  C   -0.201953
    76  H    0.124714
    77  O   -0.656683
    78  H    0.407004
    79  C    0.357433
    80  N   -0.621799
    81  H    0.358519
    82  C   -0.038037
    83  H    0.189051
    84  C    0.587383
    85  C   -0.275090
    86  H    0.182007
    87  H    0.115792
    88  O   -0.646573
    89  C   -0.294297
    90  H    0.160896
    91  H    0.161404
    92  C   -0.276857
    93  H    0.163166
    94  H    0.149279
    95  C   -0.152213
    96  H    0.167305
    97  H    0.182891
    98  N   -0.797390
    99  H    0.363258
   100  H    0.350993
   101  H    0.497320
   102  O   -0.495297
 Sum of Mulliken charges =   1.00000

 Dipole moment (field-independent basis, Debye):
    X=             -8.9067    Y=              3.2421    Z=             11.1272  Tot=             14.6169
 Quadrupole moment (field-independent basis, Debye-Ang):
   XX=             15.8934   YY=           -234.4516   ZZ=           -214.5477
   XY=            -95.8393   XZ=           -123.8565   YZ=             42.7994

 Normal termination of Gaussian 16 at Sun Jul 10 14:53:11 2022.
