 Gaussian 16, Revision C.01,
 Gaussian 16:  ES64L-G16RevC.01  3-Jul-2019

 ----------------------------------------------------------------------
 # B3LYP/6-31G* empiricaldispersion=gd3 guess=read geom=check nosymm in
 tegral(ultrafinegrid)
 ----------------------------------------------------------------------

 ------------------------------------------------------
 Candidate Structure: Conf:102 Charge calc in gas phase
 ------------------------------------------------------
 Structure from the checkpoint file:  "conf-102.chk"
 Charge =  1 Multiplicity = 1

                          Input orientation:
 ---------------------------------------------------------------------
 Center     Atomic      Atomic             Coordinates (Angstroms)
 Number     Number       Type             X           Y           Z
 ---------------------------------------------------------------------
      1          7           0       -4.201774    1.814050    5.862229
      2          1           0       -3.330972    1.973898    6.385736
      3          1           0       -4.898462    1.369846    6.474276
      4          1           0       -4.588583    2.761094    5.403131
      5          6           0       -3.987769    1.019833    4.557107
      6          1           0       -2.933015    0.747372    4.475507
      7          6           0       -4.340087    2.117229    3.507312
      8          6           0       -4.876777   -0.247401    4.523872
      9          1           0       -5.924910    0.069324    4.610176
     10          8           0       -4.776729    3.223233    3.960830
     11          6           0       -4.691434   -1.026467    3.197995
     12          1           0       -3.630767   -1.248084    3.027552
     13          1           0       -5.225565   -1.978281    3.269014
     14          1           0       -5.087405   -0.489250    2.334570
     15          6           0       -4.506121   -1.178346    5.705309
     16          1           0       -3.461044   -1.497063    5.617431
     17          1           0       -4.646704   -0.711466    6.687939
     18          1           0       -5.138730   -2.070169    5.679387
     19          7           0       -4.129645    1.847102    2.238596
     20          1           0       -3.760730    0.953949    1.869671
     21          6           0       -4.318358    2.794034    1.131975
     22          1           0       -5.330908    3.202286    1.111577
     23          6           0       -4.006052    1.937333   -0.102707
     24          6           0       -3.261470    3.954783    1.246778
     25          1           0       -2.308404    3.481677    1.503817
     26          1           0       -3.582599    4.605545    2.061959
     27          8           0       -3.622764    0.745975    0.041381
     28          8           0       -3.153308    4.722824    0.020455
     29          1           0       -2.349751    4.309676   -0.465320
     30          7           0       -4.023721    2.595800   -1.279661
     31          1           0       -4.075559    3.622756   -1.174805
     32          6           0       -3.111221    2.098233   -2.340541
     33          1           0       -3.391728    1.077166   -2.600427
     34          6           0       -1.700819    2.129147   -1.708230
     35          6           0       -3.168521    3.048253   -3.544223
     36          1           0       -2.518696    2.683570   -4.344716
     37          1           0       -2.822450    4.041660   -3.239466
     38          1           0       -4.193059    3.120030   -3.918765
     39          8           0       -1.338246    3.121269   -1.006645
     40          7           0       -0.922944    1.070965   -1.913229
     41          1           0       -1.175957    0.281788   -2.513486
     42          6           0        0.385899    0.896766   -1.272502
     43          1           0        0.868008    1.867527   -1.151742
     44          6           0        1.177238   -0.046370   -2.184742
     45          6           0        0.241052    0.138997    0.083757
     46          1           0       -0.313578   -0.780823   -0.145254
     47          1           0        1.239385   -0.168459    0.418854
     48          8           0        0.591269   -0.812219   -2.975959
     49          6           0       -0.502137    0.913250    1.193835
     50          1           0       -1.495179    1.163403    0.817008
     51          6           0       -0.679426   -0.014186    2.417722
     52          1           0        0.295445   -0.327412    2.808443
     53          1           0       -1.212784    0.516866    3.219919
     54          1           0       -1.252818   -0.910453    2.149146
     55          6           0        0.239836    2.205279    1.589606
     56          1           0        1.280140    1.984697    1.856541
     57          1           0       -0.241609    2.675897    2.457437
     58          1           0        0.208360    2.917070    0.761715
     59          7           0        2.513593   -0.030523   -1.957061
     60          1           0        2.878703    0.553119   -1.207295
     61          6           0        3.353949   -1.190389   -2.264037
     62          1           0        2.750693   -1.860088   -2.884717
     63          6           0        3.671020   -1.863112   -0.905026
     64          6           0        4.642501   -0.753973   -3.014898
     65          1           0        4.329128   -0.254720   -3.937448
     66          1           0        5.221665   -1.639255   -3.297933
     67          8           0        3.189738   -1.440126    0.167188
     68          6           0        5.483639    0.174047   -2.161151
     69          6           0        5.170936    1.540779   -2.073884
     70          1           0        4.369984    1.942518   -2.684878
     71          6           0        6.540569   -0.321774   -1.388335
     72          1           0        6.810838   -1.369521   -1.447596
     73          6           0        5.877794    2.383678   -1.223652
     74          1           0        5.651396    3.439220   -1.152930
     75          6           0        7.251519    0.522329   -0.536292
     76          1           0        8.064622    0.117230    0.057782
     77          8           0        7.576655    2.773522    0.388838
     78          1           0        8.310788    2.316891    0.875634
     79          6           0        6.922262    1.877511   -0.440883
     80          7           0        4.502143   -2.929517   -0.981228
     81          1           0        5.031266   -3.140206   -1.825472
     82          6           0        5.074950   -3.559625    0.212781
     83          1           0        4.787510   -2.970131    1.081685
     84          6           0        6.592363   -3.578751    0.061713
     85          6           0        4.561912   -5.050480    0.349552
     86          1           0        3.753517   -5.062080    1.087834
     87          1           0        4.124847   -5.324174   -0.616382
     88          8           0        7.277842   -3.768994    1.137006
     89          6           0        5.642888   -6.098156    0.740128
     90          1           0        5.141020   -6.984946    1.141787
     91          1           0        6.263531   -5.670403    1.529930
     92          6           0        6.522870   -6.525206   -0.482597
     93          1           0        6.158547   -7.484450   -0.866959
     94          1           0        6.419293   -5.792392   -1.287519
     95          6           0        8.032475   -6.699834   -0.188747
     96          1           0        8.503063   -7.294343   -0.976622
     97          1           0        8.196010   -7.186628    0.776137
     98          7           0        8.756176   -5.351078   -0.150667
     99          1           0        9.776553   -5.450021   -0.120811
    100          1           0        8.421781   -4.727618   -0.943412
    101          1           0        8.342172   -4.701815    0.663516
    102          8           0        7.068196   -3.587227   -1.141163
 ---------------------------------------------------------------------

 SCF Done:  E(RB3LYP) =  -2312.21033944     A.U. after   13 cycles

 Alpha  occ. eigenvalues --  -19.27148 -19.22745 -19.22378 -19.22027 -19.20973
 Alpha  occ. eigenvalues --  -19.18799 -19.17397 -19.17310 -19.17230 -14.57754
 Alpha  occ. eigenvalues --  -14.49547 -14.47510 -14.44912 -14.44873 -14.42465
 Alpha  occ. eigenvalues --  -14.41311 -10.43633 -10.40083 -10.39103 -10.37912
 Alpha  occ. eigenvalues --  -10.35846 -10.34901 -10.34516 -10.34341 -10.34248
 Alpha  occ. eigenvalues --  -10.32670 -10.32641 -10.31558 -10.30788 -10.30722
 Alpha  occ. eigenvalues --  -10.29617 -10.29565 -10.29515 -10.28090 -10.26680
 Alpha  occ. eigenvalues --  -10.25914 -10.25799 -10.25697 -10.25228 -10.25119
 Alpha  occ. eigenvalues --  -10.24836 -10.24418 -10.23911 -10.23831 -10.23734
 Alpha  occ. eigenvalues --  -10.23463 -10.23237 -10.23183  -1.18409  -1.13897
 Alpha  occ. eigenvalues --   -1.11678  -1.11045  -1.09958  -1.09776  -1.09149
 Alpha  occ. eigenvalues --   -1.08037  -1.07935  -1.05891  -1.01900  -1.01605
 Alpha  occ. eigenvalues --   -1.00768  -1.00747  -0.98997  -0.97374  -0.94477
 Alpha  occ. eigenvalues --   -0.90117  -0.88720  -0.88015  -0.86386  -0.85854
 Alpha  occ. eigenvalues --   -0.84768  -0.83424  -0.81807  -0.81281  -0.80925
 Alpha  occ. eigenvalues --   -0.79356  -0.78053  -0.75957  -0.75788  -0.75417
 Alpha  occ. eigenvalues --   -0.74321  -0.73727  -0.72539  -0.71945  -0.71186
 Alpha  occ. eigenvalues --   -0.69978  -0.69180  -0.68580  -0.67865  -0.66984
 Alpha  occ. eigenvalues --   -0.66663  -0.65858  -0.65427  -0.64738  -0.64512
 Alpha  occ. eigenvalues --   -0.63580  -0.63002  -0.62914  -0.62825  -0.61768
 Alpha  occ. eigenvalues --   -0.61240  -0.60516  -0.59211  -0.58610  -0.58556
 Alpha  occ. eigenvalues --   -0.57938  -0.57513  -0.57260  -0.56199  -0.56035
 Alpha  occ. eigenvalues --   -0.55207  -0.54803  -0.54401  -0.54197  -0.54097
 Alpha  occ. eigenvalues --   -0.53508  -0.53289  -0.52621  -0.52520  -0.52117
 Alpha  occ. eigenvalues --   -0.51881  -0.51543  -0.51314  -0.51034  -0.50889
 Alpha  occ. eigenvalues --   -0.50671  -0.50460  -0.50239  -0.49810  -0.49506
 Alpha  occ. eigenvalues --   -0.49020  -0.48678  -0.48649  -0.48008  -0.47862
 Alpha  occ. eigenvalues --   -0.47470  -0.47378  -0.47293  -0.47024  -0.46793
 Alpha  occ. eigenvalues --   -0.46580  -0.46561  -0.46379  -0.46041  -0.45938
 Alpha  occ. eigenvalues --   -0.45292  -0.45116  -0.44833  -0.44632  -0.44515
 Alpha  occ. eigenvalues --   -0.44135  -0.43938  -0.43554  -0.42932  -0.42415
 Alpha  occ. eigenvalues --   -0.42206  -0.41878  -0.41737  -0.41489  -0.40457
 Alpha  occ. eigenvalues --   -0.40039  -0.39904  -0.39589  -0.39424  -0.39284
 Alpha  occ. eigenvalues --   -0.39051  -0.38594  -0.38101  -0.37255  -0.36839
 Alpha  occ. eigenvalues --   -0.36460  -0.35268  -0.34406  -0.33411  -0.33152
 Alpha  occ. eigenvalues --   -0.32431  -0.32299  -0.32180  -0.31860  -0.30552
 Alpha  occ. eigenvalues --   -0.29926  -0.29604  -0.26495
 Alpha virt. eigenvalues --   -0.12673  -0.10221  -0.09445  -0.06818  -0.05699
 Alpha virt. eigenvalues --   -0.05372  -0.04882  -0.04615  -0.04228  -0.03622
 Alpha virt. eigenvalues --   -0.03181  -0.01241  -0.00974  -0.00913   0.00419

 Mulliken charges:
               1
     1  N   -0.784324
     2  H    0.409024
     3  H    0.404819
     4  H    0.447358
     5  C   -0.093128
     6  H    0.220402
     7  C    0.650769
     8  C   -0.113634
     9  H    0.165383
    10  O   -0.567991
    11  C   -0.487138
    12  H    0.175392
    13  H    0.186940
    14  H    0.186526
    15  C   -0.462351
    16  H    0.175346
    17  H    0.135597
    18  H    0.196497
    19  N   -0.627101
    20  H    0.410140
    21  C   -0.075440
    22  H    0.210209
    23  C    0.611730
    24  C   -0.055106
    25  H    0.169216
    26  H    0.186815
    27  O   -0.555455
    28  O   -0.659098
    29  H    0.451147
    30  N   -0.590286
    31  H    0.371613
    32  C   -0.056072
    33  H    0.186835
    34  C    0.659168
    35  C   -0.474934
    36  H    0.181224
    37  H    0.178112
    38  H    0.183043
    39  O   -0.602922
    40  N   -0.579704
    41  H    0.366447
    42  C   -0.089056
    43  H    0.186088
    44  C    0.620719
    45  C   -0.278466
    46  H    0.146813
    47  H    0.201105
    48  O   -0.544355
    49  C   -0.091450
    50  H    0.143516
    51  C   -0.467563
    52  H    0.170418
    53  H    0.099792
    54  H    0.151130
    55  C   -0.465064
    56  H    0.150186
    57  H    0.116800
    58  H    0.186541
    59  N   -0.576213
    60  H    0.349872
    61  C   -0.089426
    62  H    0.202647
    63  C    0.619899
    64  C   -0.362746
    65  H    0.169890
    66  H    0.157031
    67  O   -0.541072
    68  C    0.136187
    69  C   -0.205588
    70  H    0.132297
    71  C   -0.203497
    72  H    0.180370
    73  C   -0.158165
    74  H    0.142632
    75  C   -0.199396
    76  H    0.127080
    77  O   -0.650225
    78  H    0.407995
    79  C    0.357722
    80  N   -0.600688
    81  H    0.348406
    82  C   -0.022588
    83  H    0.197288
    84  C    0.608775
    85  C   -0.284877
    86  H    0.155817
    87  H    0.151483
    88  O   -0.602724
    89  C   -0.294602
    90  H    0.143391
    91  H    0.183243
    92  C   -0.300601
    93  H    0.160616
    94  H    0.179295
    95  C   -0.165655
    96  H    0.179168
    97  H    0.186890
    98  N   -0.783261
    99  H    0.370257
   100  H    0.405499
   101  H    0.428152
   102  O   -0.612805
 Sum of Mulliken charges =   1.00000

 Dipole moment (field-independent basis, Debye):
    X=             -3.9826    Y=             -5.6097    Z=             15.3247  Tot=             16.7981
 Quadrupole moment (field-independent basis, Debye-Ang):
   XX=            -98.1572   YY=           -223.0380   ZZ=           -167.3391
   XY=            -96.1020   XZ=            -75.9846   YZ=             15.9689

 Normal termination of Gaussian 16 at Sun Jul 10 14:47:36 2022.
