 Gaussian 16, Revision C.01,
 Gaussian 16:  ES64L-G16RevC.01  3-Jul-2019

 ----------------------------------------------------------------------
 # B3LYP/6-31G* empiricaldispersion=gd3 guess=read geom=check nosymm in
 tegral(ultrafinegrid)
 ----------------------------------------------------------------------

 ------------------------------------------------------
 Candidate Structure: Conf:950 Charge calc in gas phase
 ------------------------------------------------------
 Structure from the checkpoint file:  "conf-950.chk"
 Charge =  1 Multiplicity = 1

                          Input orientation:
 ---------------------------------------------------------------------
 Center     Atomic      Atomic             Coordinates (Angstroms)
 Number     Number       Type             X           Y           Z
 ---------------------------------------------------------------------
      1          7           0       -1.614037   -1.980167    2.163670
      2          1           0       -1.683919   -2.964656    1.912095
      3          1           0       -2.006787   -1.863217    3.093096
      4          6           0       -0.238120   -1.500986    2.094031
      5          1           0       -0.206310   -0.503985    2.552034
      6          6           0        0.175266   -1.206418    0.637995
      7          6           0        0.831499   -2.398624    2.773068
      8          1           0        0.704958   -3.437818    2.448276
      9          1           0        1.815393   -2.063889    2.429619
     10          8           0        1.358688   -1.207205    0.287754
     11          6           0        0.758942   -2.294707    4.258442
     12          6           0        0.227095   -3.194744    5.104639
     13          1           0       -0.199237   -4.175772    4.957404
     14          6           0        1.221701   -1.128073    5.029732
     15          6           0        0.962874   -1.348238    6.383426
     16          6           0        1.829211    0.064788    4.643136
     17          1           0        2.049703    0.316375    3.610799
     18          7           0        0.321390   -2.688511    6.511236
     19          1           0       -0.605503   -2.623244    6.951968
     20          6           0        1.866157    0.738382    6.994265
     21          1           0        2.120542    1.477852    7.746813
     22          6           0        1.260816   -0.463019    7.398119
     23          1           0        1.046116   -0.667054    8.442737
     24          6           0        2.140415    0.990135    5.645784
     25          1           0        2.599641    1.927421    5.348731
     26          7           0       -0.852891   -0.853225   -0.160680
     27          1           0       -1.774356   -0.945879    0.252515
     28          6           0       -0.691573   -0.317441   -1.518897
     29          1           0       -1.640489    0.189710   -1.734108
     30          6           0        0.420060    0.765782   -1.466091
     31          6           0       -0.433391   -1.380717   -2.620512
     32          1           0        0.651236   -1.446458   -2.754551
     33          8           0        1.405614    0.737871   -2.202614
     34          6           0       -1.068593   -0.949571   -3.961270
     35          1           0       -0.842571   -1.727995   -4.701417
     36          1           0       -2.163383   -0.956196   -3.843547
     37          6           0       -0.960624   -2.765363   -2.219763
     38          1           0       -2.035867   -2.741183   -2.000259
     39          1           0       -0.807483   -3.474655   -3.040190
     40          1           0       -0.442426   -3.157217   -1.339384
     41          6           0       -0.626195    0.407089   -4.521747
     42          1           0       -1.082224    0.577534   -5.503048
     43          1           0        0.460967    0.456076   -4.628289
     44          1           0       -0.924946    1.240255   -3.874983
     45          7           0        0.238513    1.726340   -0.508933
     46          1           0       -0.496938    1.555314    0.173346
     47          6           0        1.446568    2.243474    0.134858
     48          1           0        2.227438    1.692269   -0.361162
     49          6           0        1.485882    1.792374    1.615661
     50          6           0        1.747889    3.749502   -0.073969
     51          1           0        0.832929    4.248991   -0.406729
     52          1           0        2.035370    4.212935    0.878269
     53          8           0        2.661016    1.710609    2.123365
     54          6           0        2.861857    3.971420   -1.117222
     55          1           0        2.864336    5.015368   -1.454213
     56          1           0        2.637545    3.355791   -1.997515
     57          6           0        4.290381    3.676772   -0.604050
     58          1           0        5.026460    3.787650   -1.408796
     59          1           0        4.567630    4.409339    0.158930
     60          7           0        4.469207    2.361759    0.043149
     61          1           0        4.086572    2.317089    1.001188
     62          7           0        4.436310    1.082037   -1.936746
     63          1           0        3.806939    0.428442   -2.391390
     64          1           0        4.559118    1.935729   -2.462552
     65          7           0        3.980974    0.111715    0.131982
     66          1           0        3.530561    0.327453    1.028390
     67          1           0        3.562891   -0.679239   -0.343963
     68          6           0        4.285192    1.198215   -0.598250
     69          8           0        0.411491    1.502659    2.176260
     70          1           0        0.884141   -3.319302    7.097515
 ---------------------------------------------------------------------

 SCF Done:  E(RB3LYP) =  -1582.20186285     A.U. after    2 cycles

 Alpha  occ. eigenvalues --  -19.20660 -19.19511 -19.16967 -19.16416 -14.61913
 Alpha  occ. eigenvalues --  -14.46495 -14.45547 -14.44902 -14.44289 -14.42835
 Alpha  occ. eigenvalues --  -14.41889 -10.42226 -10.37449 -10.37438 -10.37374
 Alpha  occ. eigenvalues --  -10.36227 -10.35472 -10.34396 -10.33144 -10.33081
 Alpha  occ. eigenvalues --  -10.32114 -10.31751 -10.31551 -10.31167 -10.30539
 Alpha  occ. eigenvalues --  -10.30442 -10.30205 -10.28174 -10.26809 -10.25880
 Alpha  occ. eigenvalues --  -10.25582 -10.24250 -10.24132 -10.22760  -1.17080
 Alpha  occ. eigenvalues --   -1.12475  -1.11292  -1.10744  -1.09545  -1.01731
 Alpha  occ. eigenvalues --   -1.01137  -1.00303  -0.99734  -0.99113  -0.98830
 Alpha  occ. eigenvalues --   -0.98139  -0.95158  -0.87719  -0.87596  -0.87009
 Alpha  occ. eigenvalues --   -0.86770  -0.85191  -0.82031  -0.80099  -0.78251
 Alpha  occ. eigenvalues --   -0.76367  -0.75685  -0.74560  -0.74138  -0.73499
 Alpha  occ. eigenvalues --   -0.71919  -0.69980  -0.68880  -0.68200  -0.67453
 Alpha  occ. eigenvalues --   -0.66959  -0.66707  -0.65060  -0.63704  -0.63033
 Alpha  occ. eigenvalues --   -0.62441  -0.62269  -0.60859  -0.60358  -0.59020
 Alpha  occ. eigenvalues --   -0.58917  -0.58204  -0.57792  -0.56783  -0.56497
 Alpha  occ. eigenvalues --   -0.55989  -0.55300  -0.55170  -0.54638  -0.54006
 Alpha  occ. eigenvalues --   -0.53064  -0.52697  -0.51898  -0.51693  -0.51038
 Alpha  occ. eigenvalues --   -0.50849  -0.50257  -0.49900  -0.49370  -0.48692
 Alpha  occ. eigenvalues --   -0.48434  -0.48037  -0.47649  -0.47609  -0.47078
 Alpha  occ. eigenvalues --   -0.46882  -0.46583  -0.46066  -0.45483  -0.44382
 Alpha  occ. eigenvalues --   -0.44218  -0.43293  -0.43087  -0.42542  -0.41927
 Alpha  occ. eigenvalues --   -0.41493  -0.40324  -0.39629  -0.38978  -0.38282
 Alpha  occ. eigenvalues --   -0.37934  -0.37872  -0.36328  -0.36173  -0.35526
 Alpha  occ. eigenvalues --   -0.35124  -0.34130  -0.33383  -0.32404  -0.32305
 Alpha  occ. eigenvalues --   -0.30674  -0.29987
 Alpha virt. eigenvalues --   -0.16832  -0.13325  -0.10820  -0.08803  -0.08575
 Alpha virt. eigenvalues --   -0.07420  -0.05823  -0.04416  -0.03087  -0.02666
 Alpha virt. eigenvalues --   -0.02450  -0.01614  -0.00678   0.00683   0.01215

 Mulliken charges:
               1
     1  N   -0.737531
     2  H    0.311358
     3  H    0.314919
     4  C   -0.120485
     5  H    0.250387
     6  C    0.661746
     7  C   -0.365744
     8  H    0.160047
     9  H    0.206115
    10  O   -0.582909
    11  C    0.183669
    12  C   -0.139058
    13  H    0.208300
    14  C    0.142036
    15  C    0.153284
    16  C   -0.168719
    17  H    0.231503
    18  N   -0.724066
    19  H    0.421046
    20  C   -0.136839
    21  H    0.177990
    22  C   -0.159196
    23  H    0.170767
    24  C   -0.137594
    25  H    0.187390
    26  N   -0.623771
    27  H    0.365484
    28  C   -0.037277
    29  H    0.168090
    30  C    0.621054
    31  C   -0.072683
    32  H    0.153905
    33  O   -0.556401
    34  C   -0.262237
    35  H    0.143475
    36  H    0.129489
    37  C   -0.450164
    38  H    0.134387
    39  H    0.156579
    40  H    0.137105
    41  C   -0.449377
    42  H    0.150235
    43  H    0.160396
    44  H    0.138695
    45  N   -0.585226
    46  H    0.338407
    47  C   -0.059694
    48  H    0.162685
    49  C    0.607649
    50  C   -0.272177
    51  H    0.169155
    52  H    0.155397
    53  O   -0.634137
    54  C   -0.293960
    55  H    0.160468
    56  H    0.162492
    57  C   -0.184825
    58  H    0.168155
    59  H    0.185271
    60  N   -0.556697
    61  H    0.383111
    62  N   -0.718676
    63  H    0.384042
    64  H    0.364918
    65  N   -0.719742
    66  H    0.384753
    67  H    0.373862
    68  C    0.659836
    69  O   -0.573904
    70  H    0.423432
 Sum of Mulliken charges =   1.00000

 Dipole moment (field-independent basis, Debye):
    X=              4.3780    Y=             -7.1979    Z=             18.8834  Tot=             20.6776
 Quadrupole moment (field-independent basis, Debye-Ang):
   XX=           -171.3033   YY=           -146.6607   ZZ=            -30.5811
   XY=             22.1349   XZ=             -3.4077   YZ=            -64.6605

 Normal termination of Gaussian 16 at Fri Jun  3 05:11:15 2022.
