 Gaussian 16, Revision C.01,
 Gaussian 16:  ES64L-G16RevC.01  3-Jul-2019

 ----------------------------------------------------------------------
 # B3LYP/6-31G* empiricaldispersion=gd3 guess=read geom=check nosymm in
 tegral(ultrafinegrid)
 ----------------------------------------------------------------------

 ------------------------------------------------------
 Candidate Structure: Conf:112 Charge calc in gas phase
 ------------------------------------------------------
 Structure from the checkpoint file:  "conf-112.chk"
 Charge =  1 Multiplicity = 1

                          Input orientation:
 ---------------------------------------------------------------------
 Center     Atomic      Atomic             Coordinates (Angstroms)
 Number     Number       Type             X           Y           Z
 ---------------------------------------------------------------------
      1          7           0       -2.806180   -2.641954    2.461810
      2          1           0       -3.605595   -2.060030    2.213102
      3          1           0       -2.803814   -3.414475    1.793139
      4          6           0       -1.555355   -1.877490    2.285680
      5          1           0       -1.629679   -0.950052    2.861560
      6          6           0       -1.313164   -1.558276    0.803250
      7          6           0       -0.371391   -2.701302    2.829671
      8          1           0       -0.408059   -3.697880    2.375829
      9          1           0        0.563571   -2.239638    2.522512
     10          8           0       -0.769513   -2.367562    0.058015
     11          6           0       -0.415427   -2.802322    4.323639
     12          6           0       -1.405077   -3.354389    5.046382
     13          1           0       -2.349912   -3.787066    4.758260
     14          6           0        0.611963   -2.273091    5.241432
     15          6           0        0.217420   -2.530611    6.555402
     16          6           0        1.813919   -1.598204    5.017025
     17          1           0        2.167047   -1.342155    4.012326
     18          7           0       -1.095570   -3.230031    6.507952
     19          1           0       -1.823263   -2.693816    6.997375
     20          6           0        2.137348   -1.504906    7.447754
     21          1           0        2.745175   -1.198321    8.293332
     22          6           0        0.928660   -2.176227    7.683332
     23          1           0        0.585068   -2.395187    8.690075
     24          6           0        2.559489   -1.225527    6.142845
     25          1           0        3.495705   -0.697071    5.990294
     26          7           0       -1.844130   -0.381338    0.354208
     27          1           0       -2.095546    0.304350    1.052890
     28          6           0       -1.577290    0.103061   -1.011838
     29          1           0       -1.923366    1.143129   -1.013903
     30          6           0       -0.036518    0.111477   -1.251646
     31          6           0       -2.333977   -0.685120   -2.107312
     32          1           0       -1.754215   -1.595174   -2.286210
     33          8           0        0.480785   -0.302999   -2.285553
     34          6           0       -2.374162    0.099957   -3.440232
     35          1           0       -1.347085    0.343594   -3.727452
     36          1           0       -2.755355   -0.583378   -4.211031
     37          6           0       -3.740468   -1.091678   -1.645003
     38          1           0       -4.323236   -0.232838   -1.290542
     39          1           0       -4.292027   -1.548732   -2.474793
     40          1           0       -3.695191   -1.820868   -0.830876
     41          6           0       -3.235495    1.370517   -3.446250
     42          1           0       -3.194497    1.855228   -4.428305
     43          1           0       -2.895142    2.109845   -2.710148
     44          1           0       -4.287888    1.153599   -3.232758
     45          7           0        0.675868    0.616766   -0.203693
     46          1           0        0.155425    0.778573    0.662598
     47          6           0        1.940040    0.002908    0.204193
     48          1           0        2.005939   -0.991734   -0.255133
     49          6           0        1.868939   -0.229523    1.753028
     50          6           0        3.176752    0.805066   -0.204727
     51          1           0        3.111571    1.816817    0.218713
     52          1           0        4.048664    0.313009    0.241072
     53          8           0        2.875734   -0.775669    2.257242
     54          6           0        3.297149    0.879552   -1.728351
     55          1           0        2.404091    1.360590   -2.141737
     56          1           0        3.313052   -0.138404   -2.139264
     57          6           0        4.542508    1.628686   -2.190055
     58          1           0        4.535344    2.663790   -1.826908
     59          1           0        5.450253    1.131343   -1.823485
     60          7           0        4.565346    1.652324   -3.670666
     61          1           0        3.871552    1.074346   -4.131390
     62          7           0        6.473496    2.951059   -3.873711
     63          1           0        6.975474    3.669852   -4.374662
     64          1           0        6.682019    2.838568   -2.892303
     65          7           0        5.228689    2.437062   -5.756668
     66          1           0        4.400670    2.056001   -6.192470
     67          1           0        5.996640    2.673367   -6.369008
     68          6           0        5.415304    2.334454   -4.425295
     69          8           0        0.786815    0.100431    2.320990
     70          1           0       -1.051177   -4.152092    6.959869
 ---------------------------------------------------------------------

 SCF Done:  E(RB3LYP) =  -1582.15324840     A.U. after    3 cycles

 Alpha  occ. eigenvalues --  -19.16850 -19.15771 -19.11615 -19.11010 -14.58020
 Alpha  occ. eigenvalues --  -14.52516 -14.52381 -14.52025 -14.41465 -14.39363
 Alpha  occ. eigenvalues --  -14.37549 -10.48640 -10.34376 -10.33716 -10.33660
 Alpha  occ. eigenvalues --  -10.32549 -10.32456 -10.30823 -10.29758 -10.29356
 Alpha  occ. eigenvalues --  -10.29284 -10.28814 -10.28229 -10.28063 -10.27128
 Alpha  occ. eigenvalues --  -10.26623 -10.26162 -10.25464 -10.25103 -10.23974
 Alpha  occ. eigenvalues --  -10.22865 -10.21809 -10.21783 -10.21651  -1.17102
 Alpha  occ. eigenvalues --   -1.13228  -1.08931  -1.07078  -1.06087  -1.05406
 Alpha  occ. eigenvalues --   -1.04611  -0.98027  -0.96304  -0.96084  -0.95104
 Alpha  occ. eigenvalues --   -0.94235  -0.91004  -0.88901  -0.85002  -0.83919
 Alpha  occ. eigenvalues --   -0.82967  -0.82067  -0.80902  -0.78963  -0.77765
 Alpha  occ. eigenvalues --   -0.75628  -0.74957  -0.73052  -0.72301  -0.71414
 Alpha  occ. eigenvalues --   -0.70430  -0.70357  -0.69541  -0.67998  -0.66584
 Alpha  occ. eigenvalues --   -0.65608  -0.65369  -0.64324  -0.63741  -0.63358
 Alpha  occ. eigenvalues --   -0.60890  -0.60680  -0.59057  -0.58870  -0.58232
 Alpha  occ. eigenvalues --   -0.58114  -0.57314  -0.56750  -0.56094  -0.55533
 Alpha  occ. eigenvalues --   -0.53646  -0.52772  -0.52501  -0.51581  -0.51393
 Alpha  occ. eigenvalues --   -0.50998  -0.50275  -0.49805  -0.49350  -0.47959
 Alpha  occ. eigenvalues --   -0.47457  -0.47211  -0.46714  -0.46654  -0.46237
 Alpha  occ. eigenvalues --   -0.45218  -0.44957  -0.44594  -0.44174  -0.43623
 Alpha  occ. eigenvalues --   -0.43511  -0.43154  -0.43021  -0.42580  -0.42310
 Alpha  occ. eigenvalues --   -0.41585  -0.41435  -0.41112  -0.40796  -0.40503
 Alpha  occ. eigenvalues --   -0.40085  -0.39018  -0.38615  -0.37602  -0.36931
 Alpha  occ. eigenvalues --   -0.36359  -0.36132  -0.34352  -0.33817  -0.32585
 Alpha  occ. eigenvalues --   -0.32040  -0.29670  -0.29124  -0.28395  -0.26906
 Alpha  occ. eigenvalues --   -0.26304  -0.24995
 Alpha virt. eigenvalues --   -0.12917  -0.12427  -0.09792  -0.08552  -0.07381
 Alpha virt. eigenvalues --   -0.04900  -0.04639  -0.03699  -0.03590  -0.03090
 Alpha virt. eigenvalues --   -0.02108  -0.00907   0.00409   0.00911   0.00969

 Mulliken charges:
               1
     1  N   -0.729523
     2  H    0.312505
     3  H    0.316521
     4  C   -0.076312
     5  H    0.162609
     6  C    0.654538
     7  C   -0.354149
     8  H    0.177605
     9  H    0.229442
    10  O   -0.536087
    11  C    0.172052
    12  C   -0.106745
    13  H    0.217865
    14  C    0.112129
    15  C    0.152819
    16  C   -0.175304
    17  H    0.274289
    18  N   -0.726430
    19  H    0.415397
    20  C   -0.138639
    21  H    0.162699
    22  C   -0.164823
    23  H    0.157144
    24  C   -0.147956
    25  H    0.168601
    26  N   -0.631999
    27  H    0.329941
    28  C   -0.051636
    29  H    0.151158
    30  C    0.603841
    31  C   -0.063890
    32  H    0.171242
    33  O   -0.542776
    34  C   -0.271467
    35  H    0.154854
    36  H    0.132754
    37  C   -0.451443
    38  H    0.132168
    39  H    0.146734
    40  H    0.137314
    41  C   -0.455865
    42  H    0.144412
    43  H    0.133997
    44  H    0.150502
    45  N   -0.602086
    46  H    0.338048
    47  C   -0.066617
    48  H    0.168900
    49  C    0.616077
    50  C   -0.260947
    51  H    0.134775
    52  H    0.164165
    53  O   -0.603098
    54  C   -0.312963
    55  H    0.182688
    56  H    0.167347
    57  C   -0.145826
    58  H    0.181088
    59  H    0.179845
    60  N   -0.605317
    61  H    0.376617
    62  N   -0.757645
    63  H    0.384148
    64  H    0.396266
    65  N   -0.763051
    66  H    0.385973
    67  H    0.382968
    68  C    0.833429
    69  O   -0.639567
    70  H    0.414695
 Sum of Mulliken charges =   1.00000

 Dipole moment (field-independent basis, Debye):
    X=             13.1627    Y=              3.0080    Z=              0.6343  Tot=             13.5169
 Quadrupole moment (field-independent basis, Debye-Ang):
   XX=            -61.7614   YY=           -146.6387   ZZ=             23.6364
   XY=             74.4758   XZ=           -122.5131   YZ=           -105.9445

 Normal termination of Gaussian 16 at Fri Jun  3 04:56:24 2022.
