 Gaussian 16, Revision C.01,
 Gaussian 16:  ES64L-G16RevC.01  3-Jul-2019

 ----------------------------------------------------------------------
 # B3LYP/6-31G* empiricaldispersion=gd3 guess=read geom=check nosymm in
 tegral(ultrafinegrid)
 ----------------------------------------------------------------------

 ------------------------------------------------------
 Candidate Structure: Conf:123 Charge calc in gas phase
 ------------------------------------------------------
 Structure from the checkpoint file:  "conf-123.chk"
 Charge =  1 Multiplicity = 1

                          Input orientation:
 ---------------------------------------------------------------------
 Center     Atomic      Atomic             Coordinates (Angstroms)
 Number     Number       Type             X           Y           Z
 ---------------------------------------------------------------------
      1          7           0       -1.651372   -3.774780    1.457069
      2          1           0       -2.491460   -3.844069    0.882503
      3          1           0       -0.921877   -4.168173    0.859533
      4          6           0       -1.346437   -2.356070    1.649071
      5          1           0       -2.204147   -1.896121    2.157456
      6          6           0       -1.172274   -1.629908    0.279726
      7          6           0       -0.111994   -2.171096    2.553912
      8          1           0        0.781376   -2.580937    2.058899
      9          1           0        0.097211   -1.103317    2.692845
     10          8           0       -1.125937   -2.285433   -0.754368
     11          6           0       -0.226113   -2.794519    3.913222
     12          6           0       -1.044078   -3.790357    4.292796
     13          1           0       -1.745829   -4.385457    3.728798
     14          6           0        0.573633   -2.359602    5.076137
     15          6           0        0.209382   -3.123128    6.185851
     16          6           0        1.553620   -1.376707    5.223432
     17          1           0        1.886034   -0.758741    4.384340
     18          7           0       -0.843492   -4.079510    5.751426
     19          1           0       -1.715844   -3.948602    6.279413
     20          6           0        1.727531   -1.997564    7.588842
     21          1           0        2.187856   -1.841926    8.559405
     22          6           0        0.743060   -2.987231    7.450824
     23          1           0        0.430669   -3.599876    8.291304
     24          6           0        2.118505   -1.216407    6.495212
     25          1           0        2.884725   -0.459386    6.631740
     26          7           0       -1.184096   -0.264372    0.341000
     27          1           0       -0.898802    0.149177    1.231695
     28          6           0       -0.946409    0.638310   -0.805589
     29          1           0       -1.307027    1.615551   -0.464629
     30          6           0        0.582057    0.709493   -0.934635
     31          6           0       -1.672574    0.286495   -2.112854
     32          1           0       -1.204476   -0.618728   -2.506426
     33          8           0        1.229444   -0.034623   -1.698105
     34          6           0       -1.471657    1.413300   -3.155786
     35          1           0       -0.397007    1.571969   -3.317889
     36          1           0       -1.867912    1.044949   -4.111162
     37          6           0       -3.158283   -0.009513   -1.867432
     38          1           0       -3.648034    0.788411   -1.297494
     39          1           0       -3.685538   -0.110078   -2.822886
     40          1           0       -3.280887   -0.946103   -1.319340
     41          6           0       -2.131569    2.762174   -2.837415
     42          1           0       -1.955495    3.475474   -3.650121
     43          1           0       -1.734542    3.214801   -1.920898
     44          1           0       -3.215064    2.663798   -2.716847
     45          7           0        1.191577    1.548197   -0.062761
     46          1           0        0.544653    1.960319    0.610219
     47          6           0        2.377387    1.105837    0.695977
     48          1           0        2.750510    0.185407    0.235562
     49          6           0        1.867130    0.684012    2.129686
     50          6           0        3.505013    2.143478    0.775371
     51          1           0        3.068253    3.145339    0.883572
     52          1           0        4.046492    1.927744    1.701911
     53          8           0        2.737453    0.170718    2.855606
     54          6           0        4.545112    2.142997   -0.359130
     55          1           0        4.984881    1.141931   -0.461792
     56          1           0        5.365285    2.805428   -0.057019
     57          6           0        4.100049    2.626306   -1.746760
     58          1           0        3.517736    3.553840   -1.662818
     59          1           0        5.002717    2.840831   -2.332512
     60          7           0        3.315609    1.612273   -2.461109
     61          1           0        2.779689    0.919961   -1.922550
     62          7           0        3.614901    2.486771   -4.607132
     63          1           0        3.256251    2.620556   -5.540413
     64          1           0        4.295005    3.153934   -4.278610
     65          7           0        2.086203    0.781013   -4.224319
     66          1           0        1.571216    0.203452   -3.556382
     67          1           0        1.988264    0.604854   -5.212567
     68          6           0        3.009616    1.634894   -3.754074
     69          8           0        0.635695    0.870913    2.371813
     70          1           0       -0.553167   -5.054947    5.896712
 ---------------------------------------------------------------------

 SCF Done:  E(RB3LYP) =  -1582.19016684     A.U. after    1 cycles

 Alpha  occ. eigenvalues --  -19.22017 -19.18842 -19.15131 -19.14348 -14.59192
 Alpha  occ. eigenvalues --  -14.49812 -14.48030 -14.47820 -14.43436 -14.42962
 Alpha  occ. eigenvalues --  -14.39653 -10.45192 -10.37741 -10.35626 -10.35073
 Alpha  occ. eigenvalues --  -10.33799 -10.33467 -10.32802 -10.32463 -10.31111
 Alpha  occ. eigenvalues --  -10.31074 -10.30749 -10.30554 -10.29532 -10.29024
 Alpha  occ. eigenvalues --  -10.28586 -10.27951 -10.27814 -10.27790 -10.25962
 Alpha  occ. eigenvalues --  -10.25703 -10.25403 -10.24366 -10.23429  -1.14445
 Alpha  occ. eigenvalues --   -1.13951  -1.12840  -1.10554  -1.08080  -1.02931
 Alpha  occ. eigenvalues --   -1.01909  -1.01106  -0.99213  -0.98794  -0.97296
 Alpha  occ. eigenvalues --   -0.96432  -0.92366  -0.88591  -0.88060  -0.85320
 Alpha  occ. eigenvalues --   -0.84495  -0.83220  -0.82532  -0.80399  -0.78189
 Alpha  occ. eigenvalues --   -0.76506  -0.74658  -0.73904  -0.72995  -0.71585
 Alpha  occ. eigenvalues --   -0.71059  -0.70930  -0.70391  -0.68924  -0.67084
 Alpha  occ. eigenvalues --   -0.66614  -0.66025  -0.65155  -0.64987  -0.62779
 Alpha  occ. eigenvalues --   -0.61969  -0.61583  -0.60612  -0.59492  -0.59048
 Alpha  occ. eigenvalues --   -0.58428  -0.57910  -0.57813  -0.57617  -0.56665
 Alpha  occ. eigenvalues --   -0.55239  -0.54527  -0.54214  -0.53337  -0.53124
 Alpha  occ. eigenvalues --   -0.52875  -0.52378  -0.51750  -0.51632  -0.50945
 Alpha  occ. eigenvalues --   -0.50037  -0.49683  -0.49203  -0.48602  -0.48013
 Alpha  occ. eigenvalues --   -0.47744  -0.47648  -0.47110  -0.46306  -0.46195
 Alpha  occ. eigenvalues --   -0.45782  -0.45132  -0.45003  -0.44636  -0.44444
 Alpha  occ. eigenvalues --   -0.43472  -0.43242  -0.42687  -0.42285  -0.41984
 Alpha  occ. eigenvalues --   -0.40603  -0.40570  -0.40008  -0.39671  -0.39207
 Alpha  occ. eigenvalues --   -0.38940  -0.37533  -0.36958  -0.35786  -0.35504
 Alpha  occ. eigenvalues --   -0.33917  -0.33647  -0.32289  -0.31493  -0.30314
 Alpha  occ. eigenvalues --   -0.29634  -0.28144
 Alpha virt. eigenvalues --   -0.14111  -0.11227  -0.09299  -0.08650  -0.08417
 Alpha virt. eigenvalues --   -0.06051  -0.05530  -0.04861  -0.02191  -0.02000
 Alpha virt. eigenvalues --   -0.01140  -0.00727   0.00070   0.00607   0.01411

 Mulliken charges:
               1
     1  N   -0.714159
     2  H    0.318330
     3  H    0.316787
     4  C   -0.087934
     5  H    0.160654
     6  C    0.586991
     7  C   -0.397796
     8  H    0.185409
     9  H    0.241109
    10  O   -0.512917
    11  C    0.176941
    12  C   -0.110831
    13  H    0.234797
    14  C    0.112272
    15  C    0.158031
    16  C   -0.191617
    17  H    0.265685
    18  N   -0.731739
    19  H    0.417276
    20  C   -0.139012
    21  H    0.169284
    22  C   -0.161815
    23  H    0.163116
    24  C   -0.142319
    25  H    0.174001
    26  N   -0.630383
    27  H    0.373649
    28  C   -0.042534
    29  H    0.157441
    30  C    0.612947
    31  C   -0.079547
    32  H    0.174811
    33  O   -0.584361
    34  C   -0.282115
    35  H    0.117573
    36  H    0.142809
    37  C   -0.461995
    38  H    0.143324
    39  H    0.149459
    40  H    0.162636
    41  C   -0.454912
    42  H    0.148965
    43  H    0.141404
    44  H    0.164396
    45  N   -0.564144
    46  H    0.343008
    47  C   -0.107002
    48  H    0.167476
    49  C    0.602684
    50  C   -0.262679
    51  H    0.142923
    52  H    0.192991
    53  O   -0.561084
    54  C   -0.308497
    55  H    0.165921
    56  H    0.166869
    57  C   -0.142702
    58  H    0.179935
    59  H    0.155950
    60  N   -0.627820
    61  H    0.413757
    62  N   -0.768337
    63  H    0.373709
    64  H    0.380828
    65  N   -0.790740
    66  H    0.426927
    67  H    0.363596
    68  C    0.813093
    69  O   -0.618619
    70  H    0.417849
 Sum of Mulliken charges =   1.00000

 Dipole moment (field-independent basis, Debye):
    X=              4.6989    Y=             -3.9431    Z=              3.9490  Tot=              7.2953
 Quadrupole moment (field-independent basis, Debye-Ang):
   XX=           -157.9851   YY=           -128.2877   ZZ=            -26.8748
   XY=             38.6498   XZ=            -49.9119   YZ=           -104.1395

 Normal termination of Gaussian 16 at Fri Jun  3 04:56:04 2022.
