 Gaussian 16, Revision C.01,
 Gaussian 16:  ES64L-G16RevC.01  3-Jul-2019

 ----------------------------------------------------------------------
 # B3LYP/6-31G* empiricaldispersion=gd3 guess=read geom=check nosymm in
 tegral(ultrafinegrid)
 ----------------------------------------------------------------------

 ------------------------------------------------------
 Candidate Structure: Conf:746 Charge calc in gas phase
 ------------------------------------------------------
 Structure from the checkpoint file:  "conf-746.chk"
 Charge =  1 Multiplicity = 1

                          Input orientation:
 ---------------------------------------------------------------------
 Center     Atomic      Atomic             Coordinates (Angstroms)
 Number     Number       Type             X           Y           Z
 ---------------------------------------------------------------------
      1          7           0       -1.528106   -1.221574    3.401745
      2          1           0       -1.647562   -1.004584    4.389417
      3          1           0       -2.101492   -0.564236    2.877550
      4          6           0       -0.114515   -1.109887    3.020494
      5          1           0        0.345478   -0.133910    3.267103
      6          6           0       -0.041890   -1.300556    1.489313
      7          6           0        0.681401   -2.223870    3.724278
      8          1           0        0.432862   -2.195905    4.792038
      9          1           0        0.312305   -3.176751    3.335878
     10          8           0        0.246677   -2.369146    0.975307
     11          6           0        2.175809   -2.134546    3.562095
     12          6           0        2.902393   -2.355991    2.426219
     13          1           0        2.558554   -2.606062    1.432785
     14          6           0        3.130481   -1.805929    4.601131
     15          6           0        4.429383   -1.856128    4.027951
     16          6           0        3.007137   -1.472370    5.961726
     17          1           0        2.028847   -1.418555    6.430593
     18          7           0        4.269549   -2.112218    2.662614
     19          1           0        4.976569   -2.610224    2.131550
     20          6           0        5.442162   -1.335942    6.125589
     21          1           0        6.326400   -1.219262    6.747954
     22          6           0        5.589675   -1.635457    4.768148
     23          1           0        6.573721   -1.712184    4.313571
     24          6           0        4.160929   -1.239653    6.711680
     25          1           0        4.075509   -1.011769    7.770188
     26          7           0       -0.408939   -0.182290    0.774132
     27          1           0       -0.410299    0.678055    1.308206
     28          6           0       -0.152428    0.002380   -0.673013
     29          1           0       -0.692149    0.917711   -0.951213
     30          6           0        1.363731    0.242695   -0.737599
     31          6           0       -0.646580   -1.139896   -1.582557
     32          1           0        0.050927   -1.972951   -1.460748
     33          8           0        2.186896   -0.662744   -0.703861
     34          6           0       -0.653376   -0.698818   -3.063113
     35          1           0       -1.037149   -1.546056   -3.644480
     36          1           0       -1.388742    0.109974   -3.192791
     37          6           0       -2.050929   -1.601835   -1.169056
     38          1           0       -2.765363   -0.768369   -1.182975
     39          1           0       -2.413703   -2.359711   -1.871294
     40          1           0       -2.053268   -2.045706   -0.171534
     41          6           0        0.694271   -0.269526   -3.658235
     42          1           0        0.609059   -0.144794   -4.743026
     43          1           0        1.471090   -1.015629   -3.460075
     44          1           0        1.043403    0.687986   -3.253785
     45          7           0        1.773255    1.555124   -0.642961
     46          1           0        1.079378    2.274273   -0.488001
     47          6           0        3.121299    1.791212   -0.148176
     48          1           0        3.849569    1.453750   -0.889802
     49          6           0        3.317933    0.932952    1.104694
     50          6           0        3.343099    3.288434    0.165493
     51          1           0        3.478370    3.812271   -0.785053
     52          1           0        2.433185    3.699897    0.623326
     53          8           0        2.493808    0.912340    2.016002
     54          6           0        4.544909    3.547310    1.105332
     55          1           0        5.044966    4.477127    0.816934
     56          1           0        5.285290    2.747993    0.990717
     57          6           0        4.115291    3.642667    2.591717
     58          1           0        3.914007    4.685247    2.861636
     59          1           0        3.191956    3.092894    2.765250
     60          7           0        5.129076    3.117891    3.516339
     61          1           0        6.051204    3.530789    3.459031
     62          7           0        3.880419    1.361020    4.435826
     63          1           0        3.780657    0.680028    5.183039
     64          1           0        3.299351    1.193682    3.606993
     65          7           0        5.948508    1.889957    5.301827
     66          1           0        6.651224    2.580463    5.520779
     67          1           0        5.952374    1.011895    5.810200
     68          6           0        4.973725    2.120960    4.402703
     69          8           0        4.484304    0.303866    1.147408
     70          1           0        4.459779   -0.392168    1.856408
 ---------------------------------------------------------------------

 SCF Done:  E(RB3LYP) =  -1582.24193001     A.U. after    2 cycles

 Alpha  occ. eigenvalues --  -19.30702 -19.26356 -19.21431 -19.19801 -14.52400
 Alpha  occ. eigenvalues --  -14.51392 -14.49696 -14.48848 -14.46546 -14.45049
 Alpha  occ. eigenvalues --  -14.39818 -10.47904 -10.44194 -10.38232 -10.36781
 Alpha  occ. eigenvalues --  -10.36393 -10.35033 -10.33241 -10.32285 -10.31981
 Alpha  occ. eigenvalues --  -10.31884 -10.31211 -10.30738 -10.30737 -10.30184
 Alpha  occ. eigenvalues --  -10.29930 -10.29864 -10.29775 -10.28367 -10.27084
 Alpha  occ. eigenvalues --  -10.25631 -10.24547 -10.23521 -10.23073  -1.22423
 Alpha  occ. eigenvalues --   -1.16263  -1.14031  -1.13206  -1.11667  -1.08192
 Alpha  occ. eigenvalues --   -1.06053  -1.03714  -1.03043  -1.01131  -0.96936
 Alpha  occ. eigenvalues --   -0.95329  -0.92785  -0.90008  -0.88308  -0.86945
 Alpha  occ. eigenvalues --   -0.84894  -0.83951  -0.81928  -0.81034  -0.79922
 Alpha  occ. eigenvalues --   -0.78241  -0.78009  -0.75564  -0.73758  -0.73199
 Alpha  occ. eigenvalues --   -0.72449  -0.70631  -0.70315  -0.69797  -0.69168
 Alpha  occ. eigenvalues --   -0.68203  -0.67119  -0.65751  -0.65502  -0.64360
 Alpha  occ. eigenvalues --   -0.64153  -0.63443  -0.62820  -0.61749  -0.60627
 Alpha  occ. eigenvalues --   -0.60286  -0.59623  -0.58941  -0.58817  -0.57961
 Alpha  occ. eigenvalues --   -0.57627  -0.57419  -0.56510  -0.55965  -0.55274
 Alpha  occ. eigenvalues --   -0.54692  -0.54225  -0.53881  -0.53347  -0.52539
 Alpha  occ. eigenvalues --   -0.51969  -0.51448  -0.50556  -0.50095  -0.49934
 Alpha  occ. eigenvalues --   -0.49488  -0.49334  -0.48659  -0.48280  -0.47714
 Alpha  occ. eigenvalues --   -0.47636  -0.47021  -0.46855  -0.46559  -0.46181
 Alpha  occ. eigenvalues --   -0.45821  -0.45080  -0.44658  -0.44422  -0.43479
 Alpha  occ. eigenvalues --   -0.42937  -0.42824  -0.42393  -0.41403  -0.40601
 Alpha  occ. eigenvalues --   -0.40179  -0.39586  -0.39144  -0.38611  -0.38471
 Alpha  occ. eigenvalues --   -0.37093  -0.36178  -0.34155  -0.34008  -0.32294
 Alpha  occ. eigenvalues --   -0.31427  -0.31191
 Alpha virt. eigenvalues --   -0.12855  -0.12199  -0.11820  -0.10094  -0.08496
 Alpha virt. eigenvalues --   -0.07384  -0.05756  -0.04819  -0.04042  -0.02962
 Alpha virt. eigenvalues --   -0.02163  -0.01704  -0.01369  -0.00736  -0.00175

 Mulliken charges:
               1
     1  N   -0.711437
     2  H    0.307129
     3  H    0.307752
     4  C   -0.068160
     5  H    0.115622
     6  C    0.652892
     7  C   -0.339417
     8  H    0.138941
     9  H    0.206769
    10  O   -0.502747
    11  C    0.103518
    12  C   -0.033538
    13  H    0.233506
    14  C    0.084565
    15  C    0.268846
    16  C   -0.241465
    17  H    0.157000
    18  N   -0.732103
    19  H    0.362474
    20  C   -0.214970
    21  H    0.155931
    22  C   -0.172283
    23  H    0.153674
    24  C   -0.155550
    25  H    0.158254
    26  N   -0.613848
    27  H    0.322141
    28  C   -0.048269
    29  H    0.139321
    30  C    0.648789
    31  C   -0.089522
    32  H    0.185667
    33  O   -0.516818
    34  C   -0.260556
    35  H    0.153641
    36  H    0.127924
    37  C   -0.459507
    38  H    0.131571
    39  H    0.157179
    40  H    0.174049
    41  C   -0.466637
    42  H    0.156972
    43  H    0.166674
    44  H    0.131928
    45  N   -0.611571
    46  H    0.330154
    47  C    0.012411
    48  H    0.204757
    49  C    0.614780
    50  C   -0.316264
    51  H    0.194135
    52  H    0.152855
    53  O   -0.534196
    54  C   -0.309813
    55  H    0.177430
    56  H    0.184980
    57  C   -0.168891
    58  H    0.195137
    59  H    0.194940
    60  N   -0.607601
    61  H    0.356989
    62  N   -0.802189
    63  H    0.383063
    64  H    0.423378
    65  N   -0.776439
    66  H    0.371011
    67  H    0.380933
    68  C    0.799806
    69  O   -0.581295
    70  H    0.455594
 Sum of Mulliken charges =   1.00000

 Dipole moment (field-independent basis, Debye):
    X=             20.6680    Y=             11.3654    Z=             16.6507  Tot=             28.8719
 Quadrupole moment (field-independent basis, Debye-Ang):
   XX=            -72.1265   YY=           -165.1979   ZZ=           -107.6445
   XY=             37.6411   XZ=             88.4561   YZ=             24.5913

 Normal termination of Gaussian 16 at Fri Jun  3 05:01:19 2022.
