 Gaussian 16, Revision C.01,
 Gaussian 16:  ES64L-G16RevC.01  3-Jul-2019

 ----------------------------------------------------------------------
 # B3LYP/6-31G* empiricaldispersion=gd3 guess=read geom=check nosymm in
 tegral(ultrafinegrid)
 ----------------------------------------------------------------------

 ------------------------------------------------------
 Candidate Structure: Conf:684 Charge calc in gas phase
 ------------------------------------------------------
 Structure from the checkpoint file:  "conf-684.chk"
 Charge =  1 Multiplicity = 1

                          Input orientation:
 ---------------------------------------------------------------------
 Center     Atomic      Atomic             Coordinates (Angstroms)
 Number     Number       Type             X           Y           Z
 ---------------------------------------------------------------------
      1          7           0       -1.398479   -4.286938    1.960249
      2          1           0       -2.401292   -4.415382    1.844064
      3          1           0       -0.998297   -4.559070    1.061297
      4          6           0       -1.110553   -2.871157    2.136387
      5          1           0       -1.762236   -2.466823    2.921493
      6          6           0       -1.315431   -2.075196    0.820181
      7          6           0        0.380146   -2.738853    2.569282
      8          1           0        0.963672   -3.331013    1.857132
      9          1           0        0.746340   -1.708468    2.499363
     10          8           0       -1.255379   -2.674228   -0.245300
     11          6           0        0.548964   -3.259422    3.966416
     12          6           0        0.627915   -4.552651    4.302144
     13          1           0        0.596563   -5.447824    3.704522
     14          6           0        0.578436   -2.459957    5.189300
     15          6           0        0.649057   -3.319156    6.284651
     16          6           0        0.573835   -1.085814    5.400748
     17          1           0        0.594096   -0.368750    4.583532
     18          7           0        0.682943   -4.705978    5.776199
     19          1           0       -0.109752   -5.260418    6.119853
     20          6           0        0.660932   -1.518246    7.801634
     21          1           0        0.694397   -1.132773    8.815162
     22          6           0        0.682990   -2.906650    7.599380
     23          1           0        0.733170   -3.601692    8.431384
     24          6           0        0.616849   -0.634194    6.721649
     25          1           0        0.629791    0.435311    6.901594
     26          7           0       -1.507984   -0.726574    0.893228
     27          1           0       -1.548143   -0.297548    1.806423
     28          6           0       -1.149634    0.184853   -0.227506
     29          1           0       -1.496978    1.167952    0.108897
     30          6           0        0.398378    0.221557   -0.231615
     31          6           0       -1.776806   -0.134416   -1.583951
     32          1           0       -1.316364   -1.053693   -1.954544
     33          8           0        1.087091   -0.533242   -0.908899
     34          6           0       -1.475475    1.026888   -2.573247
     35          1           0       -2.367991    1.198127   -3.187643
     36          1           0       -1.323190    1.958026   -2.008299
     37          6           0       -3.284259   -0.369289   -1.440662
     38          1           0       -3.793827    0.529750   -1.071907
     39          1           0       -3.719313   -0.626351   -2.411632
     40          1           0       -3.490649   -1.190432   -0.751206
     41          6           0       -0.275034    0.789646   -3.497152
     42          1           0       -0.088991    1.666009   -4.127217
     43          1           0       -0.460747   -0.062811   -4.159339
     44          1           0        0.632095    0.569237   -2.928953
     45          7           0        0.924539    1.065112    0.694852
     46          1           0        0.354571    1.375142    1.482931
     47          6           0        2.281245    0.894923    1.175861
     48          1           0        2.656109   -0.097311    0.896040
     49          6           0        2.226662    0.958829    2.741793
     50          6           0        3.224594    1.959106    0.617896
     51          1           0        2.823725    2.956850    0.836741
     52          1           0        4.164311    1.857505    1.180229
     53          8           0        3.280201    0.757842    3.335284
     54          6           0        3.427152    1.795962   -0.891779
     55          1           0        2.458491    1.836476   -1.400781
     56          1           0        3.841158    0.805515   -1.111124
     57          6           0        4.330038    2.866070   -1.499090
     58          1           0        4.365756    2.757557   -2.588812
     59          1           0        3.951798    3.869761   -1.264819
     60          7           0        5.702921    2.717490   -0.966295
     61          1           0        5.728731    2.334675   -0.027391
     62          7           0        6.581637    4.459869   -2.241971
     63          1           0        7.401086    4.880506   -2.655375
     64          1           0        5.760331    4.449367   -2.827963
     65          7           0        7.871750    3.450222   -0.581977
     66          1           0        8.071838    2.589337   -0.089009
     67          1           0        8.691812    3.923295   -0.934245
     68          6           0        6.715372    3.529401   -1.279382
     69          8           0        1.073257    1.198186    3.208024
     70          1           0        1.530534   -5.202670    6.074005
 ---------------------------------------------------------------------

 SCF Done:  E(RB3LYP) =  -1582.13297476     A.U. after    1 cycles

 Alpha  occ. eigenvalues --  -19.17493 -19.15540 -19.10936 -19.09894 -14.59535
 Alpha  occ. eigenvalues --  -14.53132 -14.52664 -14.51899 -14.42151 -14.38860
 Alpha  occ. eigenvalues --  -14.38306 -10.48932 -10.35026 -10.34575 -10.34489
 Alpha  occ. eigenvalues --  -10.34091 -10.32324 -10.32250 -10.31057 -10.30700
 Alpha  occ. eigenvalues --  -10.30557 -10.29391 -10.28473 -10.28408 -10.28345
 Alpha  occ. eigenvalues --  -10.28229 -10.27915 -10.27059 -10.25019 -10.24958
 Alpha  occ. eigenvalues --  -10.22627 -10.22232 -10.21054 -10.20854  -1.17385
 Alpha  occ. eigenvalues --   -1.15263  -1.09716  -1.07506  -1.06329  -1.05991
 Alpha  occ. eigenvalues --   -1.04386  -0.98139  -0.97335  -0.96510  -0.96373
 Alpha  occ. eigenvalues --   -0.94502  -0.92647  -0.89174  -0.85576  -0.85379
 Alpha  occ. eigenvalues --   -0.84421  -0.82526  -0.82238  -0.79324  -0.78077
 Alpha  occ. eigenvalues --   -0.75810  -0.74830  -0.74008  -0.73347  -0.72456
 Alpha  occ. eigenvalues --   -0.72001  -0.71160  -0.70341  -0.67522  -0.66805
 Alpha  occ. eigenvalues --   -0.66056  -0.65572  -0.65188  -0.65127  -0.64365
 Alpha  occ. eigenvalues --   -0.62003  -0.60764  -0.60176  -0.59923  -0.59345
 Alpha  occ. eigenvalues --   -0.58508  -0.58089  -0.57609  -0.56624  -0.55111
 Alpha  occ. eigenvalues --   -0.54977  -0.53734  -0.53219  -0.53068  -0.52455
 Alpha  occ. eigenvalues --   -0.51816  -0.51070  -0.49929  -0.49613  -0.48837
 Alpha  occ. eigenvalues --   -0.48204  -0.47524  -0.47358  -0.46744  -0.46498
 Alpha  occ. eigenvalues --   -0.46343  -0.45757  -0.45528  -0.44957  -0.44533
 Alpha  occ. eigenvalues --   -0.44295  -0.44026  -0.43952  -0.43604  -0.42386
 Alpha  occ. eigenvalues --   -0.42084  -0.41645  -0.41310  -0.40820  -0.40431
 Alpha  occ. eigenvalues --   -0.40073  -0.39983  -0.39235  -0.37882  -0.36703
 Alpha  occ. eigenvalues --   -0.36443  -0.36031  -0.35820  -0.33874  -0.33189
 Alpha  occ. eigenvalues --   -0.32380  -0.30539  -0.30063  -0.28247  -0.26364
 Alpha  occ. eigenvalues --   -0.25748  -0.23981
 Alpha virt. eigenvalues --   -0.14350  -0.13574  -0.11240  -0.08733  -0.08518
 Alpha virt. eigenvalues --   -0.06378  -0.04805  -0.04365  -0.03891  -0.03091
 Alpha virt. eigenvalues --   -0.02063  -0.01793  -0.00582   0.00418   0.00511

 Mulliken charges:
               1
     1  N   -0.714285
     2  H    0.314874
     3  H    0.325167
     4  C   -0.097793
     5  H    0.149109
     6  C    0.609301
     7  C   -0.368773
     8  H    0.186622
     9  H    0.210766
    10  O   -0.499906
    11  C    0.189306
    12  C   -0.094230
    13  H    0.213090
    14  C    0.128110
    15  C    0.157625
    16  C   -0.192333
    17  H    0.251442
    18  N   -0.726242
    19  H    0.420724
    20  C   -0.138523
    21  H    0.169895
    22  C   -0.161335
    23  H    0.162861
    24  C   -0.135543
    25  H    0.184098
    26  N   -0.619105
    27  H    0.333423
    28  C   -0.057549
    29  H    0.144494
    30  C    0.612464
    31  C   -0.062452
    32  H    0.189142
    33  O   -0.539936
    34  C   -0.275131
    35  H    0.141463
    36  H    0.122435
    37  C   -0.459221
    38  H    0.130928
    39  H    0.148166
    40  H    0.152751
    41  C   -0.461038
    42  H    0.123010
    43  H    0.149070
    44  H    0.173124
    45  N   -0.600956
    46  H    0.339367
    47  C   -0.067892
    48  H    0.151811
    49  C    0.574421
    50  C   -0.280037
    51  H    0.145078
    52  H    0.139314
    53  O   -0.575638
    54  C   -0.301469
    55  H    0.195763
    56  H    0.172339
    57  C   -0.170478
    58  H    0.175141
    59  H    0.185153
    60  N   -0.584910
    61  H    0.375726
    62  N   -0.735488
    63  H    0.379302
    64  H    0.394987
    65  N   -0.737647
    66  H    0.387057
    67  H    0.376194
    68  C    0.786671
    69  O   -0.633478
    70  H    0.419606
 Sum of Mulliken charges =   1.00000

 Dipole moment (field-independent basis, Debye):
    X=             21.8119    Y=             -0.8009    Z=              9.0190  Tot=             23.6165
 Quadrupole moment (field-independent basis, Debye-Ang):
   XX=            -13.3236   YY=            -76.3970   ZZ=            -77.9579
   XY=             83.9021   XZ=            -49.3961   YZ=           -125.7791

 Normal termination of Gaussian 16 at Fri Jun  3 04:56:06 2022.
