 Gaussian 16, Revision C.01,
 Gaussian 16:  ES64L-G16RevC.01  3-Jul-2019

 ----------------------------------------------------------------------
 # B3LYP/6-31G* empiricaldispersion=gd3 guess=read geom=check nosymm in
 tegral(ultrafinegrid)
 ----------------------------------------------------------------------

 ------------------------------------------------------
 Candidate Structure: Conf:962 Charge calc in gas phase
 ------------------------------------------------------
 Structure from the checkpoint file:  "conf-962.chk"
 Charge =  1 Multiplicity = 1

                          Input orientation:
 ---------------------------------------------------------------------
 Center     Atomic      Atomic             Coordinates (Angstroms)
 Number     Number       Type             X           Y           Z
 ---------------------------------------------------------------------
      1          7           0       -1.123509   -3.142485    1.118885
      2          1           0       -1.516600   -3.939090    1.616442
      3          1           0       -1.897863   -2.509360    0.932447
      4          6           0       -0.087201   -2.497931    1.949058
      5          1           0       -0.503410   -1.780316    2.675780
      6          6           0        0.819322   -1.724804    0.976452
      7          6           0        0.708902   -3.569488    2.709093
      8          1           0       -0.017592   -4.192580    3.251015
      9          1           0        1.204321   -4.210248    1.973849
     10          8           0        1.923770   -2.117135    0.621547
     11          6           0        1.707023   -3.004241    3.671591
     12          6           0        3.071658   -3.124043    3.617525
     13          1           0        3.681732   -3.624386    2.879014
     14          6           0        1.413504   -2.194336    4.830562
     15          6           0        2.662078   -1.849370    5.424520
     16          6           0        0.231451   -1.713476    5.422292
     17          1           0       -0.739679   -1.989046    5.019639
     18          7           0        3.652493   -2.480068    4.694743
     19          1           0        4.626831   -2.214697    4.720074
     20          6           0        1.567152   -0.529537    7.085331
     21          1           0        1.602711    0.122251    7.953140
     22          6           0        2.755199   -1.010543    6.543898
     23          1           0        3.718467   -0.757793    6.978206
     24          6           0        0.318270   -0.887783    6.536811
     25          1           0       -0.590155   -0.510631    6.997530
     26          7           0        0.300847   -0.548000    0.480044
     27          1           0       -0.668668   -0.339149    0.678999
     28          6           0        0.859959    0.054186   -0.736235
     29          1           0        0.482725    1.086529   -0.739545
     30          6           0        2.391129    0.168395   -0.570469
     31          6           0        0.455790   -0.614942   -2.085326
     32          1           0        1.277640   -1.274832   -2.381190
     33          8           0        3.180851   -0.153152   -1.465034
     34          6           0        0.249714    0.451879   -3.185557
     35          1           0       -0.040281   -0.070269   -4.105809
     36          1           0       -0.616785    1.071196   -2.908131
     37          6           0       -0.820276   -1.459579   -1.958683
     38          1           0       -1.674351   -0.849909   -1.631043
     39          1           0       -1.082594   -1.878148   -2.936075
     40          1           0       -0.703487   -2.292296   -1.260629
     41          6           0        1.437187    1.368033   -3.501993
     42          1           0        1.184577    2.046768   -4.324168
     43          1           0        2.316833    0.786243   -3.791991
     44          1           0        1.720419    1.990946   -2.644345
     45          7           0        2.795377    0.766528    0.579276
     46          1           0        2.077305    0.865476    1.290054
     47          6           0        4.140817    0.551298    1.111239
     48          1           0        4.594001   -0.266120    0.541443
     49          6           0        4.093442    0.056252    2.560319
     50          6           0        5.072505    1.784480    1.039881
     51          1           0        4.528949    2.668829    1.396391
     52          1           0        5.892809    1.606303    1.742304
     53          8           0        5.062747   -0.425236    3.103598
     54          6           0        5.694258    2.038727   -0.342196
     55          1           0        6.087751    1.093770   -0.737174
     56          1           0        6.555461    2.708438   -0.224973
     57          6           0        4.743070    2.661005   -1.373015
     58          1           0        3.830741    2.080247   -1.491035
     59          1           0        4.443139    3.668108   -1.071554
     60          7           0        5.373842    2.791578   -2.699991
     61          1           0        5.946299    3.612624   -2.847199
     62          7           0        5.057516    0.567692   -3.318769
     63          1           0        5.087380   -0.138882   -4.040302
     64          1           0        4.461053    0.348575   -2.504932
     65          7           0        6.275452    1.995500   -4.680166
     66          1           0        6.532775    2.929314   -4.964336
     67          1           0        6.417708    1.261677   -5.358629
     68          6           0        5.556760    1.776745   -3.557804
     69          8           0        2.904375    0.261244    3.144855
     70          1           0        2.905054   -0.146758    4.045943
 ---------------------------------------------------------------------

 SCF Done:  E(RB3LYP) =  -1582.24861056     A.U. after    1 cycles

 Alpha  occ. eigenvalues --  -19.28870 -19.23313 -19.23072 -19.20660 -14.52330
 Alpha  occ. eigenvalues --  -14.52183 -14.50606 -14.46012 -14.45480 -14.44194
 Alpha  occ. eigenvalues --  -14.40213 -10.48341 -10.41594 -10.40046 -10.37248
 Alpha  occ. eigenvalues --  -10.35371 -10.33866 -10.33238 -10.30619 -10.30569
 Alpha  occ. eigenvalues --  -10.29815 -10.28740 -10.28281 -10.27419 -10.26684
 Alpha  occ. eigenvalues --  -10.26462 -10.26194 -10.25899 -10.25425 -10.25339
 Alpha  occ. eigenvalues --  -10.25140 -10.24836 -10.24828 -10.24799  -1.19723
 Alpha  occ. eigenvalues --   -1.16731  -1.14912  -1.12460  -1.10901  -1.06152
 Alpha  occ. eigenvalues --   -1.04573  -1.04475  -1.03351  -1.01355  -0.97109
 Alpha  occ. eigenvalues --   -0.91647  -0.90570  -0.89318  -0.86910  -0.86745
 Alpha  occ. eigenvalues --   -0.83004  -0.81456  -0.81127  -0.80087  -0.79504
 Alpha  occ. eigenvalues --   -0.77978  -0.77545  -0.74306  -0.73101  -0.72935
 Alpha  occ. eigenvalues --   -0.71324  -0.70753  -0.69641  -0.68881  -0.68707
 Alpha  occ. eigenvalues --   -0.67490  -0.65788  -0.65516  -0.64904  -0.64188
 Alpha  occ. eigenvalues --   -0.63187  -0.62297  -0.60932  -0.60233  -0.59661
 Alpha  occ. eigenvalues --   -0.59313  -0.58255  -0.57956  -0.57078  -0.56843
 Alpha  occ. eigenvalues --   -0.56280  -0.55932  -0.55341  -0.54702  -0.54158
 Alpha  occ. eigenvalues --   -0.53608  -0.53366  -0.52799  -0.51530  -0.51371
 Alpha  occ. eigenvalues --   -0.50968  -0.50354  -0.50213  -0.49964  -0.49538
 Alpha  occ. eigenvalues --   -0.49256  -0.49034  -0.48439  -0.48060  -0.47255
 Alpha  occ. eigenvalues --   -0.46974  -0.46232  -0.45840  -0.45375  -0.45040
 Alpha  occ. eigenvalues --   -0.44804  -0.44488  -0.43635  -0.43528  -0.42517
 Alpha  occ. eigenvalues --   -0.42135  -0.41609  -0.41188  -0.41059  -0.40407
 Alpha  occ. eigenvalues --   -0.40294  -0.40176  -0.39562  -0.38616  -0.37360
 Alpha  occ. eigenvalues --   -0.35593  -0.35237  -0.34625  -0.34077  -0.31389
 Alpha  occ. eigenvalues --   -0.29219  -0.26949
 Alpha virt. eigenvalues --   -0.11903  -0.09364  -0.08891  -0.08647  -0.07765
 Alpha virt. eigenvalues --   -0.06777  -0.04864  -0.04803  -0.03885  -0.02945
 Alpha virt. eigenvalues --   -0.01483  -0.00680  -0.00537  -0.00043   0.01590

 Mulliken charges:
               1
     1  N   -0.721292
     2  H    0.322783
     3  H    0.301951
     4  C   -0.092253
     5  H    0.139438
     6  C    0.671749
     7  C   -0.355386
     8  H    0.149459
     9  H    0.180499
    10  O   -0.516938
    11  C    0.079462
    12  C   -0.011947
    13  H    0.168302
    14  C    0.098620
    15  C    0.194145
    16  C   -0.210766
    17  H    0.127222
    18  N   -0.640750
    19  H    0.349560
    20  C   -0.146922
    21  H    0.142218
    22  C   -0.181410
    23  H    0.144365
    24  C   -0.140407
    25  H    0.136750
    26  N   -0.634970
    27  H    0.333131
    28  C   -0.053835
    29  H    0.165032
    30  C    0.654026
    31  C   -0.074380
    32  H    0.166062
    33  O   -0.577282
    34  C   -0.261975
    35  H    0.150765
    36  H    0.135678
    37  C   -0.490584
    38  H    0.122410
    39  H    0.159409
    40  H    0.200963
    41  C   -0.455402
    42  H    0.153723
    43  H    0.134602
    44  H    0.129531
    45  N   -0.593250
    46  H    0.371914
    47  C   -0.051671
    48  H    0.204795
    49  C    0.615929
    50  C   -0.279955
    51  H    0.158358
    52  H    0.192015
    53  O   -0.476978
    54  C   -0.275629
    55  H    0.161860
    56  H    0.158246
    57  C   -0.190947
    58  H    0.206664
    59  H    0.185882
    60  N   -0.595007
    61  H    0.358269
    62  N   -0.789294
    63  H    0.369328
    64  H    0.456383
    65  N   -0.769772
    66  H    0.379340
    67  H    0.380742
    68  C    0.823659
    69  O   -0.594647
    70  H    0.448413
 Sum of Mulliken charges =   1.00000

 Dipole moment (field-independent basis, Debye):
    X=             18.5017    Y=              7.8281    Z=             -8.8179  Tot=             21.9396
 Quadrupole moment (field-independent basis, Debye-Ang):
   XX=            -70.1290   YY=           -171.1534   ZZ=           -120.8205
   XY=             52.0842   XZ=            -71.9872   YZ=            -25.8483

 Normal termination of Gaussian 16 at Fri Jun  3 05:11:01 2022.
