 Gaussian 16, Revision C.01,
 Gaussian 16:  ES64L-G16RevC.01  3-Jul-2019

 ----------------------------------------------------------------------
 # B3LYP/6-31G* empiricaldispersion=gd3 guess=read geom=check nosymm in
 tegral(ultrafinegrid)
 ----------------------------------------------------------------------

 ------------------------------------------------------
 Candidate Structure: Conf:472 Charge calc in gas phase
 ------------------------------------------------------
 Structure from the checkpoint file:  "conf-472.chk"
 Charge =  1 Multiplicity = 1

                          Input orientation:
 ---------------------------------------------------------------------
 Center     Atomic      Atomic             Coordinates (Angstroms)
 Number     Number       Type             X           Y           Z
 ---------------------------------------------------------------------
      1          7           0       -2.472280   -3.087981    3.731263
      2          1           0       -3.479599   -2.952957    3.796379
      3          1           0       -2.356069   -3.858034    3.070415
      4          6           0       -1.863589   -1.903713    3.135722
      5          1           0       -2.399619   -1.016761    3.495101
      6          6           0       -1.943297   -1.953691    1.579578
      7          6           0       -0.378835   -1.757158    3.612698
      8          1           0       -0.063035   -0.709913    3.536949
      9          1           0       -0.358334   -2.034598    4.670093
     10          8           0       -2.308752   -2.973345    1.014575
     11          6           0        0.549185   -2.596755    2.792532
     12          6           0        1.297434   -2.111776    1.790835
     13          1           0        1.503537   -1.100866    1.471312
     14          6           0        0.680063   -4.060288    2.796911
     15          6           0        1.515708   -4.421630    1.730722
     16          6           0        0.167470   -5.056407    3.628327
     17          1           0       -0.497421   -4.800729    4.446668
     18          7           0        1.853643   -3.207800    0.985110
     19          1           0        1.295012   -3.189137    0.090397
     20          6           0        1.357065   -6.714498    2.288593
     21          1           0        1.614866   -7.753348    2.108393
     22          6           0        1.867809   -5.724112    1.438508
     23          1           0        2.509593   -5.971441    0.598885
     24          6           0        0.519665   -6.383061    3.360964
     25          1           0        0.135114   -7.173954    3.997823
     26          7           0       -1.561784   -0.813477    0.922543
     27          1           0       -1.229901   -0.047022    1.491111
     28          6           0       -1.382262   -0.663614   -0.531144
     29          1           0       -1.263892    0.414794   -0.688060
     30          6           0       -0.095380   -1.375906   -0.991549
     31          6           0       -2.589104   -1.143084   -1.373670
     32          1           0       -2.679351   -2.217222   -1.197007
     33          8           0       -0.001414   -2.609860   -0.963127
     34          6           0       -2.327938   -0.948602   -2.885783
     35          1           0       -1.498650   -1.598286   -3.192962
     36          1           0       -3.211889   -1.322721   -3.416719
     37          6           0       -3.882584   -0.463406   -0.908191
     38          1           0       -3.818298    0.630545   -0.964306
     39          1           0       -4.722737   -0.781279   -1.534967
     40          1           0       -4.118117   -0.732703    0.124884
     41          6           0       -2.040537    0.486955   -3.348692
     42          1           0       -1.977047    0.527989   -4.442157
     43          1           0       -1.085856    0.854913   -2.951783
     44          1           0       -2.827959    1.183037   -3.039306
     45          7           0        0.898528   -0.570455   -1.455645
     46          1           0        0.913183    0.380060   -1.098682
     47          6           0        2.245334   -1.096987   -1.713461
     48          1           0        2.143229   -2.167440   -1.889793
     49          6           0        3.123991   -0.843217   -0.439939
     50          6           0        2.874095   -0.465918   -2.966660
     51          1           0        3.857720   -0.937094   -3.094557
     52          1           0        2.272524   -0.728309   -3.847575
     53          8           0        3.827369   -1.815604   -0.045456
     54          6           0        3.045923    1.058378   -2.884347
     55          1           0        3.492014    1.323007   -1.920582
     56          1           0        2.059123    1.545336   -2.909730
     57          6           0        3.919053    1.582243   -4.025998
     58          1           0        4.899747    1.099020   -4.008858
     59          1           0        3.489212    1.379914   -5.013642
     60          7           0        4.177336    3.035055   -3.933521
     61          1           0        4.930149    3.322374   -3.319667
     62          7           0        2.176270    3.707654   -4.911062
     63          1           0        1.690613    4.361893   -5.508058
     64          1           0        1.737132    2.814626   -4.740168
     65          7           0        3.801178    5.274409   -4.406483
     66          1           0        4.769388    5.511017   -4.240824
     67          1           0        3.146359    6.038352   -4.496850
     68          6           0        3.385394    3.994871   -4.405652
     69          8           0        2.990558    0.295883    0.065026
     70          1           0        2.851019   -2.972829    0.688676
 ---------------------------------------------------------------------

 SCF Done:  E(RB3LYP) =  -1582.18480135     A.U. after    1 cycles

 Alpha  occ. eigenvalues --  -19.20861 -19.19063 -19.15287 -19.15208 -14.54394
 Alpha  occ. eigenvalues --  -14.54251 -14.54233 -14.50729 -14.44844 -14.44415
 Alpha  occ. eigenvalues --  -14.38037 -10.50671 -10.37667 -10.36837 -10.36005
 Alpha  occ. eigenvalues --  -10.33459 -10.31968 -10.31566 -10.30772 -10.30374
 Alpha  occ. eigenvalues --  -10.30079 -10.29657 -10.29176 -10.28673 -10.28312
 Alpha  occ. eigenvalues --  -10.27998 -10.27675 -10.27107 -10.26933 -10.26795
 Alpha  occ. eigenvalues --  -10.25977 -10.25509 -10.25403 -10.24015  -1.19031
 Alpha  occ. eigenvalues --   -1.12729  -1.10938  -1.09023  -1.08157  -1.08106
 Alpha  occ. eigenvalues --   -1.07237  -1.01206  -1.00326  -0.99687  -0.95914
 Alpha  occ. eigenvalues --   -0.93453  -0.91751  -0.89719  -0.88551  -0.85698
 Alpha  occ. eigenvalues --   -0.83190  -0.82723  -0.81927  -0.81013  -0.79629
 Alpha  occ. eigenvalues --   -0.78628  -0.76700  -0.76406  -0.72922  -0.72528
 Alpha  occ. eigenvalues --   -0.71238  -0.70729  -0.69864  -0.68466  -0.68015
 Alpha  occ. eigenvalues --   -0.67410  -0.66884  -0.66588  -0.64690  -0.63886
 Alpha  occ. eigenvalues --   -0.62885  -0.62027  -0.61839  -0.60892  -0.59837
 Alpha  occ. eigenvalues --   -0.59294  -0.58299  -0.57929  -0.57244  -0.56791
 Alpha  occ. eigenvalues --   -0.55795  -0.54478  -0.54314  -0.53726  -0.53307
 Alpha  occ. eigenvalues --   -0.52586  -0.51714  -0.51680  -0.51299  -0.50459
 Alpha  occ. eigenvalues --   -0.50255  -0.49989  -0.49885  -0.48830  -0.48261
 Alpha  occ. eigenvalues --   -0.47869  -0.47498  -0.47205  -0.46132  -0.45940
 Alpha  occ. eigenvalues --   -0.45684  -0.45429  -0.45255  -0.44950  -0.44888
 Alpha  occ. eigenvalues --   -0.44678  -0.44168  -0.43778  -0.43132  -0.43009
 Alpha  occ. eigenvalues --   -0.42787  -0.41980  -0.41592  -0.40262  -0.39654
 Alpha  occ. eigenvalues --   -0.39382  -0.37835  -0.36471  -0.35988  -0.33524
 Alpha  occ. eigenvalues --   -0.32918  -0.31959  -0.31290  -0.31170  -0.30424
 Alpha  occ. eigenvalues --   -0.29376  -0.28744
 Alpha virt. eigenvalues --   -0.14695  -0.11402  -0.10443  -0.08614  -0.07880
 Alpha virt. eigenvalues --   -0.07058  -0.05872  -0.05096  -0.04766  -0.03900
 Alpha virt. eigenvalues --   -0.03005  -0.02365  -0.01456  -0.00344   0.01132

 Mulliken charges:
               1
     1  N   -0.708138
     2  H    0.314703
     3  H    0.328474
     4  C   -0.099967
     5  H    0.158620
     6  C    0.605747
     7  C   -0.334568
     8  H    0.148259
     9  H    0.192085
    10  O   -0.498031
    11  C    0.127571
    12  C   -0.087853
    13  H    0.207778
    14  C    0.142070
    15  C    0.215255
    16  C   -0.212928
    17  H    0.182822
    18  N   -0.797916
    19  H    0.448923
    20  C   -0.141015
    21  H    0.159534
    22  C   -0.155158
    23  H    0.165086
    24  C   -0.123626
    25  H    0.158596
    26  N   -0.619316
    27  H    0.329575
    28  C   -0.026305
    29  H    0.130576
    30  C    0.631576
    31  C   -0.091309
    32  H    0.202189
    33  O   -0.552278
    34  C   -0.276973
    35  H    0.152914
    36  H    0.152701
    37  C   -0.457866
    38  H    0.132092
    39  H    0.158418
    40  H    0.160196
    41  C   -0.457231
    42  H    0.144078
    43  H    0.115279
    44  H    0.156047
    45  N   -0.583627
    46  H    0.335060
    47  C   -0.068117
    48  H    0.161778
    49  C    0.599186
    50  C   -0.279537
    51  H    0.168752
    52  H    0.146105
    53  O   -0.616724
    54  C   -0.296277
    55  H    0.210800
    56  H    0.121168
    57  C   -0.185974
    58  H    0.205553
    59  H    0.180813
    60  N   -0.583040
    61  H    0.374598
    62  N   -0.755556
    63  H    0.387423
    64  H    0.397111
    65  N   -0.759919
    66  H    0.388864
    67  H    0.387317
    68  C    0.825041
    69  O   -0.585616
    70  H    0.444128
 Sum of Mulliken charges =   1.00000

 Dipole moment (field-independent basis, Debye):
    X=              9.3307    Y=             13.1797    Z=            -15.6075  Tot=             22.4580
 Quadrupole moment (field-independent basis, Debye-Ang):
   XX=           -155.5181   YY=            -87.3713   ZZ=           -101.3936
   XY=             47.9716   XZ=            -65.7635   YZ=            -90.4727

 Normal termination of Gaussian 16 at Fri Jun  3 04:56:08 2022.
