 Gaussian 16, Revision C.01,
 Gaussian 16:  ES64L-G16RevC.01  3-Jul-2019

 ----------------------------------------------------------------------
 # B3LYP/6-31G* empiricaldispersion=gd3 guess=read geom=check nosymm in
 tegral(ultrafinegrid)
 ----------------------------------------------------------------------

 ------------------------------------------------------
 Candidate Structure: Conf:617 Charge calc in gas phase
 ------------------------------------------------------
 Structure from the checkpoint file:  "conf-617.chk"
 Charge =  1 Multiplicity = 1

                          Input orientation:
 ---------------------------------------------------------------------
 Center     Atomic      Atomic             Coordinates (Angstroms)
 Number     Number       Type             X           Y           Z
 ---------------------------------------------------------------------
      1          7           0       -0.958141   -3.377033    3.900854
      2          1           0       -1.951245   -3.492739    4.091299
      3          1           0       -0.756932   -3.997434    3.114290
      4          6           0       -0.697647   -2.012608    3.453613
      5          1           0       -1.437011   -1.339907    3.904329
      6          6           0       -0.779917   -1.917783    1.901386
      7          6           0        0.709562   -1.530323    3.953601
      8          1           0        0.723766   -0.436551    4.025133
      9          1           0        0.839291   -1.935682    4.960775
     10          8           0       -0.762545   -2.937850    1.227612
     11          6           0        1.804982   -1.960431    3.028976
     12          6           0        2.395518   -1.135519    2.151623
     13          1           0        2.318429   -0.069577    1.997146
     14          6           0        2.281249   -3.327752    2.774363
     15          6           0        3.144906   -3.287115    1.672629
     16          6           0        2.043199   -4.548625    3.405846
     17          1           0        1.361082   -4.606357    4.247264
     18          7           0        3.168224   -1.911446    1.163496
     19          1           0        2.579509   -1.854833    0.276973
     20          6           0        3.542230   -5.613667    1.799539
     21          1           0        4.025096   -6.514157    1.433506
     22          6           0        3.780971   -4.395115    1.149720
     23          1           0        4.430205   -4.331840    0.282070
     24          6           0        2.686722   -5.684928    2.906007
     25          1           0        2.516984   -6.645051    3.383673
     26          7           0       -0.824965   -0.655880    1.376887
     27          1           0       -0.823972    0.115746    2.029288
     28          6           0       -0.778164   -0.300780   -0.052245
     29          1           0       -1.071047    0.754317   -0.089777
     30          6           0        0.662509   -0.440533   -0.571255
     31          6           0       -1.754527   -1.104156   -0.947299
     32          1           0       -1.431043   -2.146304   -0.898884
     33          8           0        1.214505   -1.551642   -0.623394
     34          6           0       -1.650919   -0.657432   -2.424632
     35          1           0       -0.645253   -0.886809   -2.800747
     36          1           0       -2.333683   -1.294675   -2.999951
     37          6           0       -3.186265   -1.013773   -0.404848
     38          1           0       -3.531200    0.023831   -0.319554
     39          1           0       -3.874963   -1.539785   -1.074481
     40          1           0       -3.264797   -1.477761    0.582143
     41          6           0       -1.977341    0.813269   -2.717125
     42          1           0       -1.960851    1.000165   -3.795983
     43          1           0       -1.247199    1.495545   -2.264645
     44          1           0       -2.970888    1.092923   -2.351026
     45          7           0        1.279222    0.689386   -0.985663
     46          1           0        0.885614    1.580438   -0.711019
     47          6           0        2.695103    0.688750   -1.348761
     48          1           0        2.907607   -0.271787   -1.820118
     49          6           0        3.572932    0.837937   -0.083569
     50          6           0        3.014342    1.827744   -2.336152
     51          1           0        2.498155    1.627137   -3.280335
     52          1           0        2.605645    2.769482   -1.943275
     53          8           0        3.214466    1.658857    0.773591
     54          6           0        4.535334    1.978330   -2.571521
     55          1           0        4.723915    2.320497   -3.595484
     56          1           0        5.021864    1.004055   -2.458444
     57          6           0        5.174706    2.973804   -1.584325
     58          1           0        4.928475    4.000777   -1.876552
     59          1           0        4.795779    2.843065   -0.570107
     60          7           0        6.639792    2.879683   -1.529373
     61          1           0        7.153940    3.198256   -2.340683
     62          7           0        6.828058    1.576520    0.402538
     63          1           0        7.367234    1.388882    1.236542
     64          1           0        5.922004    1.037668    0.284315
     65          7           0        8.697155    2.601125   -0.527242
     66          1           0        9.063280    3.442154   -0.949565
     67          1           0        9.316006    2.086222    0.081470
     68          6           0        7.366891    2.338620   -0.539537
     69          8           0        4.638286    0.113246   -0.071553
     70          1           0        4.076887   -1.469602    0.920686
 ---------------------------------------------------------------------

 SCF Done:  E(RB3LYP) =  -1582.22427823     A.U. after    1 cycles

 Alpha  occ. eigenvalues --  -19.22076 -19.19974 -19.19843 -19.18813 -14.53152
 Alpha  occ. eigenvalues --  -14.50432 -14.50414 -14.48042 -14.46394 -14.45334
 Alpha  occ. eigenvalues --  -14.38899 -10.46234 -10.38880 -10.36959 -10.36830
 Alpha  occ. eigenvalues --  -10.33651 -10.33199 -10.32669 -10.32257 -10.31508
 Alpha  occ. eigenvalues --  -10.31395 -10.30730 -10.29775 -10.29576 -10.29061
 Alpha  occ. eigenvalues --  -10.29029 -10.28748 -10.28555 -10.28259 -10.28161
 Alpha  occ. eigenvalues --  -10.26277 -10.25223 -10.24568 -10.24139  -1.14548
 Alpha  occ. eigenvalues --   -1.14101  -1.12509  -1.11866  -1.10488  -1.04190
 Alpha  occ. eigenvalues --   -1.03941  -1.02310  -1.01980  -1.01174  -0.96835
 Alpha  occ. eigenvalues --   -0.95003  -0.91218  -0.90387  -0.88751  -0.84878
 Alpha  occ. eigenvalues --   -0.84290  -0.84200  -0.81958  -0.80594  -0.79097
 Alpha  occ. eigenvalues --   -0.77365  -0.75478  -0.73513  -0.72145  -0.71930
 Alpha  occ. eigenvalues --   -0.70931  -0.70279  -0.69961  -0.69121  -0.68559
 Alpha  occ. eigenvalues --   -0.67377  -0.66401  -0.65806  -0.64422  -0.63693
 Alpha  occ. eigenvalues --   -0.63507  -0.62604  -0.61704  -0.60660  -0.59588
 Alpha  occ. eigenvalues --   -0.58845  -0.58552  -0.57776  -0.57336  -0.56952
 Alpha  occ. eigenvalues --   -0.56278  -0.55254  -0.54871  -0.54260  -0.53618
 Alpha  occ. eigenvalues --   -0.53211  -0.53013  -0.52439  -0.51858  -0.51598
 Alpha  occ. eigenvalues --   -0.50924  -0.50685  -0.50130  -0.49368  -0.48987
 Alpha  occ. eigenvalues --   -0.48736  -0.48530  -0.48154  -0.47500  -0.46672
 Alpha  occ. eigenvalues --   -0.46510  -0.46233  -0.46003  -0.45200  -0.45100
 Alpha  occ. eigenvalues --   -0.44892  -0.44621  -0.44049  -0.43685  -0.43260
 Alpha  occ. eigenvalues --   -0.42812  -0.41005  -0.40296  -0.39671  -0.39475
 Alpha  occ. eigenvalues --   -0.39265  -0.38802  -0.37881  -0.37249  -0.35654
 Alpha  occ. eigenvalues --   -0.34697  -0.33924  -0.33347  -0.32975  -0.32497
 Alpha  occ. eigenvalues --   -0.32312  -0.31586
 Alpha virt. eigenvalues --   -0.12846  -0.10718  -0.10081  -0.08778  -0.06896
 Alpha virt. eigenvalues --   -0.06202  -0.05684  -0.05206  -0.03659  -0.02844
 Alpha virt. eigenvalues --   -0.01978  -0.01030   0.00384   0.00988   0.01418

 Mulliken charges:
               1
     1  N   -0.717931
     2  H    0.317238
     3  H    0.333276
     4  C   -0.098490
     5  H    0.158051
     6  C    0.616043
     7  C   -0.326762
     8  H    0.149882
     9  H    0.192483
    10  O   -0.502878
    11  C    0.125206
    12  C   -0.105800
    13  H    0.220654
    14  C    0.150256
    15  C    0.209402
    16  C   -0.209604
    17  H    0.188750
    18  N   -0.784239
    19  H    0.457544
    20  C   -0.140298
    21  H    0.162619
    22  C   -0.155482
    23  H    0.162344
    24  C   -0.122960
    25  H    0.162954
    26  N   -0.622321
    27  H    0.333335
    28  C   -0.030917
    29  H    0.141243
    30  C    0.647782
    31  C   -0.091967
    32  H    0.198321
    33  O   -0.568471
    34  C   -0.280739
    35  H    0.147417
    36  H    0.154662
    37  C   -0.459606
    38  H    0.139516
    39  H    0.161957
    40  H    0.155619
    41  C   -0.453662
    42  H    0.160299
    43  H    0.120223
    44  H    0.159293
    45  N   -0.577725
    46  H    0.342938
    47  C   -0.028855
    48  H    0.174244
    49  C    0.593967
    50  C   -0.298583
    51  H    0.173377
    52  H    0.151720
    53  O   -0.560061
    54  C   -0.282030
    55  H    0.153988
    56  H    0.177838
    57  C   -0.189162
    58  H    0.180085
    59  H    0.223076
    60  N   -0.596050
    61  H    0.354917
    62  N   -0.777148
    63  H    0.355774
    64  H    0.445325
    65  N   -0.765388
    66  H    0.372656
    67  H    0.372776
    68  C    0.789827
    69  O   -0.660837
    70  H    0.419090
 Sum of Mulliken charges =   1.00000

 Dipole moment (field-independent basis, Debye):
    X=             22.8320    Y=              4.4097    Z=              0.5574  Tot=             23.2607
 Quadrupole moment (field-independent basis, Debye-Ang):
   XX=              2.9775   YY=           -151.7514   ZZ=           -171.5268
   XY=             43.9518   XZ=            -17.1523   YZ=            -27.2915

 Normal termination of Gaussian 16 at Fri Jun  3 04:56:08 2022.
