 Gaussian 16, Revision C.01,
 Gaussian 16:  ES64L-G16RevC.01  3-Jul-2019

 ----------------------------------------------------------------------
 # B3LYP/6-31G* empiricaldispersion=gd3 guess=read geom=check nosymm in
 tegral(ultrafinegrid)
 ----------------------------------------------------------------------

 ------------------------------------------------------
 Candidate Structure: Conf:605 Charge calc in gas phase
 ------------------------------------------------------
 Structure from the checkpoint file:  "conf-605.chk"
 Charge =  1 Multiplicity = 1

                          Input orientation:
 ---------------------------------------------------------------------
 Center     Atomic      Atomic             Coordinates (Angstroms)
 Number     Number       Type             X           Y           Z
 ---------------------------------------------------------------------
      1          7           0       -2.018085   -1.850083    2.705465
      2          1           0       -2.155679   -2.775393    2.298682
      3          1           0       -2.448578   -1.874879    3.627518
      4          6           0       -0.581084   -1.559990    2.823598
      5          1           0       -0.485963   -0.656420    3.438833
      6          6           0       -0.054426   -1.147035    1.444001
      7          6           0        0.281421   -2.672489    3.466744
      8          1           0       -0.293350   -3.059883    4.317751
      9          1           0        0.389354   -3.500812    2.757213
     10          8           0        1.069679   -1.426784    1.033649
     11          6           0        1.639167   -2.230269    3.946326
     12          6           0        1.890373   -1.460304    5.044426
     13          1           0        1.201261   -1.022669    5.753863
     14          6           0        2.925719   -2.533530    3.349777
     15          6           0        3.918748   -1.929419    4.154922
     16          6           0        3.319222   -3.257038    2.214362
     17          1           0        2.573156   -3.687952    1.555554
     18          7           0        3.264818   -1.180723    5.146832
     19          1           0        3.429718    0.508069    4.045750
     20          6           0        5.648685   -2.800230    2.773633
     21          1           0        6.701885   -2.928861    2.540606
     22          6           0        5.282154   -2.050357    3.887925
     23          1           0        6.027961   -1.580153    4.523215
     24          6           0        4.676032   -3.388837    1.941653
     25          1           0        4.995474   -3.955931    1.071676
     26          7           0       -0.908439   -0.347440    0.737533
     27          1           0       -1.870449   -0.337761    1.060383
     28          6           0       -0.556747    0.158871   -0.586146
     29          1           0       -1.230470    1.005417   -0.779019
     30          6           0        0.885419    0.710729   -0.513059
     31          6           0       -0.693820   -0.861077   -1.741629
     32          1           0        0.177210   -1.522196   -1.675863
     33          8           0        1.729456    0.468063   -1.384399
     34          6           0       -0.667395   -0.130972   -3.106882
     35          1           0       -1.691840    0.158520   -3.378338
     36          1           0       -0.099019    0.802551   -3.026717
     37          6           0       -1.965501   -1.705737   -1.595977
     38          1           0       -2.862089   -1.073270   -1.557472
     39          1           0       -2.075431   -2.381026   -2.450989
     40          1           0       -1.944389   -2.318389   -0.689804
     41          6           0       -0.055478   -0.982299   -4.223470
     42          1           0       -0.087174   -0.462239   -5.188652
     43          1           0       -0.587346   -1.931910   -4.348201
     44          1           0        0.989165   -1.227032   -3.988229
     45          7           0        1.167666    1.484038    0.561905
     46          1           0        0.456910    1.501692    1.290753
     47          6           0        2.520624    1.476244    1.114079
     48          1           0        3.053017    0.621644    0.684318
     49          6           0        2.387210    1.173220    2.607902
     50          6           0        3.299495    2.778196    0.849489
     51          1           0        2.753702    3.610628    1.308177
     52          1           0        4.270024    2.711985    1.355518
     53          8           0        3.572418    0.925157    3.159934
     54          6           0        3.491987    3.078882   -0.645212
     55          1           0        3.882163    4.098918   -0.754056
     56          1           0        2.521708    3.049821   -1.153495
     57          6           0        4.454011    2.103995   -1.336925
     58          1           0        5.433992    2.113017   -0.849026
     59          1           0        4.078080    1.081153   -1.295787
     60          7           0        4.685029    2.449991   -2.750842
     61          1           0        5.269923    3.257839   -2.923756
     62          7           0        2.984709    1.149014   -3.682344
     63          1           0        2.638331    0.635985   -4.481179
     64          1           0        2.525389    0.950474   -2.778835
     65          7           0        4.436071    2.341250   -5.044407
     66          1           0        5.381146    2.662616   -5.197179
     67          1           0        3.907955    2.079339   -5.863947
     68          6           0        4.024062    1.965898   -3.810969
     69          8           0        1.322614    1.149252    3.195063
     70          1           0        3.693623   -1.028691    6.052415
 ---------------------------------------------------------------------

 SCF Done:  E(RB3LYP) =  -1582.26372344     A.U. after    1 cycles

 Alpha  occ. eigenvalues --  -19.27356 -19.22883 -19.22839 -19.20156 -14.51685
 Alpha  occ. eigenvalues --  -14.51651 -14.49986 -14.45057 -14.45025 -14.44187
 Alpha  occ. eigenvalues --  -14.40785 -10.47736 -10.40863 -10.39530 -10.36680
 Alpha  occ. eigenvalues --  -10.34716 -10.32977 -10.32705 -10.30239 -10.29808
 Alpha  occ. eigenvalues --  -10.29190 -10.28525 -10.28417 -10.27243 -10.26569
 Alpha  occ. eigenvalues --  -10.26428 -10.26189 -10.25470 -10.25308 -10.25303
 Alpha  occ. eigenvalues --  -10.24908 -10.24782 -10.24562 -10.24296  -1.18940
 Alpha  occ. eigenvalues --   -1.16064  -1.14515  -1.11899  -1.10291  -1.05491
 Alpha  occ. eigenvalues --   -1.04283  -1.03927  -1.02666  -1.00799  -0.97282
 Alpha  occ. eigenvalues --   -0.91094  -0.90196  -0.89235  -0.86855  -0.86022
 Alpha  occ. eigenvalues --   -0.82868  -0.81145  -0.80640  -0.79731  -0.78977
 Alpha  occ. eigenvalues --   -0.77531  -0.77061  -0.73581  -0.73278  -0.71754
 Alpha  occ. eigenvalues --   -0.71583  -0.70032  -0.69314  -0.68329  -0.67539
 Alpha  occ. eigenvalues --   -0.66952  -0.65566  -0.65125  -0.64598  -0.64188
 Alpha  occ. eigenvalues --   -0.62700  -0.61355  -0.60614  -0.60056  -0.59879
 Alpha  occ. eigenvalues --   -0.58134  -0.58041  -0.57472  -0.56687  -0.56370
 Alpha  occ. eigenvalues --   -0.55682  -0.54934  -0.54685  -0.54146  -0.53900
 Alpha  occ. eigenvalues --   -0.53566  -0.53048  -0.51872  -0.51640  -0.51294
 Alpha  occ. eigenvalues --   -0.50953  -0.49990  -0.49711  -0.49293  -0.49023
 Alpha  occ. eigenvalues --   -0.48843  -0.48235  -0.47567  -0.47451  -0.47115
 Alpha  occ. eigenvalues --   -0.46082  -0.45923  -0.45817  -0.45531  -0.44986
 Alpha  occ. eigenvalues --   -0.44565  -0.44373  -0.44210  -0.42871  -0.42274
 Alpha  occ. eigenvalues --   -0.41691  -0.41427  -0.41128  -0.40623  -0.40307
 Alpha  occ. eigenvalues --   -0.40141  -0.39879  -0.39473  -0.37395  -0.36462
 Alpha  occ. eigenvalues --   -0.35854  -0.34974  -0.34637  -0.33273  -0.31900
 Alpha  occ. eigenvalues --   -0.29049  -0.27162
 Alpha virt. eigenvalues --   -0.11720  -0.09121  -0.08211  -0.07791  -0.07565
 Alpha virt. eigenvalues --   -0.06612  -0.04610  -0.04073  -0.03734  -0.01402
 Alpha virt. eigenvalues --   -0.00945  -0.00079   0.00496   0.01108   0.01708

 Mulliken charges:
               1
     1  N   -0.742716
     2  H    0.315068
     3  H    0.322260
     4  C   -0.086819
     5  H    0.200428
     6  C    0.621654
     7  C   -0.358570
     8  H    0.150242
     9  H    0.157386
    10  O   -0.533873
    11  C    0.108764
    12  C   -0.029563
    13  H    0.156874
    14  C    0.110809
    15  C    0.247048
    16  C   -0.183947
    17  H    0.137423
    18  N   -0.718705
    19  H    0.449304
    20  C   -0.150265
    21  H    0.132900
    22  C   -0.169917
    23  H    0.131861
    24  C   -0.145506
    25  H    0.127844
    26  N   -0.623519
    27  H    0.363855
    28  C   -0.046448
    29  H    0.170116
    30  C    0.630914
    31  C   -0.057699
    32  H    0.165026
    33  O   -0.579911
    34  C   -0.260762
    35  H    0.145371
    36  H    0.120233
    37  C   -0.466186
    38  H    0.143965
    39  H    0.160944
    40  H    0.150709
    41  C   -0.464057
    42  H    0.140342
    43  H    0.168912
    44  H    0.134928
    45  N   -0.581539
    46  H    0.364509
    47  C   -0.062307
    48  H    0.213777
    49  C    0.616432
    50  C   -0.275305
    51  H    0.167289
    52  H    0.173356
    53  O   -0.581157
    54  C   -0.266396
    55  H    0.150782
    56  H    0.164673
    57  C   -0.177521
    58  H    0.184975
    59  H    0.210055
    60  N   -0.600241
    61  H    0.358639
    62  N   -0.803287
    63  H    0.369704
    64  H    0.468740
    65  N   -0.766207
    66  H    0.377651
    67  H    0.377770
    68  C    0.812183
    69  O   -0.487573
    70  H    0.344278
 Sum of Mulliken charges =   1.00000

 Dipole moment (field-independent basis, Debye):
    X=             13.4959    Y=              6.3454    Z=             -7.4869  Tot=             16.6871
 Quadrupole moment (field-independent basis, Debye-Ang):
   XX=           -112.1332   YY=           -173.1226   ZZ=            -92.9341
   XY=             44.6354   XZ=            -44.9099   YZ=            -32.2886

 Normal termination of Gaussian 16 at Fri Jun  3 04:56:09 2022.
