 Gaussian 16, Revision C.01,
 Gaussian 16:  ES64L-G16RevC.01  3-Jul-2019

 ----------------------------------------------------------------------
 # B3LYP/6-31G* empiricaldispersion=gd3 guess=read geom=check nosymm in
 tegral(ultrafinegrid)
 ----------------------------------------------------------------------

 ------------------------------------------------------
 Candidate Structure: Conf:600 Charge calc in gas phase
 ------------------------------------------------------
 Structure from the checkpoint file:  "conf-600.chk"
 Charge =  1 Multiplicity = 1

                          Input orientation:
 ---------------------------------------------------------------------
 Center     Atomic      Atomic             Coordinates (Angstroms)
 Number     Number       Type             X           Y           Z
 ---------------------------------------------------------------------
      1          7           0       -1.492092   -4.353320    0.237558
      2          1           0       -1.881232   -4.192067   -0.688765
      3          1           0       -0.599705   -4.820577    0.104829
      4          6           0       -1.309313   -3.099786    0.945235
      5          1           0       -2.311713   -2.728885    1.207829
      6          6           0       -0.643368   -1.990214    0.099553
      7          6           0       -0.575083   -3.322719    2.287409
      8          1           0       -0.459232   -2.352574    2.791493
      9          1           0       -1.248635   -3.920120    2.913812
     10          8           0        0.159654   -2.210182   -0.802935
     11          6           0        0.763774   -4.007171    2.252176
     12          6           0        1.625692   -4.224070    1.215177
     13          1           0        1.531579   -3.951747    0.173316
     14          6           0        1.416618   -4.501349    3.447962
     15          6           0        2.682902   -5.000170    3.066493
     16          6           0        1.037193   -4.558483    4.797363
     17          1           0        0.074760   -4.170272    5.118981
     18          7           0        2.836414   -4.753414    1.697129
     19          1           0        3.412904   -5.349476    1.115240
     20          6           0        3.158921   -5.642925    5.308050
     21          1           0        3.817529   -6.092655    6.045263
     22          6           0        3.566002   -5.579988    3.977734
     23          1           0        4.531036   -5.968914    3.664181
     24          6           0        1.910949   -5.132301    5.714574
     25          1           0        1.628507   -5.192487    6.761548
     26          7           0       -1.014253   -0.703468    0.421614
     27          1           0       -1.789981   -0.589954    1.060443
     28          6           0       -0.742874    0.424164   -0.478436
     29          1           0       -0.933316    1.321505    0.124825
     30          6           0        0.762542    0.440784   -0.822953
     31          6           0       -1.665753    0.453463   -1.724979
     32          1           0       -1.339312   -0.367838   -2.372738
     33          8           0        1.186295    0.639077   -1.968731
     34          6           0       -1.540952    1.759947   -2.548154
     35          1           0       -0.560539    1.774454   -3.028407
     36          1           0       -2.277817    1.708781   -3.358749
     37          6           0       -3.127206    0.201958   -1.316485
     38          1           0       -3.477847    0.929350   -0.572574
     39          1           0       -3.783477    0.281566   -2.188956
     40          1           0       -3.266571   -0.798614   -0.896798
     41          6           0       -1.767306    3.066805   -1.772053
     42          1           0       -1.714252    3.930259   -2.448743
     43          1           0       -1.020486    3.207696   -0.978276
     44          1           0       -2.752273    3.100558   -1.295362
     45          7           0        1.582001    0.308787    0.249087
     46          1           0        1.131139    0.037161    1.121958
     47          6           0        2.909757   -0.295825    0.126779
     48          1           0        2.945695   -0.864458   -0.808283
     49          6           0        3.016913   -1.302130    1.273389
     50          6           0        4.071270    0.720619    0.151700
     51          1           0        3.870515    1.432630    0.961837
     52          1           0        4.991089    0.191413    0.419253
     53          8           0        3.986590   -2.189869    1.049262
     54          6           0        4.250365    1.435485   -1.207867
     55          1           0        3.435219    1.153256   -1.877508
     56          1           0        5.168972    1.089358   -1.695802
     57          6           0        4.347562    2.960858   -1.136641
     58          1           0        5.224415    3.267886   -0.559564
     59          1           0        4.449885    3.380020   -2.142641
     60          7           0        3.199179    3.637802   -0.491585
     61          1           0        3.315042    3.944173    0.464912
     62          7           0        1.681161    3.365137   -2.227271
     63          1           0        0.877886    3.733957   -2.719947
     64          1           0        1.780140    2.342775   -2.295380
     65          7           0        1.297934    4.959052   -0.573919
     66          1           0        1.687883    5.654070    0.047383
     67          1           0        0.337127    5.077878   -0.864133
     68          6           0        2.055963    3.975286   -1.095769
     69          8           0        2.284237   -1.288919    2.241288
     70          1           0        3.860340   -2.951750    1.664366
 ---------------------------------------------------------------------

 SCF Done:  E(RB3LYP) =  -1582.23746800     A.U. after    1 cycles

 Alpha  occ. eigenvalues --  -19.28096 -19.23490 -19.23439 -19.21577 -14.53265
 Alpha  occ. eigenvalues --  -14.52944 -14.51147 -14.46265 -14.46044 -14.44904
 Alpha  occ. eigenvalues --  -14.38723 -10.48865 -10.41440 -10.40404 -10.37828
 Alpha  occ. eigenvalues --  -10.36129 -10.34284 -10.33885 -10.30896 -10.30120
 Alpha  occ. eigenvalues --  -10.30070 -10.29138 -10.29019 -10.28527 -10.28322
 Alpha  occ. eigenvalues --  -10.28143 -10.27134 -10.26890 -10.25782 -10.25276
 Alpha  occ. eigenvalues --  -10.24924 -10.24827 -10.24696 -10.24244  -1.19607
 Alpha  occ. eigenvalues --   -1.17348  -1.15084  -1.13135  -1.11061  -1.06733
 Alpha  occ. eigenvalues --   -1.05179  -1.04272  -1.03685  -1.01976  -0.96593
 Alpha  occ. eigenvalues --   -0.91805  -0.90882  -0.90230  -0.87344  -0.86824
 Alpha  occ. eigenvalues --   -0.84418  -0.81966  -0.81432  -0.80171  -0.79673
 Alpha  occ. eigenvalues --   -0.78170  -0.77759  -0.74679  -0.74530  -0.73269
 Alpha  occ. eigenvalues --   -0.72920  -0.70960  -0.70273  -0.68530  -0.68326
 Alpha  occ. eigenvalues --   -0.68091  -0.66102  -0.65675  -0.65444  -0.65375
 Alpha  occ. eigenvalues --   -0.63112  -0.61930  -0.61293  -0.60503  -0.60162
 Alpha  occ. eigenvalues --   -0.59833  -0.57987  -0.57736  -0.57380  -0.57118
 Alpha  occ. eigenvalues --   -0.56734  -0.55949  -0.55885  -0.54480  -0.54339
 Alpha  occ. eigenvalues --   -0.53958  -0.53413  -0.53209  -0.53062  -0.52340
 Alpha  occ. eigenvalues --   -0.51662  -0.50903  -0.50617  -0.50197  -0.49922
 Alpha  occ. eigenvalues --   -0.49335  -0.48947  -0.48629  -0.48357  -0.47930
 Alpha  occ. eigenvalues --   -0.47715  -0.46991  -0.46343  -0.46088  -0.45883
 Alpha  occ. eigenvalues --   -0.45463  -0.45333  -0.44431  -0.44010  -0.43907
 Alpha  occ. eigenvalues --   -0.42773  -0.42699  -0.42369  -0.41512  -0.41439
 Alpha  occ. eigenvalues --   -0.40933  -0.39853  -0.39395  -0.37707  -0.37247
 Alpha  occ. eigenvalues --   -0.36491  -0.35674  -0.35030  -0.33615  -0.31082
 Alpha  occ. eigenvalues --   -0.28953  -0.27389
 Alpha virt. eigenvalues --   -0.14269  -0.10371  -0.09206  -0.08706  -0.07945
 Alpha virt. eigenvalues --   -0.07518  -0.05788  -0.04612  -0.04481  -0.03057
 Alpha virt. eigenvalues --   -0.02276  -0.00963  -0.00661  -0.00010   0.00626

 Mulliken charges:
               1
     1  N   -0.695172
     2  H    0.307921
     3  H    0.321154
     4  C   -0.085247
     5  H    0.141888
     6  C    0.605828
     7  C   -0.341246
     8  H    0.159672
     9  H    0.181203
    10  O   -0.523009
    11  C    0.121704
    12  C   -0.089840
    13  H    0.183245
    14  C    0.108540
    15  C    0.261803
    16  C   -0.206553
    17  H    0.130307
    18  N   -0.726299
    19  H    0.343540
    20  C   -0.147804
    21  H    0.141259
    22  C   -0.170185
    23  H    0.134870
    24  C   -0.134158
    25  H    0.137766
    26  N   -0.624527
    27  H    0.339689
    28  C   -0.058466
    29  H    0.157282
    30  C    0.632601
    31  C   -0.067637
    32  H    0.176230
    33  O   -0.561664
    34  C   -0.274704
    35  H    0.149543
    36  H    0.159731
    37  C   -0.473766
    38  H    0.140113
    39  H    0.170471
    40  H    0.153801
    41  C   -0.487947
    42  H    0.145467
    43  H    0.112698
    44  H    0.179949
    45  N   -0.600123
    46  H    0.367720
    47  C   -0.047880
    48  H    0.211217
    49  C    0.598003
    50  C   -0.271553
    51  H    0.137763
    52  H    0.188388
    53  O   -0.584170
    54  C   -0.300953
    55  H    0.192368
    56  H    0.179370
    57  C   -0.172057
    58  H    0.187810
    59  H    0.198719
    60  N   -0.583752
    61  H    0.363630
    62  N   -0.757501
    63  H    0.372130
    64  H    0.436036
    65  N   -0.756969
    66  H    0.380447
    67  H    0.383011
    68  C    0.766376
    69  O   -0.469233
    70  H    0.451151
 Sum of Mulliken charges =   1.00000

 Dipole moment (field-independent basis, Debye):
    X=              7.7728    Y=             12.5502    Z=             -1.0880  Tot=             14.8023
 Quadrupole moment (field-independent basis, Debye-Ang):
   XX=           -146.3944   YY=           -112.7611   ZZ=           -186.6103
   XY=              9.6260   XZ=              2.4538   YZ=            -15.8417

 Normal termination of Gaussian 16 at Fri Jun  3 04:56:11 2022.
