 Gaussian 16, Revision C.01,
 Gaussian 16:  ES64L-G16RevC.01  3-Jul-2019

 ----------------------------------------------------------------------
 # B3LYP/6-31G* empiricaldispersion=gd3 guess=read geom=check nosymm in
 tegral(ultrafinegrid)
 ----------------------------------------------------------------------

 ------------------------------------------------------
 Candidate Structure: Conf:578 Charge calc in gas phase
 ------------------------------------------------------
 Structure from the checkpoint file:  "conf-578.chk"
 Charge =  1 Multiplicity = 1

                          Input orientation:
 ---------------------------------------------------------------------
 Center     Atomic      Atomic             Coordinates (Angstroms)
 Number     Number       Type             X           Y           Z
 ---------------------------------------------------------------------
      1          7           0        0.666522    0.512056    4.141331
      2          1           0        0.975536   -0.024728    4.951701
      3          1           0        1.503358    0.659105    3.551983
      4          6           0       -0.276685   -0.292398    3.385489
      5          1           0        0.083961   -1.315047    3.184967
      6          6           0       -0.546096    0.389026    2.019459
      7          6           0       -1.613309   -0.443957    4.199545
      8          1           0       -2.235244   -1.236458    3.772047
      9          1           0       -1.352292   -0.745771    5.218982
     10          8           0       -0.702411    1.607127    1.870290
     11          6           0       -2.320921    0.871913    4.149457
     12          6           0       -1.755960    2.028442    4.533881
     13          1           0       -0.782203    2.199233    4.969033
     14          6           0       -3.495319    1.161931    3.315675
     15          6           0       -3.550972    2.537932    3.091018
     16          6           0       -4.478057    0.353795    2.746632
     17          1           0       -4.468750   -0.721802    2.889940
     18          7           0       -2.360076    3.133608    3.736676
     19          1           0       -2.542933    4.001338    4.251846
     20          6           0       -5.514229    2.350978    1.797000
     21          1           0       -6.311344    2.797059    1.211462
     22          6           0       -4.520922    3.175338    2.346093
     23          1           0       -4.527515    4.249753    2.189182
     24          6           0       -5.486654    0.965470    1.994037
     25          1           0       -6.265532    0.352405    1.551948
     26          7           0       -0.657354   -0.473786    0.973577
     27          1           0       -0.397008   -1.438938    1.127813
     28          6           0       -0.776576   -0.015717   -0.406394
     29          1           0       -1.433926    0.857597   -0.384941
     30          6           0        0.549890    0.526399   -0.993323
     31          6           0       -1.395118   -1.095279   -1.321596
     32          1           0       -1.414913   -0.633779   -2.316921
     33          8           0        0.501658    1.117995   -2.096532
     34          6           0       -2.839897   -1.443058   -0.917327
     35          1           0       -3.195578   -2.234065   -1.589476
     36          1           0       -2.839217   -1.879248    0.091695
     37          6           0       -0.520158   -2.356598   -1.403281
     38          1           0       -0.511377   -2.915724   -0.457562
     39          1           0       -0.909734   -3.039708   -2.164664
     40          1           0        0.516165   -2.117500   -1.663451
     41          6           0       -3.817646   -0.264241   -0.966464
     42          1           0       -4.843134   -0.601663   -0.780321
     43          1           0       -3.802159    0.220386   -1.950475
     44          1           0       -3.586246    0.494759   -0.211202
     45          7           0        1.627364    0.321028   -0.250650
     46          1           0        1.511051   -0.126013    0.668968
     47          6           0        2.936135    0.981098   -0.172236
     48          1           0        3.689767    0.326952   -0.628678
     49          6           0        3.239341    1.058597    1.388241
     50          6           0        3.029546    2.360292   -0.826823
     51          1           0        4.075846    2.668061   -0.735900
     52          1           0        2.786220    2.262839   -1.889023
     53          8           0        4.087676    1.880870    1.741853
     54          6           0        2.146518    3.417186   -0.149864
     55          1           0        2.514634    3.565321    0.870050
     56          1           0        1.119228    3.049104   -0.054731
     57          6           0        2.181536    4.787719   -0.843757
     58          1           0        1.457899    5.482242   -0.399962
     59          1           0        3.167334    5.242620   -0.719174
     60          7           0        1.968410    4.738252   -2.315012
     61          1           0        2.731210    5.059484   -2.897428
     62          7           0       -0.132241    3.693595   -2.321554
     63          1           0       -0.320072    2.673473   -2.302258
     64          1           0       -0.297850    4.148903   -1.433782
     65          7           0        1.254538    3.520863   -4.156786
     66          1           0        2.196575    3.320338   -4.464783
     67          1           0        0.521361    2.971885   -4.586489
     68          6           0        1.045183    3.979599   -2.909660
     69          8           0        2.531465    0.257709    2.086392
     70          1           0       -1.648922    3.298673    2.998713
 ---------------------------------------------------------------------

 SCF Done:  E(RB3LYP) =  -1582.17033939     A.U. after    1 cycles

 Alpha  occ. eigenvalues --  -19.22230 -19.20252 -19.13968 -19.12533 -14.59577
 Alpha  occ. eigenvalues --  -14.50453 -14.50101 -14.47940 -14.46305 -14.42575
 Alpha  occ. eigenvalues --  -14.38862 -10.45803 -10.39086 -10.37014 -10.36995
 Alpha  occ. eigenvalues --  -10.34789 -10.34160 -10.33326 -10.33211 -10.33177
 Alpha  occ. eigenvalues --  -10.32590 -10.32057 -10.31966 -10.31912 -10.31649
 Alpha  occ. eigenvalues --  -10.31427 -10.30873 -10.28307 -10.28224 -10.27269
 Alpha  occ. eigenvalues --  -10.26856 -10.26152 -10.26034 -10.25931  -1.15514
 Alpha  occ. eigenvalues --   -1.14632  -1.13605  -1.11161  -1.06695  -1.04071
 Alpha  occ. eigenvalues --   -1.02918  -1.02268  -0.99658  -0.99032  -0.98014
 Alpha  occ. eigenvalues --   -0.97206  -0.93837  -0.89987  -0.88504  -0.87911
 Alpha  occ. eigenvalues --   -0.86702  -0.84263  -0.83294  -0.82092  -0.79945
 Alpha  occ. eigenvalues --   -0.77501  -0.75935  -0.74756  -0.74147  -0.73276
 Alpha  occ. eigenvalues --   -0.72395  -0.71747  -0.71252  -0.69918  -0.69619
 Alpha  occ. eigenvalues --   -0.68063  -0.67065  -0.66929  -0.65425  -0.64756
 Alpha  occ. eigenvalues --   -0.62108  -0.62072  -0.61930  -0.61690  -0.60304
 Alpha  occ. eigenvalues --   -0.60053  -0.58844  -0.58165  -0.57343  -0.56889
 Alpha  occ. eigenvalues --   -0.56604  -0.56175  -0.55427  -0.55195  -0.54779
 Alpha  occ. eigenvalues --   -0.53423  -0.53079  -0.52869  -0.52453  -0.51757
 Alpha  occ. eigenvalues --   -0.51327  -0.50796  -0.50551  -0.50250  -0.49657
 Alpha  occ. eigenvalues --   -0.49511  -0.48935  -0.48311  -0.48051  -0.47560
 Alpha  occ. eigenvalues --   -0.47410  -0.46904  -0.46042  -0.45699  -0.45113
 Alpha  occ. eigenvalues --   -0.44458  -0.44055  -0.43535  -0.42920  -0.42043
 Alpha  occ. eigenvalues --   -0.41926  -0.41761  -0.41197  -0.40937  -0.40629
 Alpha  occ. eigenvalues --   -0.40162  -0.39031  -0.38523  -0.37751  -0.36512
 Alpha  occ. eigenvalues --   -0.34458  -0.34003  -0.33038  -0.32432  -0.28951
 Alpha  occ. eigenvalues --   -0.28782  -0.26459
 Alpha virt. eigenvalues --   -0.16176  -0.13763  -0.12191  -0.09156  -0.08313
 Alpha virt. eigenvalues --   -0.07520  -0.06503  -0.05944  -0.03578  -0.03040
 Alpha virt. eigenvalues --   -0.02878  -0.02213  -0.01285  -0.00018   0.00171

 Mulliken charges:
               1
     1  N   -0.757726
     2  H    0.307712
     3  H    0.383623
     4  C   -0.057227
     5  H    0.147919
     6  C    0.655690
     7  C   -0.348153
     8  H    0.162931
     9  H    0.190994
    10  O   -0.584759
    11  C    0.116920
    12  C   -0.052265
    13  H    0.240875
    14  C    0.158529
    15  C    0.184689
    16  C   -0.204638
    17  H    0.171396
    18  N   -0.720505
    19  H    0.409168
    20  C   -0.142949
    21  H    0.174899
    22  C   -0.156889
    23  H    0.168485
    24  C   -0.114283
    25  H    0.173640
    26  N   -0.632296
    27  H    0.347631
    28  C   -0.033047
    29  H    0.164826
    30  C    0.636922
    31  C   -0.101859
    32  H    0.155065
    33  O   -0.626804
    34  C   -0.246452
    35  H    0.153027
    36  H    0.123817
    37  C   -0.478833
    38  H    0.136450
    39  H    0.170109
    40  H    0.173254
    41  C   -0.463259
    42  H    0.149253
    43  H    0.149417
    44  H    0.146244
    45  N   -0.606290
    46  H    0.370453
    47  C   -0.068014
    48  H    0.168820
    49  C    0.602598
    50  C   -0.265501
    51  H    0.171926
    52  H    0.125642
    53  O   -0.548393
    54  C   -0.306265
    55  H    0.207240
    56  H    0.137704
    57  C   -0.174121
    58  H    0.168374
    59  H    0.194350
    60  N   -0.573554
    61  H    0.361568
    62  N   -0.732122
    63  H    0.396906
    64  H    0.352712
    65  N   -0.721177
    66  H    0.373881
    67  H    0.384523
    68  C    0.740770
    69  O   -0.632245
    70  H    0.438673
 Sum of Mulliken charges =   1.00000

 Dipole moment (field-independent basis, Debye):
    X=            -11.9136    Y=             14.0696    Z=              0.1540  Tot=             18.4367
 Quadrupole moment (field-independent basis, Debye-Ang):
   XX=           -168.4676   YY=           -113.9932   ZZ=           -130.1389
   XY=             -8.4781   XZ=            -57.0978   YZ=             -8.7660

 Normal termination of Gaussian 16 at Fri Jun  3 04:56:13 2022.
