 Gaussian 16, Revision C.01,
 Gaussian 16:  ES64L-G16RevC.01  3-Jul-2019

 ----------------------------------------------------------------------
 # B3LYP/6-31G* empiricaldispersion=gd3 guess=read geom=check nosymm in
 tegral(ultrafinegrid)
 ----------------------------------------------------------------------

 ------------------------------------------------------
 Candidate Structure: Conf:234 Charge calc in gas phase
 ------------------------------------------------------
 Structure from the checkpoint file:  "conf-234.chk"
 Charge =  1 Multiplicity = 1

                          Input orientation:
 ---------------------------------------------------------------------
 Center     Atomic      Atomic             Coordinates (Angstroms)
 Number     Number       Type             X           Y           Z
 ---------------------------------------------------------------------
      1          7           0       -0.817057   -2.945687    1.861271
      2          1           0       -0.799163   -3.682464    2.564284
      3          1           0       -1.768921   -2.585132    1.856528
      4          6           0        0.155304   -1.892667    2.215483
      5          1           0       -0.180100   -1.232476    3.034211
      6          6           0        0.333330   -1.033780    0.956951
      7          6           0        1.481635   -2.556564    2.626854
      8          1           0        1.235948   -3.305288    3.391610
      9          1           0        1.866144   -3.105312    1.763273
     10          8           0        1.409045   -0.982473    0.347586
     11          6           0        2.542589   -1.640728    3.175347
     12          6           0        2.524483   -1.032163    4.402116
     13          1           0        1.762831   -1.053305    5.169649
     14          6           0        3.811988   -1.296330    2.573685
     15          6           0        4.509354   -0.466875    3.493429
     16          6           0        4.447130   -1.654328    1.374078
     17          1           0        3.937507   -2.293167    0.659485
     18          7           0        3.676082   -0.267799    4.586774
     19          1           0        3.029938    1.878337    3.929784
     20          6           0        6.406550   -0.358934    2.053826
     21          1           0        7.417882   -0.024722    1.842317
     22          6           0        5.794924    0.019471    3.244984
     23          1           0        6.306463    0.655330    3.962112
     24          6           0        5.741734   -1.196403    1.131305
     25          1           0        6.264527   -1.517622    0.233127
     26          7           0       -0.753885   -0.357407    0.492470
     27          1           0       -1.639342   -0.440828    0.969946
     28          6           0       -0.710833    0.327070   -0.805688
     29          1           0       -1.583345    0.993532   -0.826069
     30          6           0        0.567836    1.198639   -0.829944
     31          6           0       -0.786117   -0.632218   -2.018384
     32          1           0        0.213157   -1.067625   -2.137495
     33          8           0        1.359526    1.198759   -1.767059
     34          6           0       -1.133262    0.164915   -3.294419
     35          1           0       -2.202617    0.420025   -3.270512
     36          1           0       -0.585078    1.112889   -3.294266
     37          6           0       -1.787510   -1.768104   -1.765423
     38          1           0       -2.791205   -1.370232   -1.562340
     39          1           0       -1.865307   -2.413785   -2.644895
     40          1           0       -1.487597   -2.396377   -0.921071
     41          6           0       -0.809784   -0.585710   -4.590230
     42          1           0       -1.062491    0.018909   -5.467631
     43          1           0       -1.360943   -1.528282   -4.671000
     44          1           0        0.260737   -0.824285   -4.645094
     45          7           0        0.755853    1.949096    0.303145
     46          1           0        0.057498    1.785595    1.024412
     47          6           0        2.094341    1.976308    0.893652
     48          1           0        2.546929    0.996574    0.689232
     49          6           0        1.943435    1.923481    2.403320
     50          6           0        3.064751    3.034508    0.335220
     51          1           0        2.831123    3.121888   -0.728638
     52          1           0        2.871405    4.013649    0.783666
     53          8           0        3.093069    2.223927    3.027013
     54          6           0        4.538591    2.598938    0.544112
     55          1           0        4.577389    1.595828    0.976571
     56          1           0        5.017454    3.228580    1.299753
     57          6           0        5.457905    2.659680   -0.689162
     58          1           0        5.717216    3.699190   -0.908445
     59          1           0        6.394000    2.135149   -0.462252
     60          7           0        4.906369    2.146633   -1.962147
     61          1           0        5.165608    2.665759   -2.791489
     62          7           0        3.984389    0.106080   -1.277018
     63          1           0        3.095682   -0.385814   -1.215482
     64          1           0        4.566485    0.050568   -0.447400
     65          7           0        3.555345    0.950352   -3.398815
     66          1           0        3.204156    1.808584   -3.808703
     67          1           0        2.875628    0.202167   -3.477176
     68          6           0        4.134892    1.074938   -2.179097
     69          8           0        0.936750    1.551614    2.971646
     70          1           0        4.017871   -0.002872    5.501113
 ---------------------------------------------------------------------

 SCF Done:  E(RB3LYP) =  -1582.24955192     A.U. after    1 cycles

 Alpha  occ. eigenvalues --  -19.29782 -19.24625 -19.22891 -19.22671 -14.51066
 Alpha  occ. eigenvalues --  -14.49206 -14.49065 -14.47734 -14.46982 -14.45074
 Alpha  occ. eigenvalues --  -14.41633 -10.46208 -10.42616 -10.39628 -10.39300
 Alpha  occ. eigenvalues --  -10.35290 -10.33806 -10.33606 -10.32291 -10.31699
 Alpha  occ. eigenvalues --  -10.31285 -10.29867 -10.29295 -10.28704 -10.28404
 Alpha  occ. eigenvalues --  -10.28355 -10.28346 -10.28202 -10.28120 -10.27911
 Alpha  occ. eigenvalues --  -10.27758 -10.26111 -10.25292 -10.25216  -1.21177
 Alpha  occ. eigenvalues --   -1.15257  -1.14692  -1.13718  -1.12286  -1.07348
 Alpha  occ. eigenvalues --   -1.04433  -1.03697  -1.02616  -1.02035  -0.98563
 Alpha  occ. eigenvalues --   -0.93674  -0.91059  -0.89628  -0.89419  -0.86498
 Alpha  occ. eigenvalues --   -0.84106  -0.83267  -0.82645  -0.80526  -0.80417
 Alpha  occ. eigenvalues --   -0.78994  -0.76428  -0.74973  -0.73244  -0.72000
 Alpha  occ. eigenvalues --   -0.71796  -0.70948  -0.70397  -0.69244  -0.68832
 Alpha  occ. eigenvalues --   -0.67567  -0.66700  -0.65822  -0.65039  -0.64230
 Alpha  occ. eigenvalues --   -0.63392  -0.62321  -0.62123  -0.61171  -0.59990
 Alpha  occ. eigenvalues --   -0.59427  -0.58685  -0.58119  -0.57779  -0.57548
 Alpha  occ. eigenvalues --   -0.57334  -0.57132  -0.56317  -0.55976  -0.55238
 Alpha  occ. eigenvalues --   -0.54162  -0.53758  -0.53369  -0.53021  -0.52833
 Alpha  occ. eigenvalues --   -0.52654  -0.52359  -0.51488  -0.50495  -0.50384
 Alpha  occ. eigenvalues --   -0.50087  -0.49494  -0.49095  -0.48373  -0.47548
 Alpha  occ. eigenvalues --   -0.47465  -0.46779  -0.46205  -0.46095  -0.45812
 Alpha  occ. eigenvalues --   -0.45572  -0.45380  -0.44893  -0.44287  -0.43961
 Alpha  occ. eigenvalues --   -0.43055  -0.42679  -0.42228  -0.42208  -0.41439
 Alpha  occ. eigenvalues --   -0.40927  -0.40452  -0.39561  -0.38429  -0.37765
 Alpha  occ. eigenvalues --   -0.37612  -0.36388  -0.35478  -0.35058  -0.33203
 Alpha  occ. eigenvalues --   -0.32391  -0.30056
 Alpha virt. eigenvalues --   -0.11950  -0.11106  -0.10109  -0.09438  -0.08462
 Alpha virt. eigenvalues --   -0.08175  -0.06371  -0.04255  -0.03645  -0.03466
 Alpha virt. eigenvalues --   -0.02276  -0.01730  -0.00764   0.00612   0.00774

 Mulliken charges:
               1
     1  N   -0.721631
     2  H    0.322303
     3  H    0.303713
     4  C   -0.091203
     5  H    0.156723
     6  C    0.691863
     7  C   -0.352769
     8  H    0.156638
     9  H    0.180589
    10  O   -0.561150
    11  C    0.091799
    12  C   -0.007848
    13  H    0.169436
    14  C    0.095226
    15  C    0.293694
    16  C   -0.227890
    17  H    0.153323
    18  N   -0.710772
    19  H    0.428207
    20  C   -0.155808
    21  H    0.145663
    22  C   -0.163456
    23  H    0.145959
    24  C   -0.198477
    25  H    0.147236
    26  N   -0.626685
    27  H    0.341024
    28  C   -0.060019
    29  H    0.174524
    30  C    0.621562
    31  C   -0.054289
    32  H    0.134993
    33  O   -0.566807
    34  C   -0.266738
    35  H    0.139129
    36  H    0.144230
    37  C   -0.482501
    38  H    0.135292
    39  H    0.165757
    40  H    0.174002
    41  C   -0.449786
    42  H    0.159022
    43  H    0.161739
    44  H    0.125756
    45  N   -0.592797
    46  H    0.354837
    47  C   -0.066981
    48  H    0.210200
    49  C    0.605115
    50  C   -0.268666
    51  H    0.170719
    52  H    0.172129
    53  O   -0.565699
    54  C   -0.309457
    55  H    0.175790
    56  H    0.183159
    57  C   -0.154500
    58  H    0.184049
    59  H    0.186866
    60  N   -0.601506
    61  H    0.364730
    62  N   -0.774858
    63  H    0.406501
    64  H    0.386981
    65  N   -0.707691
    66  H    0.365153
    67  H    0.374439
    68  C    0.773342
    69  O   -0.481450
    70  H    0.348022
 Sum of Mulliken charges =   1.00000

 Dipole moment (field-independent basis, Debye):
    X=             12.9130    Y=              4.2059    Z=              1.9208  Tot=             13.7158
 Quadrupole moment (field-independent basis, Debye-Ang):
   XX=           -113.1226   YY=           -179.4300   ZZ=           -137.1572
   XY=             33.9438   XZ=             -0.5597   YZ=            -14.5240

 Normal termination of Gaussian 16 at Fri Jun  3 04:56:09 2022.
