 Gaussian 16, Revision C.01,
 Gaussian 16:  ES64L-G16RevC.01  3-Jul-2019

 ----------------------------------------------------------------------
 # B3LYP/6-31G* empiricaldispersion=gd3 guess=read geom=check nosymm in
 tegral(ultrafinegrid)
 ----------------------------------------------------------------------

 ------------------------------------------------------
 Candidate Structure: Conf:727 Charge calc in gas phase
 ------------------------------------------------------
 Structure from the checkpoint file:  "conf-727.chk"
 Charge =  1 Multiplicity = 1

                          Input orientation:
 ---------------------------------------------------------------------
 Center     Atomic      Atomic             Coordinates (Angstroms)
 Number     Number       Type             X           Y           Z
 ---------------------------------------------------------------------
      1          7           0       -1.579783   -3.732276    1.577117
      2          1           0       -2.492097   -3.741992    1.120298
      3          1           0       -0.938647   -4.155745    0.901673
      4          6           0       -1.146805   -2.340678    1.754259
      5          1           0       -1.934562   -1.803189    2.297889
      6          6           0       -0.830106   -1.672359    0.401502
      7          6           0        0.162966   -2.276430    2.565820
      8          1           0        0.952197   -2.766734    1.977294
      9          1           0        0.494638   -1.237007    2.662799
     10          8           0       -0.136537   -2.274618   -0.411664
     11          6           0        0.128192   -2.905649    3.923545
     12          6           0       -0.657693   -3.911244    4.342746
     13          1           0       -1.409599   -4.487034    3.824618
     14          6           0        1.022732   -2.504151    5.027410
     15          6           0        0.758307   -3.303359    6.139584
     16          6           0        2.007557   -1.518541    5.119576
     17          1           0        2.227128   -0.860818    4.274676
     18          7           0       -0.330624   -4.245856    5.769491
     19          1           0       -1.152363   -4.133992    6.377530
     20          6           0        2.392736   -2.213646    7.438369
     21          1           0        2.933483   -2.084437    8.370556
     22          6           0        1.402619   -3.203719    7.355942
     23          1           0        1.166966   -3.842474    8.201850
     24          6           0        2.680733   -1.393244    6.340845
     25          1           0        3.444707   -0.627201    6.439776
     26          7           0       -1.280768   -0.407285    0.207470
     27          1           0       -1.944772   -0.017221    0.860815
     28          6           0       -0.903436    0.384684   -0.976327
     29          1           0       -1.242117    1.402047   -0.743408
     30          6           0        0.651383    0.442779   -1.064581
     31          6           0       -1.549198   -0.058958   -2.320279
     32          1           0       -0.793412   -0.638837   -2.858222
     33          8           0        1.262930    0.332941   -2.118055
     34          6           0       -1.925372    1.170558   -3.178154
     35          1           0       -2.365496    0.799673   -4.112973
     36          1           0       -2.730664    1.720129   -2.664597
     37          6           0       -2.789068   -0.940641   -2.116711
     38          1           0       -3.555242   -0.434980   -1.514141
     39          1           0       -3.238538   -1.176109   -3.087388
     40          1           0       -2.536241   -1.888628   -1.633748
     41          6           0       -0.785642    2.136058   -3.522363
     42          1           0       -1.149463    2.928440   -4.186306
     43          1           0        0.038629    1.613211   -4.013618
     44          1           0       -0.369467    2.620382   -2.631323
     45          7           0        1.260567    0.669538    0.127923
     46          1           0        0.726572    0.700463    0.987061
     47          6           0        2.691971    0.527565    0.319957
     48          1           0        3.071791   -0.207307   -0.394344
     49          6           0        2.959706    0.012405    1.745195
     50          6           0        3.416270    1.879110    0.074125
     51          1           0        3.354775    2.079652   -0.999732
     52          1           0        2.840651    2.669045    0.575074
     53          8           0        4.057688   -0.608212    1.900668
     54          6           0        4.881291    1.910939    0.550840
     55          1           0        5.466791    2.603445   -0.066796
     56          1           0        5.324198    0.916122    0.447956
     57          6           0        4.980213    2.353852    2.021560
     58          1           0        4.810104    3.433284    2.102696
     59          1           0        4.225261    1.873269    2.644702
     60          7           0        6.296016    2.082629    2.622067
     61          1           0        7.071132    2.624812    2.263274
     62          7           0        5.741952    0.104635    3.732168
     63          1           0        5.999432   -0.541641    4.465683
     64          1           0        4.958837   -0.204658    3.047828
     65          7           0        7.824098    1.089668    4.049469
     66          1           0        8.440596    1.881774    3.940229
     67          1           0        8.255817    0.220711    4.327852
     68          6           0        6.604283    1.070801    3.445181
     69          8           0        2.131189    0.307205    2.644397
     70          1           0       -0.030763   -5.225778    5.855550
 ---------------------------------------------------------------------

 SCF Done:  E(RB3LYP) =  -1582.18679592     A.U. after    1 cycles

 Alpha  occ. eigenvalues --  -19.19010 -19.16680 -19.16637 -19.16054 -14.60752
 Alpha  occ. eigenvalues --  -14.48821 -14.48677 -14.45683 -14.44039 -14.40929
 Alpha  occ. eigenvalues --  -14.40133 -10.44312 -10.36960 -10.35869 -10.35338
 Alpha  occ. eigenvalues --  -10.34184 -10.33953 -10.33454 -10.33009 -10.32686
 Alpha  occ. eigenvalues --  -10.31783 -10.31604 -10.31531 -10.30912 -10.30018
 Alpha  occ. eigenvalues --  -10.29443 -10.28950 -10.27458 -10.25979 -10.24883
 Alpha  occ. eigenvalues --  -10.23615 -10.22474 -10.22427 -10.20817  -1.16017
 Alpha  occ. eigenvalues --   -1.12691  -1.11183  -1.09944  -1.07931  -1.02368
 Alpha  occ. eigenvalues --   -1.01406  -1.00058  -0.99836  -0.98787  -0.98024
 Alpha  occ. eigenvalues --   -0.96659  -0.94031  -0.87357  -0.87069  -0.86335
 Alpha  occ. eigenvalues --   -0.85750  -0.83949  -0.81551  -0.78783  -0.76646
 Alpha  occ. eigenvalues --   -0.75868  -0.75107  -0.74167  -0.73096  -0.72972
 Alpha  occ. eigenvalues --   -0.72367  -0.70105  -0.68543  -0.67417  -0.67019
 Alpha  occ. eigenvalues --   -0.66746  -0.66545  -0.66194  -0.63385  -0.62110
 Alpha  occ. eigenvalues --   -0.61778  -0.61352  -0.60703  -0.60507  -0.59960
 Alpha  occ. eigenvalues --   -0.59243  -0.58453  -0.56973  -0.56543  -0.55649
 Alpha  occ. eigenvalues --   -0.54818  -0.54415  -0.53902  -0.53552  -0.53323
 Alpha  occ. eigenvalues --   -0.53225  -0.51948  -0.51178  -0.50558  -0.50223
 Alpha  occ. eigenvalues --   -0.49801  -0.48713  -0.48592  -0.48368  -0.47998
 Alpha  occ. eigenvalues --   -0.47522  -0.46846  -0.46546  -0.46028  -0.45826
 Alpha  occ. eigenvalues --   -0.45772  -0.45285  -0.44762  -0.44532  -0.43729
 Alpha  occ. eigenvalues --   -0.43343  -0.42347  -0.41616  -0.41210  -0.40891
 Alpha  occ. eigenvalues --   -0.39693  -0.39414  -0.39090  -0.37932  -0.37913
 Alpha  occ. eigenvalues --   -0.37131  -0.36651  -0.36230  -0.35493  -0.35095
 Alpha  occ. eigenvalues --   -0.33632  -0.32823  -0.31942  -0.31884  -0.30962
 Alpha  occ. eigenvalues --   -0.29483  -0.28893
 Alpha virt. eigenvalues --   -0.15918  -0.13256  -0.09808  -0.08866  -0.07956
 Alpha virt. eigenvalues --   -0.05703  -0.05642  -0.03584  -0.03418  -0.02691
 Alpha virt. eigenvalues --   -0.02249  -0.01540  -0.00960  -0.00769   0.00839

 Mulliken charges:
               1
     1  N   -0.726347
     2  H    0.318408
     3  H    0.329690
     4  C   -0.081172
     5  H    0.134564
     6  C    0.626133
     7  C   -0.383195
     8  H    0.212753
     9  H    0.219062
    10  O   -0.521197
    11  C    0.173110
    12  C   -0.108888
    13  H    0.239347
    14  C    0.110171
    15  C    0.159998
    16  C   -0.191187
    17  H    0.252278
    18  N   -0.731899
    19  H    0.419715
    20  C   -0.138669
    21  H    0.170451
    22  C   -0.159062
    23  H    0.169537
    24  C   -0.143785
    25  H    0.157995
    26  N   -0.632528
    27  H    0.330540
    28  C   -0.044797
    29  H    0.158819
    30  C    0.631132
    31  C   -0.069669
    32  H    0.180306
    33  O   -0.520793
    34  C   -0.264069
    35  H    0.141456
    36  H    0.118411
    37  C   -0.456760
    38  H    0.121458
    39  H    0.155925
    40  H    0.145121
    41  C   -0.446358
    42  H    0.140376
    43  H    0.178389
    44  H    0.130690
    45  N   -0.614035
    46  H    0.330614
    47  C   -0.003151
    48  H    0.184386
    49  C    0.590758
    50  C   -0.282142
    51  H    0.181065
    52  H    0.140656
    53  O   -0.621048
    54  C   -0.273039
    55  H    0.139839
    56  H    0.178841
    57  C   -0.179654
    58  H    0.173063
    59  H    0.207425
    60  N   -0.593424
    61  H    0.347897
    62  N   -0.781560
    63  H    0.340744
    64  H    0.450096
    65  N   -0.766161
    66  H    0.364482
    67  H    0.366811
    68  C    0.783376
    69  O   -0.592344
    70  H    0.421042
 Sum of Mulliken charges =   1.00000

 Dipole moment (field-independent basis, Debye):
    X=             12.4305    Y=             -7.7217    Z=             28.2417  Tot=             31.8078
 Quadrupole moment (field-independent basis, Debye-Ang):
   XX=            -46.2094   YY=           -128.8619   ZZ=            -49.5875
   XY=             38.6288   XZ=             66.3183   YZ=            -74.9029

 Normal termination of Gaussian 16 at Fri Jun  3 04:56:07 2022.
