 Gaussian 16, Revision C.01,
 Gaussian 16:  ES64L-G16RevC.01  3-Jul-2019

 ----------------------------------------------------------------------
 # B3LYP/6-31G* empiricaldispersion=gd3 guess=read geom=check nosymm in
 tegral(ultrafinegrid)
 ----------------------------------------------------------------------

 ------------------------------------------------------
 Candidate Structure: Conf:474 Charge calc in gas phase
 ------------------------------------------------------
 Structure from the checkpoint file:  "conf-474.chk"
 Charge =  1 Multiplicity = 1

                          Input orientation:
 ---------------------------------------------------------------------
 Center     Atomic      Atomic             Coordinates (Angstroms)
 Number     Number       Type             X           Y           Z
 ---------------------------------------------------------------------
      1          7           0       -0.658789   -2.436889    1.197497
      2          1           0       -0.121122   -3.120232    0.664706
      3          1           0       -1.086751   -2.944231    1.969688
      4          6           0        0.226752   -1.384603    1.714546
      5          1           0       -0.383682   -0.774790    2.392608
      6          6           0        0.584547   -0.470091    0.531997
      7          6           0        1.482163   -1.837765    2.492816
      8          1           0        1.171865   -2.646032    3.167896
      9          1           0        2.209156   -2.261368    1.791186
     10          8           0        1.748582   -0.240650    0.185356
     11          6           0        2.085067   -0.711311    3.280131
     12          6           0        3.209740    0.025946    3.008684
     13          1           0        3.925001   -0.089184    2.206784
     14          6           0        1.464324   -0.095604    4.428143
     15          6           0        2.271426    1.015718    4.798193
     16          6           0        0.281688   -0.342771    5.146852
     17          1           0       -0.343531   -1.198360    4.904042
     18          7           0        3.349539    1.040672    3.940836
     19          1           0        3.989480    1.816235    3.860682
     20          6           0        0.712228    1.644661    6.492432
     21          1           0        0.396282    2.311975    7.288566
     22          6           0        1.902240    1.905638    5.816253
     23          1           0        2.521241    2.762310    6.066109
     24          6           0       -0.083517    0.525903    6.168648
     25          1           0       -0.998061    0.347172    6.726061
     26          7           0       -0.488638    0.097824   -0.075702
     27          1           0       -1.385420   -0.331526    0.122687
     28          6           0       -0.365950    0.891470   -1.306983
     29          1           0       -1.299681    1.461880   -1.379933
     30          6           0        0.781805    1.896366   -1.084343
     31          6           0       -0.192101    0.039014   -2.586897
     32          1           0        0.835065   -0.344170   -2.567986
     33          8           0        1.713930    2.007884   -1.888334
     34          6           0       -0.347848    0.882272   -3.876119
     35          1           0        0.402637    1.677794   -3.874114
     36          1           0       -0.096443    0.226577   -4.719782
     37          6           0       -1.157622   -1.157382   -2.574451
     38          1           0       -2.201996   -0.837822   -2.474154
     39          1           0       -1.075614   -1.713791   -3.513944
     40          1           0       -0.944436   -1.850216   -1.754689
     41          6           0       -1.737863    1.485945   -4.120816
     42          1           0       -1.742860    2.047916   -5.060474
     43          1           0       -2.036271    2.186567   -3.330925
     44          1           0       -2.514812    0.718031   -4.195944
     45          7           0        0.716085    2.622182    0.061922
     46          1           0        0.007465    2.345181    0.731752
     47          6           0        1.963865    3.127660    0.635473
     48          1           0        2.724315    2.352406    0.480038
     49          6           0        1.895497    3.228315    2.155838
     50          6           0        2.449838    4.454956    0.000172
     51          1           0        2.080121    4.487594   -1.029340
     52          1           0        1.983307    5.291523    0.528478
     53          8           0        2.761690    3.764863    2.813063
     54          6           0        3.984839    4.616744    0.022042
     55          1           0        4.382047    4.205302    0.955248
     56          1           0        4.239161    5.682685    0.021969
     57          6           0        4.703352    3.990813   -1.186567
     58          1           0        4.427248    4.517662   -2.105491
     59          1           0        5.785794    4.092433   -1.073384
     60          7           0        4.347493    2.578978   -1.395967
     61          1           0        3.365988    2.413266   -1.667448
     62          7           0        6.349262    1.552330   -0.773451
     63          1           0        6.831131    0.765421   -0.364838
     64          1           0        6.917866    2.253810   -1.223524
     65          7           0        4.362740    0.352819   -0.780667
     66          1           0        3.345104    0.307881   -0.685816
     67          1           0        4.858794   -0.526736   -0.775605
     68          6           0        5.017283    1.504589   -0.993057
     69          8           0        0.830047    2.596723    2.674183
     70          1           0        0.953078    2.533514    3.651784
 ---------------------------------------------------------------------

 SCF Done:  E(RB3LYP) =  -1582.27015754     A.U. after    1 cycles

 Alpha  occ. eigenvalues --  -19.30240 -19.24550 -19.24168 -19.23820 -14.51314
 Alpha  occ. eigenvalues --  -14.49944 -14.49394 -14.47052 -14.46993 -14.46239
 Alpha  occ. eigenvalues --  -14.42387 -10.46962 -10.43086 -10.40834 -10.39967
 Alpha  occ. eigenvalues --  -10.35122 -10.35019 -10.34009 -10.32430 -10.30525
 Alpha  occ. eigenvalues --  -10.30364 -10.29740 -10.29720 -10.28149 -10.28145
 Alpha  occ. eigenvalues --  -10.27350 -10.26997 -10.26825 -10.26771 -10.26759
 Alpha  occ. eigenvalues --  -10.26249 -10.25850 -10.25820 -10.25002  -1.21188
 Alpha  occ. eigenvalues --   -1.16232  -1.15207  -1.14780  -1.12302  -1.06389
 Alpha  occ. eigenvalues --   -1.04707  -1.04556  -1.03449  -1.03151  -0.99108
 Alpha  occ. eigenvalues --   -0.92223  -0.91279  -0.89881  -0.88775  -0.86924
 Alpha  occ. eigenvalues --   -0.83639  -0.82378  -0.81683  -0.80797  -0.79905
 Alpha  occ. eigenvalues --   -0.79180  -0.77553  -0.74859  -0.73446  -0.72747
 Alpha  occ. eigenvalues --   -0.72078  -0.70603  -0.70566  -0.70025  -0.68210
 Alpha  occ. eigenvalues --   -0.68125  -0.67533  -0.65443  -0.65039  -0.64646
 Alpha  occ. eigenvalues --   -0.64485  -0.63237  -0.62364  -0.61966  -0.60639
 Alpha  occ. eigenvalues --   -0.59843  -0.59323  -0.58679  -0.58245  -0.57059
 Alpha  occ. eigenvalues --   -0.56895  -0.56293  -0.55679  -0.55397  -0.54886
 Alpha  occ. eigenvalues --   -0.54791  -0.53998  -0.53473  -0.52911  -0.52860
 Alpha  occ. eigenvalues --   -0.52127  -0.51471  -0.51275  -0.50963  -0.50238
 Alpha  occ. eigenvalues --   -0.49935  -0.49703  -0.49265  -0.49025  -0.48489
 Alpha  occ. eigenvalues --   -0.47889  -0.46628  -0.46445  -0.46340  -0.46171
 Alpha  occ. eigenvalues --   -0.45821  -0.45443  -0.45096  -0.44612  -0.43416
 Alpha  occ. eigenvalues --   -0.42696  -0.42171  -0.42006  -0.41740  -0.41279
 Alpha  occ. eigenvalues --   -0.40961  -0.40640  -0.39498  -0.38716  -0.37991
 Alpha  occ. eigenvalues --   -0.37450  -0.36865  -0.36612  -0.35559  -0.34303
 Alpha  occ. eigenvalues --   -0.30740  -0.28647
 Alpha virt. eigenvalues --   -0.11602  -0.10731  -0.10237  -0.10005  -0.09208
 Alpha virt. eigenvalues --   -0.07278  -0.06010  -0.04081  -0.02803  -0.02143
 Alpha virt. eigenvalues --   -0.01084  -0.00881  -0.00218   0.00380   0.00565

 Mulliken charges:
               1
     1  N   -0.729395
     2  H    0.316908
     3  H    0.325205
     4  C   -0.096962
     5  H    0.178504
     6  C    0.649409
     7  C   -0.349073
     8  H    0.154938
     9  H    0.145732
    10  O   -0.568455
    11  C    0.075070
    12  C   -0.001668
    13  H    0.132991
    14  C    0.092641
    15  C    0.250272
    16  C   -0.209523
    17  H    0.127875
    18  N   -0.662859
    19  H    0.342564
    20  C   -0.146999
    21  H    0.150768
    22  C   -0.206298
    23  H    0.153835
    24  C   -0.141115
    25  H    0.144652
    26  N   -0.608227
    27  H    0.366720
    28  C   -0.058792
    29  H    0.178990
    30  C    0.636647
    31  C   -0.063174
    32  H    0.141709
    33  O   -0.566500
    34  C   -0.276079
    35  H    0.161976
    36  H    0.146325
    37  C   -0.479728
    38  H    0.149907
    39  H    0.165325
    40  H    0.154075
    41  C   -0.461702
    42  H    0.164877
    43  H    0.138279
    44  H    0.158951
    45  N   -0.589405
    46  H    0.371404
    47  C   -0.051022
    48  H    0.175655
    49  C    0.614448
    50  C   -0.282669
    51  H    0.174048
    52  H    0.179884
    53  O   -0.474492
    54  C   -0.274646
    55  H    0.174368
    56  H    0.174389
    57  C   -0.171757
    58  H    0.193939
    59  H    0.160775
    60  N   -0.620379
    61  H    0.432837
    62  N   -0.758365
    63  H    0.373150
    64  H    0.380686
    65  N   -0.796746
    66  H    0.441561
    67  H    0.362113
    68  C    0.777149
    69  O   -0.591606
    70  H    0.446088
 Sum of Mulliken charges =   1.00000

 Dipole moment (field-independent basis, Debye):
    X=             14.8122    Y=              5.0185    Z=              0.1277  Tot=             15.6398
 Quadrupole moment (field-independent basis, Debye-Ang):
   XX=            -91.1517   YY=           -163.1968   ZZ=           -177.5660
   XY=             29.3958   XZ=            -14.6272   YZ=             -3.3141

 Normal termination of Gaussian 16 at Fri Jun  3 04:56:13 2022.
