 Gaussian 16, Revision C.01,
 Gaussian 16:  ES64L-G16RevC.01  3-Jul-2019

 ----------------------------------------------------------------------
 # B3LYP/6-31G* empiricaldispersion=gd3 guess=read geom=check nosymm in
 tegral(ultrafinegrid)
 ----------------------------------------------------------------------

 ------------------------------------------------------
 Candidate Structure: Conf:217 Charge calc in gas phase
 ------------------------------------------------------
 Structure from the checkpoint file:  "conf-217.chk"
 Charge =  1 Multiplicity = 1

                          Input orientation:
 ---------------------------------------------------------------------
 Center     Atomic      Atomic             Coordinates (Angstroms)
 Number     Number       Type             X           Y           Z
 ---------------------------------------------------------------------
      1          7           0       -2.451818   -4.240086    0.525844
      2          1           0       -3.172315   -3.648300    0.118474
      3          1           0       -1.972967   -4.706838   -0.243462
      4          6           0       -1.490425   -3.473244    1.335623
      5          1           0       -2.058568   -2.955968    2.118124
      6          6           0       -0.765648   -2.420968    0.478070
      7          6           0       -0.507123   -4.465240    1.983030
      8          1           0       -1.119616   -5.303147    2.336687
      9          1           0        0.156850   -4.849063    1.200760
     10          8           0        0.375536   -2.556039    0.046713
     11          6           0        0.309871   -3.932741    3.121262
     12          6           0        1.665098   -3.847459    3.183514
     13          1           0        2.401209   -4.093073    2.430500
     14          6           0       -0.200037   -3.475139    4.402780
     15          6           0        0.912488   -3.110954    5.192228
     16          6           0       -1.487330   -3.369635    4.946936
     17          1           0       -2.360504   -3.658250    4.368182
     18          7           0        2.075583   -3.270313    4.409291
     19          1           0        2.919552   -3.618737    4.854194
     20          6           0       -0.503230   -2.562480    7.024443
     21          1           0       -0.640457   -2.215659    8.044393
     22          6           0        0.785783   -2.654153    6.500702
     23          1           0        1.655023   -2.382344    7.093505
     24          6           0       -1.626584   -2.914394    6.255321
     25          1           0       -2.616976   -2.835491    6.694246
     26          7           0       -1.517208   -1.313368    0.150622
     27          1           0       -2.483829   -1.278118    0.443651
     28          6           0       -1.095945   -0.391549   -0.907773
     29          1           0       -1.746272    0.488951   -0.815310
     30          6           0        0.347920    0.064871   -0.604722
     31          6           0       -1.204186   -0.941980   -2.349832
     32          1           0       -0.340866   -1.599218   -2.497873
     33          8           0        1.225585    0.113671   -1.477486
     34          6           0       -1.126978    0.222050   -3.368240
     35          1           0       -2.139324    0.610084   -3.546230
     36          1           0       -0.552366    1.055156   -2.947856
     37          6           0       -2.485327   -1.760375   -2.550138
     38          1           0       -3.378978   -1.172491   -2.301598
     39          1           0       -2.579577   -2.073422   -3.595064
     40          1           0       -2.487867   -2.665021   -1.934903
     41          6           0       -0.487927   -0.192391   -4.697015
     42          1           0       -0.483278    0.636109   -5.415774
     43          1           0       -1.025312   -1.024542   -5.164852
     44          1           0        0.545657   -0.526990   -4.535910
     45          7           0        0.578823    0.426691    0.673193
     46          1           0       -0.150889    0.189495    1.344275
     47          6           0        1.911110    0.285282    1.251105
     48          1           0        2.500891   -0.358580    0.591161
     49          6           0        1.716367   -0.483375    2.559890
     50          6           0        2.631798    1.628837    1.468515
     51          1           0        2.036626    2.234137    2.161731
     52          1           0        3.592987    1.432015    1.958687
     53          8           0        2.866286   -0.938216    3.049993
     54          6           0        2.840617    2.427341    0.172024
     55          1           0        3.188318    3.436017    0.429048
     56          1           0        1.882060    2.541518   -0.346845
     57          6           0        3.855507    1.780223   -0.779654
     58          1           0        4.826223    1.658683   -0.288296
     59          1           0        3.523572    0.791283   -1.097862
     60          7           0        4.093776    2.593042   -1.985530
     61          1           0        4.643845    3.432999   -1.856518
     62          7           0        2.468320    1.622599   -3.352620
     63          1           0        2.152003    1.406853   -4.287951
     64          1           0        2.013811    1.097908   -2.587264
     65          7           0        3.872988    3.273824   -4.181150
     66          1           0        4.806595    3.659052   -4.190493
     67          1           0        3.378892    3.269940   -5.061595
     68          6           0        3.468264    2.476600   -3.164737
     69          8           0        0.622671   -0.663604    3.058284
     70          1           0        2.637642   -1.596359    3.764196
 ---------------------------------------------------------------------

 SCF Done:  E(RB3LYP) =  -1582.25536161     A.U. after    1 cycles

 Alpha  occ. eigenvalues --  -19.26958 -19.23178 -19.22475 -19.20774 -14.51978
 Alpha  occ. eigenvalues --  -14.51910 -14.50302 -14.45571 -14.45356 -14.44955
 Alpha  occ. eigenvalues --  -14.40311 -10.48028 -10.40541 -10.39837 -10.37267
 Alpha  occ. eigenvalues --  -10.35058 -10.33414 -10.33206 -10.30485 -10.30155
 Alpha  occ. eigenvalues --  -10.29494 -10.28424 -10.28408 -10.27891 -10.27162
 Alpha  occ. eigenvalues --  -10.26665 -10.26142 -10.25850 -10.25586 -10.25247
 Alpha  occ. eigenvalues --  -10.25027 -10.24857 -10.24677 -10.24332  -1.18669
 Alpha  occ. eigenvalues --   -1.16357  -1.14776  -1.12445  -1.09999  -1.05789
 Alpha  occ. eigenvalues --   -1.04228  -1.04055  -1.03131  -1.01340  -0.97130
 Alpha  occ. eigenvalues --   -0.91427  -0.90257  -0.89900  -0.86872  -0.86353
 Alpha  occ. eigenvalues --   -0.83283  -0.81070  -0.81019  -0.79784  -0.79370
 Alpha  occ. eigenvalues --   -0.77800  -0.77328  -0.73805  -0.73297  -0.72164
 Alpha  occ. eigenvalues --   -0.71588  -0.70160  -0.69412  -0.68336  -0.67923
 Alpha  occ. eigenvalues --   -0.67729  -0.65607  -0.65435  -0.65089  -0.64476
 Alpha  occ. eigenvalues --   -0.62967  -0.61292  -0.61066  -0.60289  -0.59643
 Alpha  occ. eigenvalues --   -0.58384  -0.58229  -0.57878  -0.56983  -0.56356
 Alpha  occ. eigenvalues --   -0.55885  -0.55326  -0.54910  -0.54317  -0.54208
 Alpha  occ. eigenvalues --   -0.53593  -0.53306  -0.52626  -0.52036  -0.51804
 Alpha  occ. eigenvalues --   -0.50589  -0.50472  -0.50288  -0.49597  -0.49519
 Alpha  occ. eigenvalues --   -0.49221  -0.48355  -0.47887  -0.47427  -0.47284
 Alpha  occ. eigenvalues --   -0.46294  -0.45774  -0.45571  -0.45415  -0.44911
 Alpha  occ. eigenvalues --   -0.44768  -0.44646  -0.44167  -0.43231  -0.42585
 Alpha  occ. eigenvalues --   -0.42463  -0.41719  -0.41372  -0.41269  -0.40194
 Alpha  occ. eigenvalues --   -0.40108  -0.39681  -0.39336  -0.37875  -0.36687
 Alpha  occ. eigenvalues --   -0.36215  -0.35759  -0.34483  -0.33824  -0.31010
 Alpha  occ. eigenvalues --   -0.29105  -0.27513
 Alpha virt. eigenvalues --   -0.12011  -0.09494  -0.08427  -0.08130  -0.07203
 Alpha virt. eigenvalues --   -0.06717  -0.04972  -0.04332  -0.04033  -0.02747
 Alpha virt. eigenvalues --   -0.01276  -0.00963   0.00236   0.00975   0.01265

 Mulliken charges:
               1
     1  N   -0.704388
     2  H    0.305773
     3  H    0.316639
     4  C   -0.096885
     5  H    0.163091
     6  C    0.642507
     7  C   -0.346268
     8  H    0.179914
     9  H    0.160269
    10  O   -0.530775
    11  C    0.124534
    12  C   -0.057079
    13  H    0.162382
    14  C    0.128963
    15  C    0.268174
    16  C   -0.218022
    17  H    0.136532
    18  N   -0.739185
    19  H    0.348173
    20  C   -0.147073
    21  H    0.140629
    22  C   -0.168334
    23  H    0.134558
    24  C   -0.133283
    25  H    0.137088
    26  N   -0.636620
    27  H    0.335535
    28  C   -0.058772
    29  H    0.170387
    30  C    0.642476
    31  C   -0.056100
    32  H    0.169339
    33  O   -0.584905
    34  C   -0.262435
    35  H    0.146017
    36  H    0.120316
    37  C   -0.473489
    38  H    0.141141
    39  H    0.166004
    40  H    0.139805
    41  C   -0.465212
    42  H    0.141057
    43  H    0.169942
    44  H    0.137859
    45  N   -0.582308
    46  H    0.370944
    47  C   -0.060206
    48  H    0.200279
    49  C    0.612831
    50  C   -0.275019
    51  H    0.170121
    52  H    0.172196
    53  O   -0.599674
    54  C   -0.266855
    55  H    0.152747
    56  H    0.162970
    57  C   -0.178191
    58  H    0.185014
    59  H    0.208675
    60  N   -0.599894
    61  H    0.359414
    62  N   -0.804676
    63  H    0.369886
    64  H    0.468766
    65  N   -0.764640
    66  H    0.377935
    67  H    0.377664
    68  C    0.811487
    69  O   -0.474859
    70  H    0.455116
 Sum of Mulliken charges =   1.00000

 Dipole moment (field-independent basis, Debye):
    X=             11.1598    Y=              6.9147    Z=             -7.9751  Tot=             15.3609
 Quadrupole moment (field-independent basis, Debye-Ang):
   XX=           -125.2606   YY=           -162.0276   ZZ=           -124.7446
   XY=             36.6594   XZ=            -23.3036   YZ=            -38.9549

 Normal termination of Gaussian 16 at Fri Jun  3 04:56:05 2022.
