 Gaussian 16, Revision C.01,
 Gaussian 16:  ES64L-G16RevC.01  3-Jul-2019

 ----------------------------------------------------------------------
 # B3LYP/6-31G* empiricaldispersion=gd3 guess=read geom=check nosymm in
 tegral(ultrafinegrid)
 ----------------------------------------------------------------------

 ------------------------------------------------------
 Candidate Structure: Conf:879 Charge calc in gas phase
 ------------------------------------------------------
 Structure from the checkpoint file:  "conf-879.chk"
 Charge =  1 Multiplicity = 1

                          Input orientation:
 ---------------------------------------------------------------------
 Center     Atomic      Atomic             Coordinates (Angstroms)
 Number     Number       Type             X           Y           Z
 ---------------------------------------------------------------------
      1          7           0       -0.848123   -4.905053    1.960999
      2          1           0       -1.400704   -5.564437    2.503350
      3          1           0       -1.090458   -5.010679    0.976988
      4          6           0       -1.140870   -3.534409    2.367928
      5          1           0       -2.206354   -3.362292    2.604420
      6          6           0       -0.816607   -2.628328    1.144356
      7          6           0       -0.319820   -3.205363    3.642565
      8          1           0       -0.738171   -2.331772    4.157681
      9          1           0       -0.428657   -4.040716    4.343495
     10          8           0       -0.820267   -3.113170    0.022357
     11          6           0        1.126034   -2.948248    3.324178
     12          6           0        1.862698   -3.594079    2.404307
     13          1           0        1.608944   -4.428435    1.768073
     14          6           0        1.887077   -1.790511    3.811789
     15          6           0        3.096011   -1.728439    3.112418
     16          6           0        1.599410   -0.797112    4.747769
     17          1           0        0.676324   -0.815406    5.319307
     18          7           0        3.086327   -2.811282    2.113306
     19          1           0        3.948928   -3.363556    2.077827
     20          6           0        3.727835    0.265598    4.207275
     21          1           0        4.421248    1.090426    4.322598
     22          6           0        4.033326   -0.729455    3.267437
     23          1           0        4.935322   -0.651573    2.671358
     24          6           0        2.535605    0.226130    4.937423
     25          1           0        2.326011    1.011582    5.656999
     26          7           0       -0.595493   -1.303559    1.405753
     27          1           0       -0.549970   -1.022455    2.374415
     28          6           0       -0.092626   -0.306823    0.451936
     29          1           0       -0.300317    0.666155    0.915546
     30          6           0        1.436291   -0.447002    0.310326
     31          6           0       -0.831659   -0.314010   -0.918634
     32          1           0       -0.693391   -1.305843   -1.352477
     33          8           0        1.964763   -1.562457    0.112559
     34          6           0       -0.237758    0.737490   -1.889097
     35          1           0       -1.052767    1.157898   -2.489629
     36          1           0        0.178208    1.587574   -1.329629
     37          6           0       -2.331728   -0.087702   -0.688186
     38          1           0       -2.522840    0.904461   -0.258095
     39          1           0       -2.867785   -0.146498   -1.640952
     40          1           0       -2.758183   -0.839845   -0.018884
     41          6           0        0.818033    0.156019   -2.838837
     42          1           0        1.293766    0.940974   -3.437331
     43          1           0        0.354715   -0.558026   -3.528856
     44          1           0        1.600806   -0.385508   -2.299360
     45          7           0        2.139572    0.688278    0.390758
     46          1           0        1.690189    1.565278    0.635925
     47          6           0        3.588556    0.808615    0.241739
     48          1           0        4.039980   -0.164164    0.435445
     49          6           0        4.108571    1.837160    1.271968
     50          6           0        3.942048    1.265536   -1.198106
     51          1           0        3.680819    0.451607   -1.879948
     52          1           0        3.269822    2.094957   -1.456406
     53          8           0        3.368211    2.874480    1.400855
     54          6           0        5.421767    1.682587   -1.401855
     55          1           0        5.830830    1.176759   -2.283872
     56          1           0        6.025242    1.374618   -0.541595
     57          6           0        5.617289    3.192992   -1.630343
     58          1           0        6.672111    3.400792   -1.825802
     59          1           0        5.057575    3.519397   -2.513459
     60          7           0        5.161596    4.013498   -0.497229
     61          1           0        4.215105    3.806294   -0.169744
     62          7           0        7.234023    4.783931    0.261906
     63          1           0        7.812572    5.131821    1.011875
     64          1           0        7.553349    4.973362   -0.676260
     65          7           0        5.382396    4.696662    1.685408
     66          1           0        4.562892    4.092104    1.911155
     67          1           0        5.939018    5.069027    2.441085
     68          6           0        5.936607    4.487467    0.491190
     69          8           0        5.218359    1.631038    1.792232
     70          1           0        2.887779   -2.345993    1.161416
 ---------------------------------------------------------------------

 SCF Done:  E(RB3LYP) =  -1582.21611193     A.U. after    1 cycles

 Alpha  occ. eigenvalues --  -19.22662 -19.20552 -19.18567 -19.17635 -14.56097
 Alpha  occ. eigenvalues --  -14.49131 -14.47388 -14.46526 -14.46444 -14.45667
 Alpha  occ. eigenvalues --  -14.40065 -10.44288 -10.39479 -10.37951 -10.35838
 Alpha  occ. eigenvalues --  -10.35051 -10.34002 -10.33402 -10.33303 -10.32572
 Alpha  occ. eigenvalues --  -10.32332 -10.31784 -10.31502 -10.30795 -10.30678
 Alpha  occ. eigenvalues --  -10.30484 -10.30067 -10.29780 -10.28386 -10.28289
 Alpha  occ. eigenvalues --  -10.26977 -10.25913 -10.24605 -10.24574  -1.14456
 Alpha  occ. eigenvalues --   -1.13028  -1.12684  -1.12465  -1.11248  -1.03241
 Alpha  occ. eigenvalues --   -1.02493  -1.02060  -1.01773  -1.00658  -0.98065
 Alpha  occ. eigenvalues --   -0.96976  -0.92757  -0.89767  -0.88775  -0.86097
 Alpha  occ. eigenvalues --   -0.85627  -0.84440  -0.83216  -0.81438  -0.79283
 Alpha  occ. eigenvalues --   -0.77094  -0.75244  -0.74392  -0.73747  -0.71466
 Alpha  occ. eigenvalues --   -0.70782  -0.70406  -0.69708  -0.69692  -0.68460
 Alpha  occ. eigenvalues --   -0.68166  -0.67583  -0.66360  -0.65404  -0.64851
 Alpha  occ. eigenvalues --   -0.62770  -0.61737  -0.60884  -0.60638  -0.60498
 Alpha  occ. eigenvalues --   -0.59263  -0.58572  -0.58036  -0.57798  -0.57217
 Alpha  occ. eigenvalues --   -0.56349  -0.55291  -0.55141  -0.54916  -0.54085
 Alpha  occ. eigenvalues --   -0.53628  -0.53532  -0.52917  -0.52593  -0.52117
 Alpha  occ. eigenvalues --   -0.51282  -0.51019  -0.50588  -0.50025  -0.49703
 Alpha  occ. eigenvalues --   -0.49205  -0.48881  -0.48555  -0.47750  -0.47619
 Alpha  occ. eigenvalues --   -0.47372  -0.46976  -0.46137  -0.46005  -0.45904
 Alpha  occ. eigenvalues --   -0.45127  -0.44839  -0.44499  -0.44001  -0.43734
 Alpha  occ. eigenvalues --   -0.43096  -0.41014  -0.40661  -0.40377  -0.39853
 Alpha  occ. eigenvalues --   -0.39742  -0.38018  -0.36961  -0.36791  -0.36573
 Alpha  occ. eigenvalues --   -0.34633  -0.34313  -0.33901  -0.33443  -0.33248
 Alpha  occ. eigenvalues --   -0.32420  -0.31143
 Alpha virt. eigenvalues --   -0.14695  -0.12106  -0.09421  -0.09008  -0.06969
 Alpha virt. eigenvalues --   -0.06199  -0.05280  -0.04985  -0.04355  -0.03350
 Alpha virt. eigenvalues --   -0.01368  -0.01028  -0.00262   0.00497   0.01429

 Mulliken charges:
               1
     1  N   -0.738719
     2  H    0.313821
     3  H    0.343363
     4  C   -0.076749
     5  H    0.166520
     6  C    0.635272
     7  C   -0.363603
     8  H    0.152497
     9  H    0.197760
    10  O   -0.508104
    11  C    0.139505
    12  C   -0.068050
    13  H    0.236669
    14  C    0.132352
    15  C    0.177475
    16  C   -0.219809
    17  H    0.162001
    18  N   -0.748704
    19  H    0.401433
    20  C   -0.133637
    21  H    0.182547
    22  C   -0.167756
    23  H    0.192067
    24  C   -0.119315
    25  H    0.165610
    26  N   -0.619969
    27  H    0.332695
    28  C   -0.049777
    29  H    0.146113
    30  C    0.652363
    31  C   -0.082313
    32  H    0.200855
    33  O   -0.607589
    34  C   -0.279902
    35  H    0.157320
    36  H    0.118648
    37  C   -0.459607
    38  H    0.139698
    39  H    0.164464
    40  H    0.157169
    41  C   -0.465353
    42  H    0.142904
    43  H    0.163401
    44  H    0.161681
    45  N   -0.571882
    46  H    0.356333
    47  C   -0.032434
    48  H    0.140294
    49  C    0.609625
    50  C   -0.294571
    51  H    0.176745
    52  H    0.147765
    53  O   -0.643233
    54  C   -0.284187
    55  H    0.162091
    56  H    0.188872
    57  C   -0.168727
    58  H    0.157458
    59  H    0.183544
    60  N   -0.598046
    61  H    0.379184
    62  N   -0.756773
    63  H    0.370063
    64  H    0.373953
    65  N   -0.752954
    66  H    0.412448
    67  H    0.349556
    68  C    0.787485
    69  O   -0.582473
    70  H    0.462614
 Sum of Mulliken charges =   1.00000

 Dipole moment (field-independent basis, Debye):
    X=             17.5076    Y=              3.9476    Z=              7.8357  Tot=             19.5831
 Quadrupole moment (field-independent basis, Debye-Ang):
   XX=            -69.8513   YY=           -122.4088   ZZ=           -156.4821
   XY=             64.9369   XZ=              2.9881   YZ=            -20.0421

 Normal termination of Gaussian 16 at Fri Jun  3 05:11:14 2022.
