 Gaussian 16, Revision C.01,
 Gaussian 16:  ES64L-G16RevC.01  3-Jul-2019

 ----------------------------------------------------------------------
 # B3LYP/6-31G* empiricaldispersion=gd3 guess=read geom=check nosymm in
 tegral(ultrafinegrid)
 ----------------------------------------------------------------------

 -----------------------------------------------------
 Candidate Structure: Conf:34 Charge calc in gas phase
 -----------------------------------------------------
 Structure from the checkpoint file:  "conf-34.chk"
 Charge =  1 Multiplicity = 1

                          Input orientation:
 ---------------------------------------------------------------------
 Center     Atomic      Atomic             Coordinates (Angstroms)
 Number     Number       Type             X           Y           Z
 ---------------------------------------------------------------------
      1          7           0       -0.603825   -4.147151    2.153920
      2          1           0       -1.540773   -4.404806    1.843769
      3          1           0        0.029541   -4.495014    1.429876
      4          6           0       -0.471247   -2.687611    2.157856
      5          1           0       -1.323715   -2.259650    2.699765
      6          6           0       -0.372381   -2.117489    0.729599
      7          6           0        0.852623   -2.267301    2.850065
      8          1           0        1.626603   -2.977452    2.534490
      9          1           0        1.148398   -1.275952    2.495861
     10          8           0        0.395492   -2.637833   -0.073420
     11          6           0        0.808304   -2.191393    4.346071
     12          6           0        1.034074   -1.042501    5.004237
     13          1           0        1.234436   -0.036801    4.615549
     14          6           0        0.580713   -3.276691    5.319677
     15          6           0        0.697466   -2.751347    6.608835
     16          6           0        0.296630   -4.636043    5.180123
     17          1           0        0.156612   -5.048692    4.186182
     18          7           0        0.989550   -1.299840    6.481498
     19          1           0        1.887013   -1.048306    6.915534
     20          6           0        0.282329   -4.841780    7.617568
     21          1           0        0.163896   -5.464350    8.498527
     22          6           0        0.560264   -3.476753    7.775139
     23          1           0        0.659577   -3.028671    8.759417
     24          6           0        0.151860   -5.403033    6.341556
     25          1           0       -0.071482   -6.461803    6.251485
     26          7           0       -1.114149   -1.012339    0.454418
     27          1           0       -1.722498   -0.652580    1.175773
     28          6           0       -0.918642   -0.202184   -0.760349
     29          1           0       -1.636402    0.623002   -0.665436
     30          6           0        0.508313    0.424885   -0.728275
     31          6           0       -1.201545   -0.939155   -2.089137
     32          1           0       -0.308134   -1.522945   -2.327632
     33          8           0        1.277084    0.377466   -1.683601
     34          6           0       -1.420471    0.104265   -3.207120
     35          1           0       -2.402630    0.580766   -3.062607
     36          1           0       -0.665781    0.891380   -3.111985
     37          6           0       -2.400468   -1.887411   -1.961960
     38          1           0       -3.297333   -1.354163   -1.619061
     39          1           0       -2.635683   -2.342282   -2.928760
     40          1           0       -2.195941   -2.700869   -1.260528
     41          6           0       -1.329228   -0.480427   -4.620299
     42          1           0       -1.467232    0.301070   -5.376025
     43          1           0       -2.089170   -1.248342   -4.801624
     44          1           0       -0.345622   -0.936007   -4.783762
     45          7           0        0.798234    1.063958    0.436752
     46          1           0        0.233179    0.873882    1.263085
     47          6           0        2.154422    1.401178    0.840934
     48          1           0        2.836819    0.615562    0.485628
     49          6           0        2.214704    1.429071    2.415495
     50          6           0        2.665983    2.745284    0.321619
     51          1           0        2.006334    3.536031    0.717712
     52          1           0        3.643012    2.839811    0.806772
     53          8           0        3.231004    1.931501    2.922939
     54          6           0        2.803422    2.920416   -1.189398
     55          1           0        1.824697    2.881807   -1.676607
     56          1           0        3.377005    2.093669   -1.622965
     57          6           0        3.457722    4.261048   -1.539001
     58          1           0        3.467255    4.430969   -2.619813
     59          1           0        2.923882    5.100845   -1.082406
     60          7           0        4.872240    4.354225   -1.103502
     61          1           0        5.547213    3.870297   -1.682790
     62          7           0        4.526531    5.291528    1.005231
     63          1           0        4.895161    5.838787    1.770645
     64          1           0        3.697314    4.741151    1.202625
     65          7           0        6.662705    5.176943    0.112973
     66          1           0        7.269885    5.140500   -0.693422
     67          1           0        7.100761    5.273750    1.017980
     68          6           0        5.343302    4.918366    0.007185
     69          8           0        1.196476    0.931428    2.997633
     70          1           0        0.271244   -0.721212    6.935262
 ---------------------------------------------------------------------

 SCF Done:  E(RB3LYP) =  -1582.16208158     A.U. after    2 cycles

 Alpha  occ. eigenvalues --  -19.18014 -19.16503 -19.13752 -19.12533 -14.58551
 Alpha  occ. eigenvalues --  -14.51763 -14.51580 -14.50780 -14.43123 -14.39596
 Alpha  occ. eigenvalues --  -14.39457 -10.47759 -10.35116 -10.34897 -10.33885
 Alpha  occ. eigenvalues --  -10.33442 -10.32359 -10.31344 -10.31324 -10.31296
 Alpha  occ. eigenvalues --  -10.31034 -10.30393 -10.29850 -10.29293 -10.29074
 Alpha  occ. eigenvalues --  -10.28838 -10.27026 -10.26967 -10.26668 -10.25650
 Alpha  occ. eigenvalues --  -10.23187 -10.22085 -10.21825 -10.21218  -1.16080
 Alpha  occ. eigenvalues --   -1.13888  -1.10135  -1.08164  -1.06301  -1.05309
 Alpha  occ. eigenvalues --   -1.04203  -0.99315  -0.98057  -0.97093  -0.96367
 Alpha  occ. eigenvalues --   -0.95920  -0.92098  -0.88751  -0.85717  -0.85646
 Alpha  occ. eigenvalues --   -0.84613  -0.82729  -0.81780  -0.78998  -0.78066
 Alpha  occ. eigenvalues --   -0.75741  -0.74282  -0.73586  -0.73465  -0.72113
 Alpha  occ. eigenvalues --   -0.71160  -0.70977  -0.70024  -0.67955  -0.67313
 Alpha  occ. eigenvalues --   -0.66226  -0.65320  -0.64905  -0.64526  -0.64493
 Alpha  occ. eigenvalues --   -0.62183  -0.60507  -0.59930  -0.59648  -0.58960
 Alpha  occ. eigenvalues --   -0.58522  -0.57611  -0.56832  -0.56469  -0.55685
 Alpha  occ. eigenvalues --   -0.54383  -0.53919  -0.53529  -0.53386  -0.52673
 Alpha  occ. eigenvalues --   -0.51749  -0.50990  -0.50735  -0.50116  -0.49258
 Alpha  occ. eigenvalues --   -0.48842  -0.48478  -0.48189  -0.47542  -0.47408
 Alpha  occ. eigenvalues --   -0.47068  -0.46105  -0.45874  -0.45187  -0.44703
 Alpha  occ. eigenvalues --   -0.44427  -0.43847  -0.43685  -0.43305  -0.43112
 Alpha  occ. eigenvalues --   -0.42240  -0.42063  -0.41805  -0.41549  -0.41037
 Alpha  occ. eigenvalues --   -0.39919  -0.39839  -0.39606  -0.39263  -0.37748
 Alpha  occ. eigenvalues --   -0.36783  -0.36366  -0.36328  -0.33891  -0.33647
 Alpha  occ. eigenvalues --   -0.33242  -0.30495  -0.30446  -0.29440  -0.28775
 Alpha  occ. eigenvalues --   -0.28503  -0.26634
 Alpha virt. eigenvalues --   -0.13867  -0.12345  -0.11607  -0.07758  -0.07663
 Alpha virt. eigenvalues --   -0.06300  -0.04139  -0.03610  -0.03411  -0.02858
 Alpha virt. eigenvalues --   -0.01350  -0.01189  -0.00852  -0.00023   0.01088

 Mulliken charges:
               1
     1  N   -0.714660
     2  H    0.313449
     3  H    0.327554
     4  C   -0.081190
     5  H    0.135694
     6  C    0.624821
     7  C   -0.366203
     8  H    0.181033
     9  H    0.217882
    10  O   -0.527228
    11  C    0.134852
    12  C   -0.117805
    13  H    0.277714
    14  C    0.138750
    15  C    0.157026
    16  C   -0.185397
    17  H    0.212709
    18  N   -0.731325
    19  H    0.420569
    20  C   -0.140061
    21  H    0.170356
    22  C   -0.158993
    23  H    0.164973
    24  C   -0.124058
    25  H    0.169526
    26  N   -0.625401
    27  H    0.330199
    28  C   -0.053660
    29  H    0.153404
    30  C    0.624091
    31  C   -0.060317
    32  H    0.176424
    33  O   -0.533382
    34  C   -0.262807
    35  H    0.117600
    36  H    0.146542
    37  C   -0.456631
    38  H    0.126228
    39  H    0.155881
    40  H    0.143953
    41  C   -0.450892
    42  H    0.142271
    43  H    0.146319
    44  H    0.155139
    45  N   -0.611326
    46  H    0.334509
    47  C   -0.055654
    48  H    0.159949
    49  C    0.588537
    50  C   -0.296346
    51  H    0.127326
    52  H    0.146741
    53  O   -0.587068
    54  C   -0.245522
    55  H    0.184544
    56  H    0.167313
    57  C   -0.186563
    58  H    0.190624
    59  H    0.182961
    60  N   -0.575234
    61  H    0.364111
    62  N   -0.740852
    63  H    0.375663
    64  H    0.405540
    65  N   -0.760291
    66  H    0.379936
    67  H    0.382472
    68  C    0.797143
    69  O   -0.620801
    70  H    0.417341
 Sum of Mulliken charges =   1.00000

 Dipole moment (field-independent basis, Debye):
    X=             14.9528    Y=              9.2663    Z=             16.6398  Tot=             24.2143
 Quadrupole moment (field-independent basis, Debye-Ang):
   XX=            -80.0310   YY=            -86.7274   ZZ=            -60.8878
   XY=             96.9808   XZ=              0.7545   YZ=            -51.6847

 Normal termination of Gaussian 16 at Fri Jun  3 04:56:14 2022.
