 Gaussian 16, Revision C.01,
 Gaussian 16:  ES64L-G16RevC.01  3-Jul-2019

 ----------------------------------------------------------------------
 # B3LYP/6-31G* empiricaldispersion=gd3 guess=read geom=check nosymm in
 tegral(ultrafinegrid)
 ----------------------------------------------------------------------

 ------------------------------------------------------
 Candidate Structure: Conf:883 Charge calc in gas phase
 ------------------------------------------------------
 Structure from the checkpoint file:  "conf-883.chk"
 Charge =  1 Multiplicity = 1

                          Input orientation:
 ---------------------------------------------------------------------
 Center     Atomic      Atomic             Coordinates (Angstroms)
 Number     Number       Type             X           Y           Z
 ---------------------------------------------------------------------
      1          7           0       -1.331951   -4.111742    1.755325
      2          1           0       -2.241197   -4.280570    1.325402
      3          1           0       -0.646629   -4.525396    1.117961
      4          6           0       -1.060836   -2.673293    1.779716
      5          1           0       -1.937736   -2.153662    2.185559
      6          6           0       -0.680057   -2.139067    0.385367
      7          6           0        0.183220   -2.371008    2.660429
      8          1           0        0.935428   -3.135228    2.429507
      9          1           0        0.607035   -1.404628    2.372702
     10          8           0        0.122749   -2.767749   -0.295576
     11          6           0       -0.051001   -2.322675    4.139292
     12          6           0        0.201991   -1.220071    4.864501
     13          1           0        0.570636   -0.238256    4.564040
     14          6           0       -0.506687   -3.402486    5.037348
     15          6           0       -0.503806   -2.922476    6.348836
     16          6           0       -0.898045   -4.723986    4.816421
     17          1           0       -0.949130   -5.096548    3.798468
     18          7           0       -0.054239   -1.505776    6.313626
     19          1           0        0.801428   -1.365482    6.866245
     20          6           0       -1.241612   -4.982531    7.224518
     21          1           0       -1.529234   -5.610317    8.061638
     22          6           0       -0.856510   -3.655893    7.463504
     23          1           0       -0.839120   -3.243124    8.467830
     24          6           0       -1.261276   -5.498963    5.923473
     25          1           0       -1.569977   -6.528339    5.769107
     26          7           0       -1.195920   -0.937756    0.018660
     27          1           0       -1.877575   -0.500218    0.621691
     28          6           0       -0.642572   -0.150887   -1.100364
     29          1           0       -1.161776    0.813589   -1.038417
     30          6           0        0.864443    0.117920   -0.797967
     31          6           0       -0.865463   -0.742617   -2.514822
     32          1           0        0.031524   -1.317608   -2.762562
     33          8           0        1.764980   -0.136455   -1.584404
     34          6           0       -1.035406    0.387417   -3.556413
     35          1           0       -1.153354   -0.086762   -4.539239
     36          1           0       -1.987889    0.903731   -3.356073
     37          6           0       -2.081436   -1.677041   -2.572872
     38          1           0       -2.997237   -1.173172   -2.237124
     39          1           0       -2.246093   -2.007054   -3.604342
     40          1           0       -1.930971   -2.569428   -1.960416
     41          6           0        0.093828    1.421139   -3.644474
     42          1           0       -0.098112    2.120830   -4.465892
     43          1           0        1.059806    0.937799   -3.810775
     44          1           0        0.184111    2.014080   -2.725893
     45          7           0        1.073589    0.691244    0.421108
     46          1           0        0.323273    0.713956    1.102633
     47          6           0        2.391604    0.798758    1.035987
     48          1           0        2.899338   -0.174345    0.960161
     49          6           0        2.174453    1.109424    2.544774
     50          6           0        3.277611    1.844028    0.330981
     51          1           0        4.315607    1.663812    0.631407
     52          1           0        3.221397    1.644085   -0.740872
     53          8           0        3.168692    1.585316    3.169370
     54          6           0        2.879516    3.303137    0.655015
     55          1           0        1.918785    3.318814    1.184973
     56          1           0        2.728765    3.885932   -0.261181
     57          6           0        3.945900    3.985768    1.528557
     58          1           0        4.335779    3.274099    2.255078
     59          1           0        4.786760    4.335062    0.921370
     60          7           0        3.440868    5.152788    2.269921
     61          1           0        3.234706    5.983890    1.730167
     62          7           0        2.830535    4.000446    4.211617
     63          1           0        2.617159    4.069884    5.196436
     64          1           0        2.933100    3.013937    3.816365
     65          7           0        2.536362    6.306936    4.050570
     66          1           0        2.976975    7.163845    3.745990
     67          1           0        2.154183    6.323652    4.984698
     68          6           0        2.943865    5.122030    3.513626
     69          8           0        1.031482    0.887118    3.024873
     70          1           0       -0.764004   -0.870395    6.699947
 ---------------------------------------------------------------------

 SCF Done:  E(RB3LYP) =  -1582.18356938     A.U. after    3 cycles

 Alpha  occ. eigenvalues --  -19.18958 -19.17300 -19.16878 -19.16877 -14.60279
 Alpha  occ. eigenvalues --  -14.49341 -14.48920 -14.47043 -14.43985 -14.40652
 Alpha  occ. eigenvalues --  -14.40463 -10.45004 -10.36537 -10.35797 -10.34940
 Alpha  occ. eigenvalues --  -10.34410 -10.33928 -10.33265 -10.32596 -10.32428
 Alpha  occ. eigenvalues --  -10.31680 -10.31313 -10.31090 -10.30460 -10.30054
 Alpha  occ. eigenvalues --  -10.29670 -10.28823 -10.28262 -10.26343 -10.24418
 Alpha  occ. eigenvalues --  -10.23621 -10.22723 -10.22103 -10.21382  -1.15591
 Alpha  occ. eigenvalues --   -1.13363  -1.11140  -1.10385  -1.08600  -1.02835
 Alpha  occ. eigenvalues --   -1.01936  -1.00759  -1.00106  -0.98426  -0.97557
 Alpha  occ. eigenvalues --   -0.97040  -0.93693  -0.87073  -0.86964  -0.86362
 Alpha  occ. eigenvalues --   -0.85786  -0.83279  -0.81807  -0.78829  -0.76795
 Alpha  occ. eigenvalues --   -0.75893  -0.74993  -0.73808  -0.72844  -0.72712
 Alpha  occ. eigenvalues --   -0.72487  -0.70579  -0.68379  -0.68214  -0.67273
 Alpha  occ. eigenvalues --   -0.67088  -0.66327  -0.65941  -0.63106  -0.62149
 Alpha  occ. eigenvalues --   -0.61632  -0.61421  -0.61041  -0.60759  -0.59693
 Alpha  occ. eigenvalues --   -0.59021  -0.57864  -0.57053  -0.56636  -0.55204
 Alpha  occ. eigenvalues --   -0.55110  -0.55041  -0.54706  -0.54029  -0.53294
 Alpha  occ. eigenvalues --   -0.52572  -0.52298  -0.51013  -0.50427  -0.49918
 Alpha  occ. eigenvalues --   -0.49891  -0.48988  -0.48528  -0.48199  -0.47899
 Alpha  occ. eigenvalues --   -0.47550  -0.46709  -0.46563  -0.45945  -0.45778
 Alpha  occ. eigenvalues --   -0.45549  -0.45427  -0.44916  -0.44747  -0.44461
 Alpha  occ. eigenvalues --   -0.43746  -0.42150  -0.41695  -0.41179  -0.41070
 Alpha  occ. eigenvalues --   -0.40293  -0.39790  -0.39716  -0.38153  -0.37572
 Alpha  occ. eigenvalues --   -0.37213  -0.36931  -0.36478  -0.35204  -0.34440
 Alpha  occ. eigenvalues --   -0.34141  -0.33271  -0.31795  -0.31555  -0.31312
 Alpha  occ. eigenvalues --   -0.30515  -0.29537
 Alpha virt. eigenvalues --   -0.15446  -0.12882  -0.09487  -0.09272  -0.07757
 Alpha virt. eigenvalues --   -0.06205  -0.05178  -0.04166  -0.03080  -0.03011
 Alpha virt. eigenvalues --   -0.02146  -0.01847  -0.01180  -0.00941   0.01384

 Mulliken charges:
               1
     1  N   -0.717142
     2  H    0.317094
     3  H    0.331742
     4  C   -0.080660
     5  H    0.135779
     6  C    0.623108
     7  C   -0.373217
     8  H    0.192280
     9  H    0.208613
    10  O   -0.521021
    11  C    0.149662
    12  C   -0.124726
    13  H    0.263458
    14  C    0.137912
    15  C    0.154741
    16  C   -0.181070
    17  H    0.218102
    18  N   -0.729540
    19  H    0.420586
    20  C   -0.138262
    21  H    0.175178
    22  C   -0.158654
    23  H    0.167139
    24  C   -0.123573
    25  H    0.174657
    26  N   -0.622692
    27  H    0.326591
    28  C   -0.048607
    29  H    0.152611
    30  C    0.635946
    31  C   -0.073110
    32  H    0.182338
    33  O   -0.513068
    34  C   -0.261761
    35  H    0.143892
    36  H    0.119295
    37  C   -0.453840
    38  H    0.123216
    39  H    0.152980
    40  H    0.151821
    41  C   -0.451920
    42  H    0.140871
    43  H    0.179363
    44  H    0.124797
    45  N   -0.621280
    46  H    0.328412
    47  C   -0.049670
    48  H    0.173265
    49  C    0.592127
    50  C   -0.267487
    51  H    0.151387
    52  H    0.190715
    53  O   -0.615437
    54  C   -0.271550
    55  H    0.147445
    56  H    0.148141
    57  C   -0.185874
    58  H    0.217698
    59  H    0.177361
    60  N   -0.594402
    61  H    0.352574
    62  N   -0.787113
    63  H    0.344837
    64  H    0.453079
    65  N   -0.765560
    66  H    0.368421
    67  H    0.363167
    68  C    0.790442
    69  O   -0.588314
    70  H    0.416706
 Sum of Mulliken charges =   1.00000

 Dipole moment (field-independent basis, Debye):
    X=              0.6843    Y=              8.0177    Z=             28.3881  Tot=             29.5065
 Quadrupole moment (field-independent basis, Debye-Ang):
   XX=           -177.9232   YY=            -69.5074   ZZ=            -21.8011
   XY=             57.4789   XZ=             11.9532   YZ=              3.2774

 Normal termination of Gaussian 16 at Fri Jun  3 05:11:22 2022.
