 Gaussian 16, Revision C.01,
 Gaussian 16:  ES64L-G16RevC.01  3-Jul-2019

 ----------------------------------------------------------------------
 # B3LYP/6-31G* empiricaldispersion=gd3 guess=read geom=check nosymm in
 tegral(ultrafinegrid)
 ----------------------------------------------------------------------

 ------------------------------------------------------
 Candidate Structure: Conf:304 Charge calc in gas phase
 ------------------------------------------------------
 Structure from the checkpoint file:  "conf-304.chk"
 Charge =  1 Multiplicity = 1

                          Input orientation:
 ---------------------------------------------------------------------
 Center     Atomic      Atomic             Coordinates (Angstroms)
 Number     Number       Type             X           Y           Z
 ---------------------------------------------------------------------
      1          7           0        0.036394   -2.078261    2.777838
      2          1           0       -0.605262   -2.831221    2.544322
      3          1           0        0.230879   -2.110061    3.773762
      4          6           0        1.267172   -2.099283    1.993901
      5          1           0        2.001402   -1.472138    2.526356
      6          6           0        1.099303   -1.350842    0.667799
      7          6           0        1.926865   -3.484898    1.732814
      8          1           0        2.900098   -3.307083    1.271031
      9          1           0        2.090951   -3.986623    2.691523
     10          8           0        1.866192   -1.520274   -0.284957
     11          6           0        1.091437   -4.338244    0.830734
     12          6           0        1.121099   -4.311256   -0.512201
     13          1           0        1.699522   -3.715910   -1.201607
     14          6           0        0.018447   -5.250633    1.260247
     15          6           0       -0.622193   -5.768777    0.133066
     16          6           0       -0.429997   -5.644937    2.520737
     17          1           0        0.042531   -5.264953    3.420450
     18          7           0        0.039234   -5.187171   -1.064613
     19          1           0       -0.618120   -4.623540   -1.622610
     20          6           0       -2.115859   -7.042657    1.439844
     21          1           0       -2.942963   -7.739295    1.527387
     22          6           0       -1.678093   -6.656212    0.164249
     23          1           0       -2.151625   -7.038537   -0.734958
     24          6           0       -1.500829   -6.543085    2.593957
     25          1           0       -1.861382   -6.862350    3.566673
     26          7           0        0.084629   -0.453280    0.638744
     27          1           0       -0.432384   -0.359541    1.507051
     28          6           0       -0.003021    0.553131   -0.415549
     29          1           0       -0.761609    1.266015   -0.072915
     30          6           0        1.342630    1.328126   -0.519884
     31          6           0       -0.433363   -0.004417   -1.805751
     32          1           0        0.487698   -0.227976   -2.350500
     33          8           0        1.747614    1.779611   -1.617519
     34          6           0       -1.199115    1.070880   -2.612501
     35          1           0       -0.612016    1.995768   -2.592061
     36          1           0       -1.231847    0.751835   -3.662822
     37          6           0       -1.239689   -1.307327   -1.695794
     38          1           0       -2.102690   -1.210919   -1.028778
     39          1           0       -1.609447   -1.598906   -2.686956
     40          1           0       -0.605212   -2.111737   -1.306197
     41          6           0       -2.628743    1.366382   -2.139721
     42          1           0       -3.066776    2.182137   -2.724922
     43          1           0       -2.664396    1.668769   -1.085811
     44          1           0       -3.282921    0.495610   -2.253814
     45          7           0        1.999094    1.504786    0.624411
     46          1           0        1.655585    1.041156    1.487336
     47          6           0        3.464458    1.521712    0.795893
     48          1           0        3.890165    0.811494    0.077263
     49          6           0        3.703353    0.887450    2.239087
     50          6           0        4.188885    2.867866    0.633997
     51          1           0        5.126894    2.742347    1.182095
     52          1           0        4.463824    3.021371   -0.418381
     53          8           0        4.863082    0.923126    2.653087
     54          6           0        3.408417    4.095331    1.161054
     55          1           0        3.986797    4.632151    1.919157
     56          1           0        2.477995    3.775871    1.643291
     57          6           0        3.067163    5.099696    0.052946
     58          1           0        2.435141    5.904699    0.450182
     59          1           0        3.987091    5.547292   -0.349231
     60          7           0        2.353373    4.414326   -1.033101
     61          1           0        2.352371    3.384164   -1.053931
     62          7           0        1.790120    6.313626   -2.264782
     63          1           0        1.628784    6.710531   -3.179027
     64          1           0        2.276842    6.904315   -1.606698
     65          7           0        1.371507    4.175084   -3.099964
     66          1           0        1.332357    3.172461   -2.903205
     67          1           0        0.740474    4.548824   -3.793198
     68          6           0        1.847442    4.970362   -2.120366
     69          8           0        2.652493    0.391897    2.768542
     70          1           0        0.416323   -5.914402   -1.686763
 ---------------------------------------------------------------------

 SCF Done:  E(RB3LYP) =  -1582.16362282     A.U. after    3 cycles

 Alpha  occ. eigenvalues --  -19.20394 -19.19543 -19.11560 -19.10107 -14.61807
 Alpha  occ. eigenvalues --  -14.49132 -14.47433 -14.46959 -14.43482 -14.41284
 Alpha  occ. eigenvalues --  -14.40638 -10.44336 -10.38440 -10.36516 -10.36483
 Alpha  occ. eigenvalues --  -10.36186 -10.34736 -10.34518 -10.34492 -10.33057
 Alpha  occ. eigenvalues --  -10.32957 -10.32671 -10.32164 -10.31607 -10.30257
 Alpha  occ. eigenvalues --  -10.29502 -10.29031 -10.27217 -10.26626 -10.26276
 Alpha  occ. eigenvalues --  -10.26103 -10.25794 -10.25415 -10.23512  -1.17179
 Alpha  occ. eigenvalues --   -1.13131  -1.11699  -1.10715  -1.04315  -1.02182
 Alpha  occ. eigenvalues --   -1.01246  -1.00883  -1.00300  -0.98242  -0.97457
 Alpha  occ. eigenvalues --   -0.95366  -0.95123  -0.89132  -0.88960  -0.87653
 Alpha  occ. eigenvalues --   -0.86805  -0.84271  -0.82028  -0.80623  -0.79080
 Alpha  occ. eigenvalues --   -0.77150  -0.75713  -0.75226  -0.74176  -0.74152
 Alpha  occ. eigenvalues --   -0.73186  -0.71846  -0.69927  -0.69675  -0.68508
 Alpha  occ. eigenvalues --   -0.68008  -0.66181  -0.65715  -0.63239  -0.62942
 Alpha  occ. eigenvalues --   -0.62125  -0.61491  -0.61395  -0.61076  -0.60473
 Alpha  occ. eigenvalues --   -0.59282  -0.59033  -0.57843  -0.57690  -0.57014
 Alpha  occ. eigenvalues --   -0.56608  -0.56325  -0.54723  -0.54269  -0.53650
 Alpha  occ. eigenvalues --   -0.53270  -0.52836  -0.52473  -0.52297  -0.51346
 Alpha  occ. eigenvalues --   -0.50722  -0.50263  -0.50051  -0.49544  -0.49215
 Alpha  occ. eigenvalues --   -0.48952  -0.48611  -0.48180  -0.47334  -0.46715
 Alpha  occ. eigenvalues --   -0.46392  -0.45589  -0.44890  -0.44584  -0.43879
 Alpha  occ. eigenvalues --   -0.43418  -0.43002  -0.42260  -0.41213  -0.40833
 Alpha  occ. eigenvalues --   -0.40733  -0.40233  -0.39980  -0.39747  -0.39676
 Alpha  occ. eigenvalues --   -0.39386  -0.37937  -0.37121  -0.36575  -0.35857
 Alpha  occ. eigenvalues --   -0.35081  -0.32637  -0.32435  -0.31708  -0.26540
 Alpha  occ. eigenvalues --   -0.26385  -0.24272
 Alpha virt. eigenvalues --   -0.17398  -0.15044  -0.10815  -0.09165  -0.08645
 Alpha virt. eigenvalues --   -0.07132  -0.05825  -0.04880  -0.04631  -0.03884
 Alpha virt. eigenvalues --   -0.01251  -0.01123  -0.00159   0.00562   0.00976

 Mulliken charges:
               1
     1  N   -0.753532
     2  H    0.299591
     3  H    0.334270
     4  C   -0.109564
     5  H    0.277639
     6  C    0.634272
     7  C   -0.359259
     8  H    0.210812
     9  H    0.168272
    10  O   -0.572500
    11  C    0.156078
    12  C   -0.090635
    13  H    0.250680
    14  C    0.140776
    15  C    0.163924
    16  C   -0.208606
    17  H    0.180919
    18  N   -0.734667
    19  H    0.426723
    20  C   -0.139578
    21  H    0.185040
    22  C   -0.150227
    23  H    0.179069
    24  C   -0.113755
    25  H    0.184402
    26  N   -0.621491
    27  H    0.365576
    28  C   -0.030195
    29  H    0.164471
    30  C    0.621840
    31  C   -0.056376
    32  H    0.166339
    33  O   -0.612777
    34  C   -0.271698
    35  H    0.122782
    36  H    0.138635
    37  C   -0.468790
    38  H    0.153115
    39  H    0.140055
    40  H    0.115869
    41  C   -0.455527
    42  H    0.153727
    43  H    0.145394
    44  H    0.152998
    45  N   -0.611464
    46  H    0.366975
    47  C   -0.072959
    48  H    0.171236
    49  C    0.584315
    50  C   -0.313596
    51  H    0.205757
    52  H    0.126740
    53  O   -0.544755
    54  C   -0.283657
    55  H    0.173888
    56  H    0.172870
    57  C   -0.166129
    58  H    0.163515
    59  H    0.173567
    60  N   -0.632299
    61  H    0.436053
    62  N   -0.761409
    63  H    0.370203
    64  H    0.381053
    65  N   -0.795114
    66  H    0.430641
    67  H    0.357194
    68  C    0.786134
    69  O   -0.626981
    70  H    0.424131
 Sum of Mulliken charges =   1.00000

 Dipole moment (field-independent basis, Debye):
    X=             -6.5338    Y=             -7.5970    Z=            -10.2446  Tot=             14.3303
 Quadrupole moment (field-independent basis, Debye-Ang):
   XX=           -220.1045   YY=             27.8647   ZZ=           -173.8717
   XY=             41.4124   XZ=            -30.4712   YZ=            -39.5145

 Normal termination of Gaussian 16 at Fri Jun  3 04:56:33 2022.
