 Gaussian 16, Revision C.01,
 Gaussian 16:  ES64L-G16RevC.01  3-Jul-2019

 ----------------------------------------------------------------------
 # B3LYP/6-31G* empiricaldispersion=gd3 guess=read geom=check nosymm in
 tegral(ultrafinegrid)
 ----------------------------------------------------------------------

 ------------------------------------------------------
 Candidate Structure: Conf:156 Charge calc in gas phase
 ------------------------------------------------------
 Structure from the checkpoint file:  "conf-156.chk"
 Charge =  1 Multiplicity = 1

                          Input orientation:
 ---------------------------------------------------------------------
 Center     Atomic      Atomic             Coordinates (Angstroms)
 Number     Number       Type             X           Y           Z
 ---------------------------------------------------------------------
      1          7           0       -1.274443   -3.929428    1.602724
      2          1           0       -2.113285   -4.101667    1.048069
      3          1           0       -0.499119   -4.277558    1.033547
      4          6           0       -1.078441   -2.481750    1.747241
      5          1           0       -1.997985   -2.051471    2.164538
      6          6           0       -0.699503   -1.821729    0.407710
      7          6           0        0.097593   -2.186053    2.699530
      8          1           0        1.006542   -2.612314    2.251043
      9          1           0        0.284332   -1.107725    2.741448
     10          8           0        0.196479   -2.316922   -0.268998
     11          6           0       -0.040911   -2.718884    4.091127
     12          6           0       -0.695573   -3.825374    4.481190
     13          1           0       -1.249310   -4.559297    3.915479
     14          6           0        0.581514   -2.087405    5.271292
     15          6           0        0.288458   -2.852080    6.400946
     16          6           0        1.350389   -0.930722    5.417422
     17          1           0        1.581633   -0.292724    4.562515
     18          7           0       -0.545608   -4.003129    5.963880
     19          1           0       -1.459730   -4.009310    6.434772
     20          6           0        1.481431   -1.400758    7.819452
     21          1           0        1.840732   -1.117904    8.803714
     22          6           0        0.704768   -2.560612    7.683673
     23          1           0        0.454710   -3.180038    8.539776
     24          6           0        1.790800   -0.609040    6.707132
     25          1           0        2.388497    0.286336    6.848076
     26          7           0       -1.333883   -0.667020    0.079894
     27          1           0       -2.141103   -0.381423    0.615276
     28          6           0       -0.963458    0.108950   -1.114965
     29          1           0       -1.546566    1.036466   -1.044975
     30          6           0        0.539173    0.500254   -1.013522
     31          6           0       -1.290969   -0.577264   -2.464252
     32          1           0       -0.468242   -1.265949   -2.680220
     33          8           0        1.294991    0.490366   -1.978469
     34          6           0       -1.342907    0.490845   -3.579106
     35          1           0       -2.261705    1.085626   -3.457276
     36          1           0       -0.498193    1.173857   -3.452888
     37          6           0       -2.601834   -1.370913   -2.387214
     38          1           0       -3.440662   -0.728852   -2.085157
     39          1           0       -2.850375   -1.798709   -3.362642
     40          1           0       -2.534742   -2.201073   -1.676895
     41          6           0       -1.284824   -0.092880   -4.994397
     42          1           0       -1.297705    0.705583   -5.744425
     43          1           0       -2.130992   -0.755522   -5.207709
     44          1           0       -0.362339   -0.668273   -5.134346
     45          7           0        0.931583    0.898128    0.223563
     46          1           0        0.328970    0.775021    1.028394
     47          6           0        2.335412    1.055203    0.559128
     48          1           0        2.889498    0.224761    0.101340
     49          6           0        2.472683    0.905192    2.100807
     50          6           0        2.903536    2.387348   -0.024209
     51          1           0        2.241996    2.650027   -0.850838
     52          1           0        2.807928    3.188676    0.720432
     53          8           0        1.432883    0.730132    2.774144
     54          6           0        4.352126    2.323368   -0.577787
     55          1           0        4.374219    2.690857   -1.608809
     56          1           0        4.694465    1.282317   -0.626476
     57          6           0        5.377778    3.138119    0.219935
     58          1           0        6.374535    3.038908   -0.228534
     59          1           0        5.106762    4.202869    0.212641
     60          7           0        5.388143    2.648057    1.599987
     61          1           0        4.798034    1.799775    1.794470
     62          7           0        6.376824    4.483876    2.655710
     63          1           0        6.296410    5.174713    3.386876
     64          1           0        6.824514    4.767981    1.797430
     65          7           0        5.077906    2.964731    3.854631
     66          1           0        4.450611    2.150422    3.803820
     67          1           0        5.533577    3.191055    4.726580
     68          6           0        5.619117    3.364821    2.687162
     69          8           0        3.656788    0.947151    2.570732
     70          1           0       -0.095497   -4.901949    6.180854
 ---------------------------------------------------------------------

 SCF Done:  E(RB3LYP) =  -1582.19689578     A.U. after    2 cycles

 Alpha  occ. eigenvalues --  -19.19172 -19.17403 -19.16922 -19.16466 -14.60545
 Alpha  occ. eigenvalues --  -14.48199 -14.46037 -14.45161 -14.44176 -14.41003
 Alpha  occ. eigenvalues --  -14.40171 -10.43034 -10.36668 -10.36027 -10.35167
 Alpha  occ. eigenvalues --  -10.34886 -10.33772 -10.33742 -10.32685 -10.32436
 Alpha  occ. eigenvalues --  -10.31786 -10.31618 -10.31219 -10.30505 -10.29852
 Alpha  occ. eigenvalues --  -10.29637 -10.28725 -10.28332 -10.26433 -10.25242
 Alpha  occ. eigenvalues --  -10.23817 -10.22745 -10.22150 -10.21236  -1.15809
 Alpha  occ. eigenvalues --   -1.11834  -1.11320  -1.10250  -1.08290  -1.01978
 Alpha  occ. eigenvalues --   -1.00661  -1.00221  -0.99840  -0.98625  -0.97930
 Alpha  occ. eigenvalues --   -0.96820  -0.93825  -0.87043  -0.86849  -0.86309
 Alpha  occ. eigenvalues --   -0.85767  -0.83832  -0.81411  -0.78898  -0.76345
 Alpha  occ. eigenvalues --   -0.75539  -0.74721  -0.74000  -0.73068  -0.72892
 Alpha  occ. eigenvalues --   -0.72238  -0.68892  -0.68791  -0.67819  -0.67187
 Alpha  occ. eigenvalues --   -0.66528  -0.66230  -0.65294  -0.63102  -0.61963
 Alpha  occ. eigenvalues --   -0.61459  -0.60771  -0.60502  -0.60142  -0.59750
 Alpha  occ. eigenvalues --   -0.59290  -0.58624  -0.56624  -0.56255  -0.55730
 Alpha  occ. eigenvalues --   -0.55614  -0.54690  -0.54229  -0.53586  -0.53262
 Alpha  occ. eigenvalues --   -0.52026  -0.51254  -0.51148  -0.50830  -0.50136
 Alpha  occ. eigenvalues --   -0.49873  -0.49471  -0.48908  -0.48442  -0.48148
 Alpha  occ. eigenvalues --   -0.47691  -0.47688  -0.46880  -0.46498  -0.45917
 Alpha  occ. eigenvalues --   -0.45691  -0.45262  -0.44644  -0.44131  -0.43182
 Alpha  occ. eigenvalues --   -0.42647  -0.42020  -0.41514  -0.41418  -0.41137
 Alpha  occ. eigenvalues --   -0.40221  -0.40059  -0.38757  -0.38543  -0.37573
 Alpha  occ. eigenvalues --   -0.37063  -0.36670  -0.35966  -0.35232  -0.35192
 Alpha  occ. eigenvalues --   -0.33906  -0.32924  -0.32203  -0.31872  -0.31276
 Alpha  occ. eigenvalues --   -0.30148  -0.29475
 Alpha virt. eigenvalues --   -0.15703  -0.12934  -0.09613  -0.07997  -0.07722
 Alpha virt. eigenvalues --   -0.05706  -0.04012  -0.03835  -0.03227  -0.02300
 Alpha virt. eigenvalues --   -0.02266  -0.01083  -0.00122   0.00868   0.01942

 Mulliken charges:
               1
     1  N   -0.724491
     2  H    0.317499
     3  H    0.328865
     4  C   -0.081280
     5  H    0.134501
     6  C    0.625192
     7  C   -0.389443
     8  H    0.205562
     9  H    0.230585
    10  O   -0.522249
    11  C    0.174541
    12  C   -0.109211
    13  H    0.237816
    14  C    0.111785
    15  C    0.159366
    16  C   -0.191765
    17  H    0.248123
    18  N   -0.731244
    19  H    0.419274
    20  C   -0.138254
    21  H    0.171952
    22  C   -0.158898
    23  H    0.169040
    24  C   -0.132442
    25  H    0.163326
    26  N   -0.633895
    27  H    0.332428
    28  C   -0.050132
    29  H    0.158867
    30  C    0.632205
    31  C   -0.059772
    32  H    0.172337
    33  O   -0.531176
    34  C   -0.265588
    35  H    0.116958
    36  H    0.162830
    37  C   -0.458216
    38  H    0.127128
    39  H    0.162460
    40  H    0.130293
    41  C   -0.452172
    42  H    0.147812
    43  H    0.142751
    44  H    0.157050
    45  N   -0.620372
    46  H    0.340035
    47  C   -0.039964
    48  H    0.178233
    49  C    0.601647
    50  C   -0.279888
    51  H    0.186062
    52  H    0.134728
    53  O   -0.561930
    54  C   -0.303024
    55  H    0.173420
    56  H    0.171348
    57  C   -0.155686
    58  H    0.170238
    59  H    0.158038
    60  N   -0.604853
    61  H    0.418381
    62  N   -0.758006
    63  H    0.368420
    64  H    0.376253
    65  N   -0.781604
    66  H    0.403881
    67  H    0.351105
    68  C    0.768437
    69  O   -0.626188
    70  H    0.420973
 Sum of Mulliken charges =   1.00000

 Dipole moment (field-independent basis, Debye):
    X=              7.4643    Y=             -1.9612    Z=             25.4474  Tot=             26.5920
 Quadrupole moment (field-independent basis, Debye-Ang):
   XX=           -106.4997   YY=            -98.7845   ZZ=            -44.7147
   XY=             76.6483   XZ=             29.4044   YZ=            -52.2134

 Normal termination of Gaussian 16 at Fri Jun  3 04:56:15 2022.
