 Gaussian 16, Revision C.01,
 Gaussian 16:  ES64L-G16RevC.01  3-Jul-2019

 ----------------------------------------------------------------------
 # B3LYP/6-31G* empiricaldispersion=gd3 guess=read geom=check nosymm in
 tegral(ultrafinegrid)
 ----------------------------------------------------------------------

 ------------------------------------------------------
 Candidate Structure: Conf:497 Charge calc in gas phase
 ------------------------------------------------------
 Structure from the checkpoint file:  "conf-497.chk"
 Charge =  1 Multiplicity = 1

                          Input orientation:
 ---------------------------------------------------------------------
 Center     Atomic      Atomic             Coordinates (Angstroms)
 Number     Number       Type             X           Y           Z
 ---------------------------------------------------------------------
      1          7           0       -4.748381    4.874395   -0.723289
      2          1           0       -5.791972    4.769485   -0.578440
      3          1           0       -4.483449    4.819062   -1.708086
      4          1           0       -4.471652    5.790978   -0.336473
      5          6           0       -4.182664    3.760119    0.129762
      6          1           0       -3.890765    2.938088   -0.530108
      7          6           0       -5.407887    3.347736    0.987220
      8          6           0       -2.942768    4.242912    0.913607
      9          1           0       -2.135592    4.411527    0.191847
     10          1           0       -2.612596    3.412808    1.541036
     11          8           0       -6.512568    3.839131    0.702940
     12          6           0       -3.214901    5.480703    1.737925
     13          6           0       -2.991113    6.755694    1.191463
     14          1           0       -2.503363    6.850589    0.220781
     15          6           0       -3.752242    5.378488    3.030451
     16          1           0       -3.902485    4.399193    3.478475
     17          6           0       -3.320707    7.908972    1.910779
     18          1           0       -3.132828    8.888094    1.479943
     19          6           0       -4.072002    6.530699    3.748006
     20          1           0       -4.477045    6.441233    4.751860
     21          6           0       -3.867892    7.795682    3.188426
     22          1           0       -4.119834    8.688162    3.753359
     23          7           0       -5.189140    2.490227    1.975222
     24          1           0       -4.258020    2.124549    2.158590
     25          6           0       -6.220916    2.093341    2.928155
     26          1           0       -6.881229    2.955144    3.078442
     27          6           0       -5.478213    1.789779    4.249649
     28          6           0       -7.037669    0.909832    2.385292
     29          1           0       -7.863848    0.642881    3.051541
     30          1           0       -6.397130    0.034384    2.247429
     31          1           0       -7.469400    1.189501    1.420504
     32          8           0       -4.272378    2.016691    4.358807
     33          7           0       -6.233689    1.273281    5.250447
     34          1           0       -7.158898    0.933561    5.015728
     35          6           0       -5.608091    0.555046    6.378741
     36          1           0       -4.685778    1.087897    6.618062
     37          6           0       -5.328648   -0.851724    5.809475
     38          6           0       -6.550589    0.507387    7.574236
     39          1           0       -6.057513    0.017288    8.419389
     40          1           0       -7.443678   -0.074736    7.326415
     41          1           0       -6.842411    1.517453    7.875933
     42          8           0       -6.262211   -1.621544    5.586296
     43          7           0       -4.050707   -1.088327    5.439573
     44          1           0       -3.296483   -0.461616    5.698591
     45          6           0       -3.670701   -2.227696    4.621839
     46          1           0       -4.016034   -3.147740    5.110141
     47          6           0       -2.129826   -2.235341    4.546569
     48          6           0       -4.329383   -2.180155    3.219647
     49          1           0       -4.252645   -3.177783    2.768327
     50          1           0       -5.401303   -2.029279    3.389368
     51          8           0       -1.458144   -1.407950    5.162247
     52          6           0       -3.795668   -1.168275    2.216261
     53          6           0       -2.884715   -0.148583    2.520834
     54          1           0       -2.534547    0.003986    3.531063
     55          6           0       -4.213327   -1.281806    0.879847
     56          1           0       -4.915242   -2.067296    0.608996
     57          6           0       -2.371727    0.687821    1.525444
     58          1           0       -1.602104    1.415897    1.763873
     59          6           0       -3.745641   -0.427722   -0.115331
     60          1           0       -4.075891   -0.540841   -1.143569
     61          8           0       -2.279761    1.406291   -0.739459
     62          1           0       -2.264189    0.938534   -1.607897
     63          6           0       -2.795958    0.551907    0.203504
     64          7           0       -1.599253   -3.162334    3.714144
     65          1           0       -2.218231   -3.709866    3.125521
     66          6           0       -0.269407   -2.998781    3.136190
     67          1           0        0.120613   -2.043308    3.494686
     68          6           0       -0.461122   -2.981699    1.610462
     69          6           0        0.667650   -4.151478    3.558801
     70          1           0        0.665360   -4.176493    4.656112
     71          1           0        0.213977   -5.091302    3.217905
     72          8           0       -1.351505   -3.643814    1.074880
     73          6           0        2.121327   -4.068685    3.053399
     74          1           0        2.108847   -4.031303    1.954975
     75          6           0        2.849561   -2.816105    3.564989
     76          1           0        2.864697   -2.798173    4.661895
     77          1           0        3.886791   -2.801403    3.212884
     78          1           0        2.384011   -1.882252    3.228896
     79          6           0        2.883001   -5.336207    3.468303
     80          1           0        2.929974   -5.423031    4.561155
     81          1           0        2.397451   -6.239367    3.081063
     82          1           0        3.911797   -5.317727    3.091170
     83          7           0        0.426699   -2.238277    0.911670
     84          1           0        1.191127   -1.755647    1.372649
     85          6           0        0.569709   -2.355500   -0.527898
     86          1           0        0.381273   -3.400139   -0.807766
     87          6           0        2.029229   -1.986698   -0.844423
     88          6           0       -0.459656   -1.465524   -1.268843
     89          1           0       -1.427278   -1.691951   -0.813807
     90          1           0       -0.244273   -0.410883   -1.067864
     91          8           0        2.724964   -1.373184   -0.025132
     92          6           0       -0.534720   -1.731726   -2.776199
     93          1           0       -0.653534   -2.802302   -2.984417
     94          1           0        0.380676   -1.428760   -3.301945
     95          6           0       -1.666266   -1.016213   -3.471808
     96          8           0       -2.295167   -0.051081   -3.055185
     97          8           0       -1.920955   -1.548702   -4.672297
     98          7           0        2.473662   -2.351489   -2.060084
     99          1           0        1.904275   -2.870096   -2.718472
    100          6           0        3.785552   -1.956156   -2.543449
    101          1           0        4.007949   -0.989046   -2.100678
    102          6           0        3.687396   -1.804493   -4.067618
    103          6           0        4.853328   -2.994119   -2.112129
    104          1           0        4.659680   -3.921609   -2.664521
    105          1           0        4.666671   -3.210464   -1.052564
    106          8           0        4.639129   -1.098091   -4.658225
    107          6           0        6.311271   -2.558854   -2.300639
    108          1           0        6.462331   -2.143556   -3.299046
    109          1           0        6.951814   -3.448096   -2.243159
    110          6           0        6.827038   -1.576488   -1.231784
    111          1           0        7.802579   -1.192326   -1.546016
    112          1           0        6.977365   -2.117515   -0.290882
    113          7           0        5.991804   -0.424868   -0.885558
    114          1           0        5.272949   -0.566507   -0.184242
    115          7           0        6.059308    0.529882   -3.006322
    116          1           0        6.039133    1.437791   -3.470586
    117          1           0        5.232187   -0.593473   -4.005602
    118          7           0        5.247681    1.740461   -1.112767
    119          1           0        5.130802    2.567208   -1.682806
    120          1           0        5.565205    1.930009   -0.170378
    121          6           0        5.794524    0.631732   -1.736939
    122          8           0        2.782567   -2.337165   -4.686721
    123          1           0       -2.628426   -1.022544   -5.091842
 ---------------------------------------------------------------------

 SCF Done:  E(RB3LYP) =  -2974.22755884     A.U. after    2 cycles

 Alpha  occ. eigenvalues --  -19.29309 -19.25125 -19.24973 -19.24842 -19.22783
 Alpha  occ. eigenvalues --  -19.21727 -19.20227 -19.19398 -19.19105 -19.18685
 Alpha  occ. eigenvalues --  -19.18489 -14.57468 -14.47647 -14.45411 -14.43935
 Alpha  occ. eigenvalues --  -14.43353 -14.43145 -14.43009 -14.42926 -14.42012
 Alpha  occ. eigenvalues --  -14.37358 -10.42643 -10.41659 -10.38719 -10.38112
 Alpha  occ. eigenvalues --  -10.37138 -10.37134 -10.36692 -10.36507 -10.36018
 Alpha  occ. eigenvalues --  -10.35727 -10.33936 -10.32994 -10.31867 -10.31727
 Alpha  occ. eigenvalues --  -10.31265 -10.31233 -10.30526 -10.30150 -10.30035
 Alpha  occ. eigenvalues --  -10.29641 -10.29045 -10.29019 -10.28646 -10.28554
 Alpha  occ. eigenvalues --  -10.28534 -10.28442 -10.27670 -10.27638 -10.27528
 Alpha  occ. eigenvalues --  -10.27325 -10.27115 -10.27046 -10.26942 -10.26880
 Alpha  occ. eigenvalues --  -10.25742 -10.25338 -10.25235 -10.25026 -10.24503
 Alpha  occ. eigenvalues --  -10.23628 -10.23030  -1.20774  -1.17369  -1.14366
 Alpha  occ. eigenvalues --   -1.13619  -1.13242  -1.12087  -1.11649  -1.11603
 Alpha  occ. eigenvalues --   -1.11434  -1.10753  -1.10301  -1.06358  -1.05587
 Alpha  occ. eigenvalues --   -1.04606  -1.01741  -1.00589  -1.00173  -0.99850
 Alpha  occ. eigenvalues --   -0.99685  -0.96280  -0.96012  -0.93554  -0.92236
 Alpha  occ. eigenvalues --   -0.91461  -0.89312  -0.88144  -0.87663  -0.86350
 Alpha  occ. eigenvalues --   -0.86186  -0.84860  -0.84330  -0.83610  -0.83245
 Alpha  occ. eigenvalues --   -0.83021  -0.81755  -0.80262  -0.79247  -0.78185
 Alpha  occ. eigenvalues --   -0.75871  -0.74965  -0.74728  -0.74313  -0.73627
 Alpha  occ. eigenvalues --   -0.72578  -0.72477  -0.71418  -0.71048  -0.70305
 Alpha  occ. eigenvalues --   -0.69639  -0.69307  -0.68792  -0.68378  -0.68298
 Alpha  occ. eigenvalues --   -0.67789  -0.67680  -0.67229  -0.66298  -0.65562
 Alpha  occ. eigenvalues --   -0.65445  -0.64801  -0.64598  -0.64452  -0.63686
 Alpha  occ. eigenvalues --   -0.62881  -0.62251  -0.62144  -0.61848  -0.60904
 Alpha  occ. eigenvalues --   -0.60180  -0.59797  -0.59583  -0.58807  -0.58597
 Alpha  occ. eigenvalues --   -0.58467  -0.57748  -0.57081  -0.56807  -0.56119
 Alpha  occ. eigenvalues --   -0.56009  -0.55841  -0.55789  -0.55415  -0.55106
 Alpha  occ. eigenvalues --   -0.54829  -0.54629  -0.54329  -0.54081  -0.53967
 Alpha  occ. eigenvalues --   -0.53725  -0.53026  -0.52903  -0.52637  -0.52195
 Alpha  occ. eigenvalues --   -0.52018  -0.51840  -0.51605  -0.51553  -0.51155
 Alpha  occ. eigenvalues --   -0.51048  -0.50642  -0.50601  -0.50433  -0.50272
 Alpha  occ. eigenvalues --   -0.50134  -0.49856  -0.49539  -0.49422  -0.49243
 Alpha  occ. eigenvalues --   -0.49060  -0.48819  -0.48430  -0.48339  -0.48137
 Alpha  occ. eigenvalues --   -0.47906  -0.47710  -0.47518  -0.46914  -0.46644
 Alpha  occ. eigenvalues --   -0.46483  -0.46247  -0.45892  -0.45855  -0.45738
 Alpha  occ. eigenvalues --   -0.45503  -0.44975  -0.44895  -0.44760  -0.44448
 Alpha  occ. eigenvalues --   -0.44313  -0.44133  -0.44026  -0.43866  -0.43808
 Alpha  occ. eigenvalues --   -0.43714  -0.43620  -0.43199  -0.42785  -0.42180
 Alpha  occ. eigenvalues --   -0.42130  -0.41908  -0.41701  -0.41485  -0.40533
 Alpha  occ. eigenvalues --   -0.39950  -0.39906  -0.39444  -0.39319  -0.38818
 Alpha  occ. eigenvalues --   -0.38718  -0.38352  -0.37459  -0.36358  -0.35823
 Alpha  occ. eigenvalues --   -0.35445  -0.35395  -0.35181  -0.34715  -0.34680
 Alpha  occ. eigenvalues --   -0.34057  -0.33743  -0.33645  -0.33347  -0.33122
 Alpha  occ. eigenvalues --   -0.32771  -0.32637  -0.32270  -0.31965  -0.31590
 Alpha  occ. eigenvalues --   -0.30691  -0.30197
 Alpha virt. eigenvalues --   -0.11167  -0.10750  -0.10451  -0.09295  -0.09127
 Alpha virt. eigenvalues --   -0.08414  -0.07438  -0.07063  -0.06335  -0.05724
 Alpha virt. eigenvalues --   -0.04746  -0.04422  -0.04071  -0.03632  -0.02011

 Mulliken charges:
               1
     1  N   -0.760084
     2  H    0.427892
     3  H    0.405918
     4  H    0.399907
     5  C   -0.127068
     6  H    0.248406
     7  C    0.653144
     8  C   -0.388212
     9  H    0.184638
    10  H    0.202114
    11  O   -0.552227
    12  C    0.138910
    13  C   -0.238040
    14  H    0.136320
    15  C   -0.187136
    16  H    0.178526
    17  C   -0.120940
    18  H    0.158238
    19  C   -0.130015
    20  H    0.160277
    21  C   -0.122912
    22  H    0.161579
    23  N   -0.601375
    24  H    0.393952
    25  C   -0.068874
    26  H    0.206395
    27  C    0.627542
    28  C   -0.467304
    29  H    0.165797
    30  H    0.183728
    31  H    0.184510
    32  O   -0.534536
    33  N   -0.590086
    34  H    0.346662
    35  C   -0.059662
    36  H    0.178793
    37  C    0.620213
    38  C   -0.464258
    39  H    0.174933
    40  H    0.179431
    41  H    0.165067
    42  O   -0.537663
    43  N   -0.606245
    44  H    0.365784
    45  C   -0.049764
    46  H    0.197166
    47  C    0.607368
    48  C   -0.388566
    49  H    0.166384
    50  H    0.203828
    51  O   -0.534033
    52  C    0.159684
    53  C   -0.192522
    54  H    0.168408
    55  C   -0.177434
    56  H    0.145679
    57  C   -0.243789
    58  H    0.152965
    59  C   -0.198335
    60  H    0.145466
    61  O   -0.724287
    62  H    0.460432
    63  C    0.351977
    64  N   -0.593181
    65  H    0.354189
    66  C   -0.082936
    67  H    0.181386
    68  C    0.627843
    69  C   -0.249011
    70  H    0.159394
    71  H    0.148768
    72  O   -0.552095
    73  C   -0.089829
    74  H    0.126013
    75  C   -0.448691
    76  H    0.154665
    77  H    0.149803
    78  H    0.134216
    79  C   -0.443920
    80  H    0.149929
    81  H    0.149192
    82  H    0.146406
    83  N   -0.622266
    84  H    0.368873
    85  C   -0.049182
    86  H    0.178951
    87  C    0.622270
    88  C   -0.282536
    89  H    0.199787
    90  H    0.163088
    91  O   -0.559958
    92  C   -0.392152
    93  H    0.196815
    94  H    0.218459
    95  C    0.606765
    96  O   -0.512033
    97  O   -0.531468
    98  N   -0.609513
    99  H    0.355133
   100  C   -0.083123
   101  H    0.185694
   102  C    0.605881
   103  C   -0.269404
   104  H    0.159650
   105  H    0.153348
   106  O   -0.602651
   107  C   -0.287025
   108  H    0.173597
   109  H    0.152726
   110  C   -0.122116
   111  H    0.175090
   112  H    0.151180
   113  N   -0.604969
   114  H    0.352806
   115  N   -0.718258
   116  H    0.292403
   117  H    0.474393
   118  N   -0.749833
   119  H    0.333453
   120  H    0.342183
   121  C    0.634296
   122  O   -0.488617
   123  H    0.423455
 Sum of Mulliken charges =   1.00000

 Dipole moment (field-independent basis, Debye):
    X=            -11.3032    Y=             14.6649    Z=              2.2920  Tot=             18.6567
 Quadrupole moment (field-independent basis, Debye-Ang):
   XX=           -243.5520   YY=           -252.6669   ZZ=           -339.8079
   XY=            -62.6018   XZ=             -0.6714   YZ=             -8.0376

 Normal termination of Gaussian 16 at Mon Jul 11 14:06:46 2022.
