 Gaussian 16, Revision C.01,
 Gaussian 16:  ES64L-G16RevC.01  3-Jul-2019

 ----------------------------------------------------------------------
 # B3LYP/6-31G* empiricaldispersion=gd3 guess=read geom=check nosymm in
 tegral(ultrafinegrid)
 ----------------------------------------------------------------------

 ------------------------------------------------------
 Candidate Structure: Conf:364 Charge calc in gas phase
 ------------------------------------------------------
 Structure from the checkpoint file:  "conf-364.chk"
 Charge =  1 Multiplicity = 1

                          Input orientation:
 ---------------------------------------------------------------------
 Center     Atomic      Atomic             Coordinates (Angstroms)
 Number     Number       Type             X           Y           Z
 ---------------------------------------------------------------------
      1          7           0       -4.520497    5.975439    4.309894
      2          1           0       -4.343046    6.981493    4.258514
      3          1           0       -4.658269    5.712569    5.288997
      4          1           0       -5.382070    5.741055    3.721967
      5          6           0       -3.454265    5.145207    3.614332
      6          1           0       -2.577663    5.765734    3.426367
      7          6           0       -4.174546    4.737538    2.309404
      8          6           0       -3.099881    3.902131    4.470617
      9          1           0       -3.904590    3.165852    4.372929
     10          1           0       -3.059869    4.220462    5.522174
     11          8           0       -5.401169    4.923758    2.244736
     12          6           0       -1.764467    3.274707    4.116267
     13          6           0       -1.697895    2.100168    3.357123
     14          1           0       -2.602502    1.652931    2.957822
     15          6           0       -0.578394    3.845997    4.600704
     16          1           0       -0.620096    4.759984    5.190416
     17          6           0       -0.463208    1.489855    3.119341
     18          1           0       -0.451195    0.578293    2.535158
     19          6           0        0.652473    3.239398    4.358700
     20          1           0        1.562162    3.683746    4.752667
     21          6           0        0.709013    2.049086    3.626958
     22          1           0        1.667118    1.563533    3.456703
     23          7           0       -3.450763    4.154841    1.358976
     24          1           0       -2.453214    4.045444    1.510380
     25          6           0       -4.105617    3.403835    0.292012
     26          1           0       -4.775605    4.085865   -0.243450
     27          6           0       -4.938476    2.252268    0.912406
     28          6           0       -3.043587    2.829403   -0.651277
     29          1           0       -3.511866    2.300595   -1.484747
     30          1           0       -2.403658    2.111694   -0.131527
     31          1           0       -2.430697    3.634917   -1.068091
     32          8           0       -4.711365    1.827876    2.044511
     33          7           0       -5.868764    1.717202    0.087246
     34          1           0       -5.953151    2.083342   -0.853438
     35          6           0       -6.522284    0.423653    0.346978
     36          1           0       -6.463773    0.276749    1.429358
     37          6           0       -5.710756   -0.697915   -0.363802
     38          6           0       -7.972142    0.439999   -0.119264
     39          1           0       -8.436887   -0.528184    0.081039
     40          1           0       -8.032185    0.605091   -1.199858
     41          1           0       -8.529917    1.224182    0.400526
     42          8           0       -6.207203   -1.405602   -1.232320
     43          7           0       -4.415610   -0.754464    0.036899
     44          1           0       -4.094810   -0.157276    0.795148
     45          6           0       -3.335599   -1.446165   -0.649181
     46          1           0       -3.444743   -2.533133   -0.542368
     47          6           0       -2.053947   -0.983735    0.068602
     48          6           0       -3.299344   -1.083088   -2.168238
     49          1           0       -4.309534   -1.272425   -2.542179
     50          1           0       -3.107776   -0.008647   -2.244296
     51          8           0       -2.095052   -0.123183    0.954970
     52          6           0       -2.294032   -1.831589   -3.020948
     53          6           0       -1.369491   -1.127170   -3.808771
     54          1           0       -1.348365   -0.044951   -3.763645
     55          6           0       -2.269268   -3.233497   -3.082981
     56          1           0       -2.984132   -3.816886   -2.507438
     57          6           0       -0.457507   -1.777861   -4.634054
     58          1           0        0.241099   -1.204078   -5.235665
     59          6           0       -1.339455   -3.905388   -3.881038
     60          1           0       -1.330563   -4.993478   -3.907121
     61          8           0        0.512167   -3.778240   -5.459118
     62          1           0        0.405235   -4.741014   -5.409470
     63          6           0       -0.435946   -3.173052   -4.656635
     64          7           0       -0.883934   -1.530923   -0.339519
     65          1           0       -0.908552   -2.047368   -1.213161
     66          6           0        0.346542   -0.793900   -0.078601
     67          1           0        0.472818   -0.719952    1.004976
     68          6           0        0.183590    0.631798   -0.656779
     69          6           0        1.524027   -1.571353   -0.693881
     70          1           0        1.486576   -2.585623   -0.272570
     71          1           0        1.350538   -1.643228   -1.772139
     72          8           0       -0.605042    0.869573   -1.575149
     73          6           0        2.925426   -0.978823   -0.468129
     74          1           0        2.956799   -0.009373   -0.979968
     75          6           0        3.273632   -0.793145    1.017832
     76          1           0        3.220810   -1.750578    1.551502
     77          1           0        4.290860   -0.402940    1.133762
     78          1           0        2.600941   -0.102582    1.544247
     79          6           0        3.969866   -1.894298   -1.125808
     80          1           0        4.034270   -2.853528   -0.596199
     81          1           0        3.714187   -2.114053   -2.166756
     82          1           0        4.966353   -1.437671   -1.103769
     83          7           0        0.916875    1.616561   -0.082896
     84          1           0        1.610185    1.390107    0.615853
     85          6           0        0.813495    3.004856   -0.537560
     86          1           0       -0.192632    3.092760   -0.956142
     87          6           0        1.832436    3.273285   -1.679979
     88          6           0        0.942847    3.966755    0.636481
     89          1           0        0.258715    3.631256    1.420492
     90          1           0        1.960627    3.937900    1.039534
     91          8           0        2.803980    4.008052   -1.518563
     92          6           0        0.598833    5.413970    0.225994
     93          1           0       -0.216194    5.404664   -0.509178
     94          1           0        1.461076    5.904213   -0.225899
     95          6           0        0.077249    6.183084    1.411806
     96          8           0       -0.961214    5.913108    1.999413
     97          8           0        0.871387    7.197880    1.783532
     98          7           0        1.489866    2.592133   -2.797112
     99          1           0        0.674672    1.994864   -2.685917
    100          6           0        2.276193    2.266163   -3.988516
    101          1           0        1.971038    2.909999   -4.821297
    102          6           0        1.934229    0.800958   -4.365398
    103          6           0        3.805353    2.381286   -3.800366
    104          1           0        4.083415    1.800662   -2.910867
    105          1           0        4.057431    3.415983   -3.563717
    106          8           0        1.748937    0.528678   -5.563786
    107          6           0        4.588365    1.895326   -5.051792
    108          1           0        5.318479    2.656475   -5.351213
    109          1           0        3.903102    1.756954   -5.894980
    110          6           0        5.380994    0.591223   -4.842991
    111          1           0        6.123466    0.724006   -4.048436
    112          1           0        5.945587    0.343592   -5.747374
    113          7           0        4.552607   -0.556174   -4.450401
    114          1           0        3.988001   -0.389539   -3.616907
    115          7           0        4.509638   -1.779298   -6.456656
    116          1           0        3.910629   -2.206023   -7.148308
    117          1           0        5.291266   -1.253499   -6.816096
    118          7           0        2.920646   -2.132010   -4.782179
    119          1           0        2.414418   -2.784196   -5.372809
    120          1           0        2.322643   -1.541204   -4.161015
    121          6           0        3.975249   -1.462395   -5.257075
    122          8           0        1.976624   -0.026342   -3.383808
    123          1           0        0.464442    7.626436    2.560287
 ---------------------------------------------------------------------

 SCF Done:  E(RB3LYP) =  -2974.23445828     A.U. after    3 cycles

 Alpha  occ. eigenvalues --  -19.29386 -19.25097 -19.24988 -19.23996 -19.20597
 Alpha  occ. eigenvalues --  -19.19853 -19.19330 -19.17636 -19.17162 -19.14935
 Alpha  occ. eigenvalues --  -19.14124 -14.58045 -14.47595 -14.45951 -14.44896
 Alpha  occ. eigenvalues --  -14.44456 -14.44149 -14.42736 -14.41982 -14.41512
 Alpha  occ. eigenvalues --  -14.40584 -10.41886 -10.41459 -10.40897 -10.38059
 Alpha  occ. eigenvalues --  -10.37710 -10.36352 -10.36302 -10.34754 -10.34282
 Alpha  occ. eigenvalues --  -10.33482 -10.32067 -10.31712 -10.30929 -10.30741
 Alpha  occ. eigenvalues --  -10.30537 -10.30489 -10.30420 -10.30351 -10.28890
 Alpha  occ. eigenvalues --  -10.28138 -10.27756 -10.27359 -10.27243 -10.27205
 Alpha  occ. eigenvalues --  -10.27198 -10.27161 -10.26493 -10.26419 -10.25390
 Alpha  occ. eigenvalues --  -10.25234 -10.25175 -10.25124 -10.25115 -10.25056
 Alpha  occ. eigenvalues --  -10.25044 -10.24609 -10.24317 -10.24254 -10.24164
 Alpha  occ. eigenvalues --  -10.23500 -10.23392  -1.20345  -1.17602  -1.12625
 Alpha  occ. eigenvalues --   -1.12406  -1.12255  -1.11727  -1.11119  -1.10926
 Alpha  occ. eigenvalues --   -1.09720  -1.09331  -1.08667  -1.07565  -1.04444
 Alpha  occ. eigenvalues --   -1.01148  -1.00410  -0.99865  -0.99567  -0.98891
 Alpha  occ. eigenvalues --   -0.98310  -0.97298  -0.96786  -0.94594  -0.91219
 Alpha  occ. eigenvalues --   -0.90875  -0.88805  -0.87747  -0.87440  -0.85723
 Alpha  occ. eigenvalues --   -0.85130  -0.83723  -0.82877  -0.82585  -0.82489
 Alpha  occ. eigenvalues --   -0.80966  -0.80408  -0.79670  -0.78653  -0.77807
 Alpha  occ. eigenvalues --   -0.75092  -0.74710  -0.74593  -0.73125  -0.72724
 Alpha  occ. eigenvalues --   -0.72169  -0.71940  -0.71582  -0.71172  -0.70528
 Alpha  occ. eigenvalues --   -0.69529  -0.68730  -0.68458  -0.68157  -0.67673
 Alpha  occ. eigenvalues --   -0.66961  -0.66837  -0.66485  -0.66384  -0.65648
 Alpha  occ. eigenvalues --   -0.65135  -0.63883  -0.62889  -0.62711  -0.62394
 Alpha  occ. eigenvalues --   -0.62041  -0.61459  -0.60961  -0.60288  -0.60204
 Alpha  occ. eigenvalues --   -0.59491  -0.59409  -0.59125  -0.58707  -0.58307
 Alpha  occ. eigenvalues --   -0.57686  -0.57551  -0.56896  -0.56501  -0.56251
 Alpha  occ. eigenvalues --   -0.56030  -0.55538  -0.55125  -0.54563  -0.54526
 Alpha  occ. eigenvalues --   -0.54227  -0.54073  -0.53932  -0.53570  -0.53344
 Alpha  occ. eigenvalues --   -0.53162  -0.52480  -0.52285  -0.51926  -0.51510
 Alpha  occ. eigenvalues --   -0.51368  -0.51005  -0.50794  -0.50375  -0.50172
 Alpha  occ. eigenvalues --   -0.50087  -0.49828  -0.49691  -0.49662  -0.49383
 Alpha  occ. eigenvalues --   -0.49090  -0.48756  -0.48429  -0.48339  -0.48237
 Alpha  occ. eigenvalues --   -0.48111  -0.47659  -0.47581  -0.47347  -0.47211
 Alpha  occ. eigenvalues --   -0.47060  -0.46832  -0.46627  -0.46332  -0.45956
 Alpha  occ. eigenvalues --   -0.45804  -0.45440  -0.45346  -0.45081  -0.45035
 Alpha  occ. eigenvalues --   -0.44801  -0.44337  -0.44321  -0.43939  -0.43829
 Alpha  occ. eigenvalues --   -0.43664  -0.43281  -0.43140  -0.42758  -0.42685
 Alpha  occ. eigenvalues --   -0.42632  -0.42342  -0.42264  -0.42059  -0.41363
 Alpha  occ. eigenvalues --   -0.41252  -0.40987  -0.40866  -0.40554  -0.40407
 Alpha  occ. eigenvalues --   -0.39742  -0.39507  -0.39383  -0.39063  -0.38872
 Alpha  occ. eigenvalues --   -0.38531  -0.38201  -0.37545  -0.36236  -0.35468
 Alpha  occ. eigenvalues --   -0.34753  -0.34508  -0.34194  -0.33634  -0.33433
 Alpha  occ. eigenvalues --   -0.33182  -0.33135  -0.32819  -0.31345  -0.31101
 Alpha  occ. eigenvalues --   -0.30669  -0.30418  -0.30345  -0.29982  -0.29333
 Alpha  occ. eigenvalues --   -0.27892  -0.27485
 Alpha virt. eigenvalues --   -0.10583  -0.09459  -0.09321  -0.09155  -0.08225
 Alpha virt. eigenvalues --   -0.07252  -0.06796  -0.06252  -0.05812  -0.05548
 Alpha virt. eigenvalues --   -0.04475  -0.04314  -0.03717  -0.03462  -0.02493

 Mulliken charges:
               1
     1  N   -0.762598
     2  H    0.410612
     3  H    0.406826
     4  H    0.431770
     5  C   -0.123895
     6  H    0.245158
     7  C    0.661338
     8  C   -0.392847
     9  H    0.219133
    10  H    0.162367
    11  O   -0.550950
    12  C    0.140207
    13  C   -0.225840
    14  H    0.211283
    15  C   -0.161472
    16  H    0.114672
    17  C   -0.139869
    18  H    0.177402
    19  C   -0.133433
    20  H    0.146599
    21  C   -0.148300
    22  H    0.141535
    23  N   -0.589245
    24  H    0.381033
    25  C   -0.053780
    26  H    0.182903
    27  C    0.645697
    28  C   -0.512290
    29  H    0.176930
    30  H    0.220006
    31  H    0.167846
    32  O   -0.540311
    33  N   -0.582807
    34  H    0.337786
    35  C   -0.083624
    36  H    0.197664
    37  C    0.619726
    38  C   -0.444775
    39  H    0.183216
    40  H    0.162012
    41  H    0.156087
    42  O   -0.514076
    43  N   -0.653641
    44  H    0.381476
    45  C   -0.037759
    46  H    0.181070
    47  C    0.632802
    48  C   -0.370042
    49  H    0.209754
    50  H    0.163328
    51  O   -0.553225
    52  C    0.099932
    53  C   -0.178252
    54  H    0.153814
    55  C   -0.202572
    56  H    0.143631
    57  C   -0.175035
    58  H    0.193784
    59  C   -0.184942
    60  H    0.129991
    61  O   -0.670606
    62  H    0.416064
    63  C    0.336576
    64  N   -0.604551
    65  H    0.362029
    66  C   -0.068835
    67  H    0.173753
    68  C    0.675544
    69  C   -0.291601
    70  H    0.146612
    71  H    0.191677
    72  O   -0.566759
    73  C   -0.093889
    74  H    0.154757
    75  C   -0.463542
    76  H    0.155702
    77  H    0.158107
    78  H    0.118550
    79  C   -0.463748
    80  H    0.145928
    81  H    0.159146
    82  H    0.142654
    83  N   -0.614481
    84  H    0.345437
    85  C   -0.088505
    86  H    0.179244
    87  C    0.632766
    88  C   -0.300439
    89  H    0.180341
    90  H    0.171306
    91  O   -0.541976
    92  C   -0.348155
    93  H    0.171410
    94  H    0.218203
    95  C    0.572256
    96  O   -0.499848
    97  O   -0.527397
    98  N   -0.648095
    99  H    0.381234
   100  C    0.038299
   101  H    0.155662
   102  C    0.559041
   103  C   -0.304967
   104  H    0.141633
   105  H    0.188687
   106  O   -0.570137
   107  C   -0.280940
   108  H    0.152731
   109  H    0.184982
   110  C   -0.172226
   111  H    0.178683
   112  H    0.145664
   113  N   -0.598349
   114  H    0.388781
   115  N   -0.759055
   116  H    0.370495
   117  H    0.366152
   118  N   -0.793971
   119  H    0.365946
   120  H    0.425181
   121  C    0.776721
   122  O   -0.639300
   123  H    0.409605
 Sum of Mulliken charges =   1.00000

 Dipole moment (field-independent basis, Debye):
    X=             -3.4421    Y=             15.0420    Z=              5.4179  Tot=             16.3543
 Quadrupole moment (field-independent basis, Debye-Ang):
   XX=           -273.3565   YY=           -208.9994   ZZ=           -243.1965
   XY=            -89.3756   XZ=            -93.0325   YZ=            115.6092

 Normal termination of Gaussian 16 at Mon Jul 11 14:08:07 2022.
