 Gaussian 16, Revision C.01,
 Gaussian 16:  ES64L-G16RevC.01  3-Jul-2019

 ----------------------------------------------------------------------
 # B3LYP/6-31G* empiricaldispersion=gd3 guess=read geom=check nosymm in
 tegral(ultrafinegrid)
 ----------------------------------------------------------------------

 ------------------------------------------------------
 Candidate Structure: Conf:217 Charge calc in gas phase
 ------------------------------------------------------
 Structure from the checkpoint file:  "conf-217.chk"
 Charge =  1 Multiplicity = 1

                          Input orientation:
 ---------------------------------------------------------------------
 Center     Atomic      Atomic             Coordinates (Angstroms)
 Number     Number       Type             X           Y           Z
 ---------------------------------------------------------------------
      1          7           0      -10.816758    3.204983    5.100217
      2          1           0      -10.542244    2.704624    5.992467
      3          1           0      -11.812927    3.107248    4.894783
      4          1           0      -10.581323    4.206407    5.196698
      5          6           0       -9.906734    2.566954    4.073494
      6          1           0      -10.485570    1.781522    3.577268
      7          6           0       -8.837318    1.865927    4.962974
      8          6           0       -9.428013    3.613571    3.049024
      9          1           0      -10.292261    3.910696    2.443079
     10          1           0       -8.740920    3.117687    2.357738
     11          8           0       -9.103872    1.738965    6.168117
     12          6           0       -8.811156    4.830009    3.710484
     13          6           0       -9.585258    5.989779    3.886146
     14          1           0      -10.586861    6.040666    3.460435
     15          6           0       -7.500613    4.803524    4.214109
     16          1           0       -6.878230    3.919192    4.106291
     17          6           0       -9.063334    7.102869    4.552271
     18          1           0       -9.670078    7.995947    4.669164
     19          6           0       -6.982118    5.918994    4.872092
     20          1           0       -5.963991    5.887494    5.248836
     21          6           0       -7.759782    7.067084    5.047147
     22          1           0       -7.348578    7.931331    5.560081
     23          7           0       -7.751042    1.398841    4.358396
     24          1           0       -7.559399    1.613550    3.379482
     25          6           0       -6.715200    0.639986    5.062251
     26          1           0       -6.900451    0.764607    6.133315
     27          6           0       -5.348075    1.270921    4.708798
     28          6           0       -6.816520   -0.848472    4.680998
     29          1           0       -6.139145   -1.468889    5.272615
     30          1           0       -6.554245   -0.999027    3.630545
     31          1           0       -7.837167   -1.197744    4.862964
     32          8           0       -5.276402    2.298068    4.035669
     33          7           0       -4.265186    0.612845    5.199025
     34          1           0       -4.447049   -0.312474    5.569244
     35          6           0       -2.976241    0.685963    4.514965
     36          1           0       -2.976301    1.611610    3.933547
     37          6           0       -2.926246   -0.517358    3.539294
     38          6           0       -1.810903    0.677563    5.511158
     39          1           0       -0.848498    0.733727    4.993029
     40          1           0       -1.815997   -0.242745    6.106100
     41          1           0       -1.889349    1.530913    6.190493
     42          8           0       -3.797227   -1.386470    3.570531
     43          7           0       -1.897060   -0.531062    2.667108
     44          1           0       -1.135804    0.136749    2.711869
     45          6           0       -1.793155   -1.531404    1.625118
     46          1           0       -2.317772   -2.424770    1.972575
     47          6           0       -0.302680   -1.802097    1.387544
     48          6           0       -2.428220   -1.036499    0.277574
     49          1           0       -1.684830   -0.445538   -0.264388
     50          1           0       -2.654637   -1.909763   -0.345335
     51          8           0        0.543474   -0.963718    1.700618
     52          6           0       -3.652629   -0.189391    0.516931
     53          6           0       -4.926292   -0.741166    0.690281
     54          1           0       -5.068250   -1.811420    0.568537
     55          6           0       -3.502092    1.194307    0.682471
     56          1           0       -2.526411    1.645171    0.526960
     57          6           0       -6.016511    0.051580    1.055240
     58          1           0       -7.002549   -0.380794    1.196009
     59          6           0       -4.574496    1.997609    1.057575
     60          1           0       -4.435465    3.064593    1.214853
     61          8           0       -6.898735    2.175734    1.708771
     62          1           0       -6.533786    3.021763    2.017239
     63          6           0       -5.825112    1.415203    1.266413
     64          7           0       -0.010879   -2.968345    0.765002
     65          1           0       -0.768746   -3.556014    0.441064
     66          6           0        1.330232   -3.260410    0.238468
     67          1           0        2.029877   -2.756174    0.907918
     68          6           0        1.421423   -2.641147   -1.175306
     69          6           0        1.591847   -4.765561    0.207609
     70          1           0        0.950003   -5.210710   -0.562613
     71          1           0        2.621464   -4.911858   -0.145043
     72          8           0        1.117305   -3.281463   -2.179348
     73          6           0        1.401962   -5.489609    1.552945
     74          1           0        0.349739   -5.379426    1.855348
     75          6           0        1.687431   -6.988041    1.379419
     76          1           0        2.735119   -7.154181    1.097846
     77          1           0        1.501759   -7.535789    2.310411
     78          1           0        1.058874   -7.427936    0.596166
     79          6           0        2.272897   -4.891314    2.667279
     80          1           0        3.333943   -4.913870    2.385856
     81          1           0        2.004171   -3.851984    2.887171
     82          1           0        2.163839   -5.463995    3.595415
     83          7           0        1.770261   -1.332750   -1.185588
     84          1           0        2.057330   -0.862822   -0.331423
     85          6           0        1.939604   -0.558883   -2.403093
     86          1           0        2.187372   -1.252135   -3.213619
     87          6           0        3.098834    0.428768   -2.159302
     88          6           0        0.667122    0.236476   -2.773823
     89          1           0        0.420166    0.895685   -1.934418
     90          1           0        0.882752    0.881002   -3.634453
     91          8           0        3.453492    0.712558   -1.010376
     92          6           0       -0.527143   -0.673774   -3.097225
     93          1           0       -0.690984   -1.370165   -2.267055
     94          1           0       -0.340617   -1.282899   -3.983930
     95          6           0       -1.822398    0.072253   -3.314407
     96          8           0       -2.614154   -0.109948   -4.209409
     97          8           0       -2.049755    0.992176   -2.328518
     98          7           0        3.636015    0.949820   -3.275658
     99          1           0        3.177712    0.838760   -4.181932
    100          6           0        4.509077    2.112546   -3.285634
    101          1           0        4.044455    2.917368   -2.697274
    102          6           0        4.622810    2.570858   -4.807714
    103          6           0        5.935823    1.894197   -2.838346
    104          1           0        6.347557    2.887630   -3.001182
    105          1           0        6.389535    1.221764   -3.577873
    106          8           0        5.711419    3.144275   -5.140594
    107          6           0        6.462261    1.476750   -1.479342
    108          1           0        6.152370    0.470439   -1.180696
    109          1           0        6.146287    2.155009   -0.678366
    110          6           0        7.991133    1.500367   -1.664946
    111          1           0        8.282079    0.791731   -2.446859
    112          1           0        8.526648    1.221187   -0.751908
    113          7           0        8.534262    2.827743   -2.054916
    114          1           0        8.833178    3.414092   -1.286992
    115          7           0        8.187577    2.987387   -4.402848
    116          1           0        8.636574    3.292696   -5.258484
    117          1           0        7.125397    2.888117   -4.527615
    118          7           0        9.804625    4.259119   -3.322965
    119          1           0        9.892039    4.878644   -4.115307
    120          1           0       10.553569    4.257663   -2.646014
    121          6           0        8.809312    3.334181   -3.275004
    122          8           0        3.644686    2.295517   -5.520883
    123          1           0       -2.921715    1.384892   -2.520346
 ---------------------------------------------------------------------

 SCF Done:  E(RB3LYP) =  -2974.15898799     A.U. after    1 cycles

 Alpha  occ. eigenvalues --  -19.27986 -19.25489 -19.23917 -19.21661 -19.19021
 Alpha  occ. eigenvalues --  -19.18562 -19.17857 -19.15394 -19.14683 -19.10598
 Alpha  occ. eigenvalues --  -19.09604 -14.58383 -14.47969 -14.46318 -14.46047
 Alpha  occ. eigenvalues --  -14.44565 -14.43185 -14.43067 -14.42544 -14.39582
 Alpha  occ. eigenvalues --  -14.37710 -10.42411 -10.41642 -10.39825 -10.38569
 Alpha  occ. eigenvalues --  -10.36129 -10.36001 -10.35636 -10.33722 -10.32906
 Alpha  occ. eigenvalues --  -10.32827 -10.32636 -10.31553 -10.31425 -10.31332
 Alpha  occ. eigenvalues --  -10.30552 -10.30203 -10.29780 -10.29548 -10.29215
 Alpha  occ. eigenvalues --  -10.29143 -10.29118 -10.28298 -10.28199 -10.27222
 Alpha  occ. eigenvalues --  -10.26940 -10.26641 -10.26531 -10.26468 -10.26412
 Alpha  occ. eigenvalues --  -10.26352 -10.26294 -10.26209 -10.23898 -10.23730
 Alpha  occ. eigenvalues --  -10.23578 -10.23520 -10.23190 -10.22978 -10.21678
 Alpha  occ. eigenvalues --  -10.21452 -10.21142  -1.18012  -1.15427  -1.14410
 Alpha  occ. eigenvalues --   -1.13453  -1.12484  -1.11222  -1.10294  -1.09698
 Alpha  occ. eigenvalues --   -1.07424  -1.06169  -1.05394  -1.04902  -1.03299
 Alpha  occ. eigenvalues --   -1.01482  -0.99895  -0.99546  -0.99183  -0.97235
 Alpha  occ. eigenvalues --   -0.96712  -0.96100  -0.95254  -0.93958  -0.92982
 Alpha  occ. eigenvalues --   -0.92245  -0.88188  -0.86752  -0.85677  -0.85236
 Alpha  occ. eigenvalues --   -0.85041  -0.84927  -0.84156  -0.83700  -0.82426
 Alpha  occ. eigenvalues --   -0.81325  -0.79453  -0.79030  -0.78693  -0.76610
 Alpha  occ. eigenvalues --   -0.75505  -0.74107  -0.73413  -0.73028  -0.72823
 Alpha  occ. eigenvalues --   -0.72509  -0.71789  -0.70992  -0.70317  -0.70119
 Alpha  occ. eigenvalues --   -0.69962  -0.69605  -0.68815  -0.68176  -0.67366
 Alpha  occ. eigenvalues --   -0.66910  -0.66627  -0.66256  -0.65438  -0.64806
 Alpha  occ. eigenvalues --   -0.64736  -0.63994  -0.63511  -0.62909  -0.62458
 Alpha  occ. eigenvalues --   -0.62096  -0.61808  -0.60805  -0.60227  -0.60031
 Alpha  occ. eigenvalues --   -0.58976  -0.58722  -0.58473  -0.57774  -0.57587
 Alpha  occ. eigenvalues --   -0.57290  -0.56743  -0.56204  -0.56032  -0.55477
 Alpha  occ. eigenvalues --   -0.55138  -0.54838  -0.54705  -0.54213  -0.53832
 Alpha  occ. eigenvalues --   -0.53360  -0.53223  -0.52887  -0.52532  -0.52441
 Alpha  occ. eigenvalues --   -0.52330  -0.51762  -0.51666  -0.51554  -0.51351
 Alpha  occ. eigenvalues --   -0.51135  -0.50906  -0.50663  -0.50544  -0.50277
 Alpha  occ. eigenvalues --   -0.50156  -0.49949  -0.49841  -0.49554  -0.49221
 Alpha  occ. eigenvalues --   -0.48961  -0.48628  -0.48404  -0.48130  -0.47890
 Alpha  occ. eigenvalues --   -0.47229  -0.47094  -0.46969  -0.46783  -0.46642
 Alpha  occ. eigenvalues --   -0.46498  -0.46453  -0.46113  -0.45371  -0.45027
 Alpha  occ. eigenvalues --   -0.44923  -0.44689  -0.44554  -0.44482  -0.44310
 Alpha  occ. eigenvalues --   -0.43961  -0.43759  -0.43338  -0.43098  -0.42905
 Alpha  occ. eigenvalues --   -0.42776  -0.42524  -0.42443  -0.41752  -0.41597
 Alpha  occ. eigenvalues --   -0.41299  -0.41268  -0.40902  -0.40586  -0.40318
 Alpha  occ. eigenvalues --   -0.40047  -0.40020  -0.39317  -0.38453  -0.38204
 Alpha  occ. eigenvalues --   -0.37911  -0.37867  -0.37086  -0.36914  -0.36876
 Alpha  occ. eigenvalues --   -0.36814  -0.36170  -0.35889  -0.35793  -0.35641
 Alpha  occ. eigenvalues --   -0.35449  -0.35082  -0.34375  -0.34080  -0.33198
 Alpha  occ. eigenvalues --   -0.33113  -0.32153  -0.31674  -0.31380  -0.29918
 Alpha  occ. eigenvalues --   -0.29675  -0.28672  -0.28156  -0.27930  -0.25924
 Alpha  occ. eigenvalues --   -0.25192  -0.23757
 Alpha virt. eigenvalues --   -0.11967  -0.11543  -0.11076  -0.08556  -0.07802
 Alpha virt. eigenvalues --   -0.07497  -0.07419  -0.06987  -0.04886  -0.04370
 Alpha virt. eigenvalues --   -0.03546  -0.03227  -0.02832  -0.02216  -0.01592

 Mulliken charges:
               1
     1  N   -0.754420
     2  H    0.431783
     3  H    0.408098
     4  H    0.404921
     5  C   -0.114050
     6  H    0.225738
     7  C    0.649625
     8  C   -0.413335
     9  H    0.181357
    10  H    0.226830
    11  O   -0.545208
    12  C    0.122301
    13  C   -0.228107
    14  H    0.141339
    15  C   -0.209561
    16  H    0.187162
    17  C   -0.118795
    18  H    0.162922
    19  C   -0.135466
    20  H    0.164822
    21  C   -0.123060
    22  H    0.164732
    23  N   -0.615501
    24  H    0.408332
    25  C   -0.102277
    26  H    0.213817
    27  C    0.633343
    28  C   -0.453902
    29  H    0.176259
    30  H    0.194372
    31  H    0.162413
    32  O   -0.535631
    33  N   -0.563610
    34  H    0.343956
    35  C   -0.097907
    36  H    0.197779
    37  C    0.638446
    38  C   -0.451912
    39  H    0.170650
    40  H    0.163988
    41  H    0.175419
    42  O   -0.544555
    43  N   -0.609053
    44  H    0.352879
    45  C   -0.043291
    46  H    0.185670
    47  C    0.629223
    48  C   -0.396766
    49  H    0.196766
    50  H    0.157688
    51  O   -0.542691
    52  C    0.177046
    53  C   -0.155350
    54  H    0.143142
    55  C   -0.202835
    56  H    0.152137
    57  C   -0.177520
    58  H    0.134908
    59  C   -0.172746
    60  H    0.137785
    61  O   -0.697738
    62  H    0.434961
    63  C    0.364532
    64  N   -0.601714
    65  H    0.338724
    66  C   -0.070627
    67  H    0.182852
    68  C    0.621644
    69  C   -0.281502
    70  H    0.161355
    71  H    0.152464
    72  O   -0.537934
    73  C   -0.068159
    74  H    0.114192
    75  C   -0.442415
    76  H    0.146461
    77  H    0.144894
    78  H    0.145284
    79  C   -0.454760
    80  H    0.143800
    81  H    0.151730
    82  H    0.146102
    83  N   -0.607420
    84  H    0.363208
    85  C   -0.064345
    86  H    0.183779
    87  C    0.614103
    88  C   -0.279893
    89  H    0.164481
    90  H    0.174647
    91  O   -0.557889
    92  C   -0.344996
    93  H    0.177263
    94  H    0.193965
    95  C    0.569256
    96  O   -0.453113
    97  O   -0.574436
    98  N   -0.613987
    99  H    0.354670
   100  C   -0.056509
   101  H    0.146105
   102  C    0.604476
   103  C   -0.268179
   104  H    0.137623
   105  H    0.140682
   106  O   -0.627907
   107  C   -0.243673
   108  H    0.167935
   109  H    0.145195
   110  C   -0.163599
   111  H    0.185013
   112  H    0.163067
   113  N   -0.590845
   114  H    0.348523
   115  N   -0.754552
   116  H    0.346612
   117  H    0.451641
   118  N   -0.763817
   119  H    0.368736
   120  H    0.360925
   121  C    0.752891
   122  O   -0.561433
   123  H    0.407552
 Sum of Mulliken charges =   1.00000

 Dipole moment (field-independent basis, Debye):
    X=            -20.5822    Y=             16.2680    Z=             23.1800  Tot=             35.0084
 Quadrupole moment (field-independent basis, Debye-Ang):
   XX=            231.3730   YY=           -265.0532   ZZ=           -328.8772
   XY=            -59.1624   XZ=           -199.6119   YZ=             50.5802

 Normal termination of Gaussian 16 at Mon Jul 11 14:05:25 2022.
