 Gaussian 16, Revision C.01,
 Gaussian 16:  ES64L-G16RevC.01  3-Jul-2019

 ----------------------------------------------------------------------
 # B3LYP/6-31G* empiricaldispersion=gd3 guess=read geom=check nosymm in
 tegral(ultrafinegrid)
 ----------------------------------------------------------------------

 ------------------------------------------------------
 Candidate Structure: Conf:102 Charge calc in gas phase
 ------------------------------------------------------
 Structure from the checkpoint file:  "conf-102.chk"
 Charge =  1 Multiplicity = 1

                          Input orientation:
 ---------------------------------------------------------------------
 Center     Atomic      Atomic             Coordinates (Angstroms)
 Number     Number       Type             X           Y           Z
 ---------------------------------------------------------------------
      1          7           0       -9.704969    4.476059    3.575936
      2          1           0      -10.703599    4.376494    3.373452
      3          1           0       -9.589277    4.794170    4.551835
      4          1           0       -9.239295    3.549477    3.401050
      5          6           0       -8.998210    5.405324    2.618462
      6          1           0       -9.731709    6.108531    2.218866
      7          6           0       -8.400275    4.455416    1.560173
      8          6           0       -7.856580    6.151043    3.360852
      9          1           0       -7.455368    6.896393    2.666119
     10          1           0       -7.047127    5.437867    3.557185
     11          8           0       -8.279724    3.263075    1.869927
     12          6           0       -8.343216    6.790155    4.641494
     13          6           0       -9.080663    7.982720    4.612827
     14          1           0       -9.241980    8.496216    3.667263
     15          6           0       -8.131014    6.148264    5.872771
     16          1           0       -7.522646    5.245880    5.914360
     17          6           0       -9.588962    8.526295    5.791599
     18          1           0      -10.145844    9.457987    5.759595
     19          6           0       -8.646939    6.691646    7.054282
     20          1           0       -8.463557    6.194059    8.001840
     21          6           0       -9.377168    7.879158    7.013403
     22          1           0       -9.772221    8.306705    7.929839
     23          7           0       -7.977746    5.006218    0.419204
     24          1           0       -8.044614    6.011225    0.300648
     25          6           0       -7.035654    4.304863   -0.483935
     26          1           0       -7.293739    3.244558   -0.427401
     27          6           0       -5.617667    4.553769    0.096413
     28          6           0       -7.164261    4.823124   -1.907879
     29          1           0       -6.504768    4.248092   -2.563471
     30          1           0       -6.848951    5.868926   -1.967240
     31          1           0       -8.192296    4.719163   -2.266720
     32          8           0       -4.903900    5.445900   -0.340554
     33          7           0       -5.319673    3.774681    1.171393
     34          1           0       -5.884306    2.951295    1.361849
     35          6           0       -3.988210    3.735346    1.776122
     36          1           0       -3.359323    4.426185    1.209745
     37          6           0       -3.509358    2.278786    1.624756
     38          6           0       -4.040297    4.137748    3.254162
     39          1           0       -3.040853    4.104602    3.700337
     40          1           0       -4.684327    3.444192    3.806349
     41          1           0       -4.430527    5.156399    3.355205
     42          8           0       -4.296078    1.356124    1.850388
     43          7           0       -2.238416    2.112973    1.219804
     44          1           0       -1.660436    2.905709    0.955697
     45          6           0       -1.708071    0.833746    0.781762
     46          1           0       -1.843943    0.094666    1.579451
     47          6           0       -0.212934    1.060216    0.521137
     48          6           0       -2.438751    0.310141   -0.500787
     49          1           0       -1.969840   -0.632699   -0.806074
     50          1           0       -3.461311    0.074541   -0.191324
     51          8           0        0.258485    2.196094    0.446787
     52          6           0       -2.438783    1.299306   -1.643093
     53          6           0       -3.386185    2.335054   -1.684431
     54          1           0       -4.166689    2.367575   -0.929658
     55          6           0       -1.476400    1.253762   -2.658677
     56          1           0       -0.734127    0.459635   -2.674026
     57          6           0       -3.354455    3.318145   -2.666525
     58          1           0       -4.055467    4.146394   -2.659207
     59          6           0       -1.453354    2.213603   -3.672098
     60          1           0       -0.715474    2.142995   -4.467475
     61          8           0       -2.397545    4.249565   -4.609676
     62          1           0       -1.596213    4.216173   -5.164712
     63          6           0       -2.377916    3.266340   -3.670208
     64          7           0        0.536330   -0.058156    0.358142
     65          1           0        0.072052   -0.952866    0.267975
     66          6           0        1.900923    0.039882   -0.169149
     67          1           0        2.393688    0.838517    0.390062
     68          6           0        1.837684    0.414057   -1.657941
     69          6           0        2.663857   -1.279717   -0.022029
     70          1           0        2.077194   -2.062034   -0.521248
     71          1           0        3.584205   -1.201072   -0.613901
     72          8           0        1.562883   -0.429535   -2.513875
     73          6           0        3.002032   -1.690493    1.420926
     74          1           0        2.072020   -1.711656    2.009418
     75          6           0        3.605239   -3.103402    1.421612
     76          1           0        4.539130   -3.123760    0.844927
     77          1           0        3.831477   -3.436642    2.441225
     78          1           0        2.918960   -3.831117    0.972238
     79          6           0        3.966618   -0.699120    2.089650
     80          1           0        4.894925   -0.616801    1.508470
     81          1           0        3.537161    0.304941    2.180394
     82          1           0        4.233408   -1.032901    3.098908
     83          7           0        2.132527    1.701651   -1.951206
     84          1           0        2.226374    2.365599   -1.193659
     85          6           0        2.328007    2.161030   -3.325738
     86          1           0        1.773249    1.459809   -3.958175
     87          6           0        3.844201    2.054094   -3.649897
     88          6           0        1.792952    3.580086   -3.500116
     89          1           0        0.791251    3.619999   -3.059376
     90          1           0        2.432661    4.290468   -2.967927
     91          8           0        4.523715    3.049484   -3.894828
     92          6           0        1.740944    3.984751   -4.983744
     93          1           0        1.233083    3.224411   -5.585548
     94          1           0        2.765963    4.088258   -5.352847
     95          6           0        1.043464    5.311405   -5.140529
     96          8           0        1.366171    6.352725   -4.623832
     97          8           0       -0.072391    5.218324   -5.939739
     98          7           0        4.333500    0.795497   -3.564100
     99          1           0        3.715442    0.035462   -3.293483
    100          6           0        5.754735    0.499421   -3.409651
    101          1           0        6.302486    0.794667   -4.307995
    102          6           0        5.942228   -1.011415   -3.184193
    103          6           0        6.344996    1.248412   -2.176408
    104          1           0        5.582998    1.235774   -1.385660
    105          1           0        6.488594    2.294877   -2.455824
    106          8           0        6.978800   -1.545065   -3.606266
    107          6           0        7.660935    0.649404   -1.637035
    108          1           0        8.245586    1.438429   -1.151042
    109          1           0        8.250240    0.278104   -2.482061
    110          6           0        7.440039   -0.507147   -0.620638
    111          1           0        6.400036   -0.827549   -0.621601
    112          1           0        7.678717   -0.172551    0.395727
    113          7           0        8.272722   -1.686434   -0.904488
    114          1           0        9.223767   -1.479112   -1.179822
    115          7           0        6.561690   -3.265350   -1.166155
    116          1           0        6.377580   -4.254639   -1.277989
    117          1           0        5.851249   -2.611715   -1.672500
    118          7           0        8.795464   -3.899064   -1.340776
    119          1           0        8.581468   -4.630696   -2.005315
    120          1           0        9.772001   -3.639102   -1.308609
    121          6           0        7.849265   -2.927527   -1.173280
    122          8           0        5.054121   -1.554605   -2.422114
    123          1           0       -0.457450    6.116208   -5.972023
 ---------------------------------------------------------------------

 SCF Done:  E(RB3LYP) =  -2974.18512106     A.U. after    3 cycles

 Alpha  occ. eigenvalues --  -19.27486 -19.25088 -19.21117 -19.20678 -19.18750
 Alpha  occ. eigenvalues --  -19.18681 -19.18580 -19.16232 -19.14423 -19.12958
 Alpha  occ. eigenvalues --  -19.11542 -14.60434 -14.50907 -14.44662 -14.44364
 Alpha  occ. eigenvalues --  -14.44340 -14.42786 -14.42768 -14.41060 -14.40519
 Alpha  occ. eigenvalues --  -14.37739 -10.44351 -10.41630 -10.39621 -10.37909
 Alpha  occ. eigenvalues --  -10.36718 -10.35787 -10.35547 -10.34819 -10.34362
 Alpha  occ. eigenvalues --  -10.33283 -10.32966 -10.31680 -10.31390 -10.31355
 Alpha  occ. eigenvalues --  -10.31248 -10.30994 -10.30883 -10.30608 -10.30223
 Alpha  occ. eigenvalues --  -10.29825 -10.29250 -10.28416 -10.28013 -10.27371
 Alpha  occ. eigenvalues --  -10.27325 -10.26697 -10.25193 -10.24466 -10.24140
 Alpha  occ. eigenvalues --  -10.23833 -10.23730 -10.23596 -10.23501 -10.23325
 Alpha  occ. eigenvalues --  -10.23256 -10.23150 -10.22927 -10.22546 -10.22019
 Alpha  occ. eigenvalues --  -10.21977 -10.21544  -1.19965  -1.15170  -1.14644
 Alpha  occ. eigenvalues --   -1.12702  -1.11022  -1.10241  -1.09431  -1.08258
 Alpha  occ. eigenvalues --   -1.08204  -1.07075  -1.06262  -1.06152  -1.05428
 Alpha  occ. eigenvalues --   -1.01048  -0.99550  -0.99003  -0.98431  -0.98101
 Alpha  occ. eigenvalues --   -0.97435  -0.96861  -0.95295  -0.94086  -0.94063
 Alpha  occ. eigenvalues --   -0.89871  -0.89140  -0.86802  -0.86538  -0.86192
 Alpha  occ. eigenvalues --   -0.85240  -0.84784  -0.83594  -0.83481  -0.80569
 Alpha  occ. eigenvalues --   -0.80277  -0.79195  -0.78668  -0.77822  -0.76538
 Alpha  occ. eigenvalues --   -0.75985  -0.74759  -0.74035  -0.73932  -0.72704
 Alpha  occ. eigenvalues --   -0.72691  -0.72380  -0.72031  -0.71287  -0.70875
 Alpha  occ. eigenvalues --   -0.70024  -0.69290  -0.68203  -0.67258  -0.66689
 Alpha  occ. eigenvalues --   -0.66178  -0.65854  -0.65722  -0.64843  -0.64362
 Alpha  occ. eigenvalues --   -0.63953  -0.63431  -0.63397  -0.62819  -0.62584
 Alpha  occ. eigenvalues --   -0.62133  -0.61872  -0.61178  -0.59950  -0.59609
 Alpha  occ. eigenvalues --   -0.59081  -0.58819  -0.58591  -0.58166  -0.57685
 Alpha  occ. eigenvalues --   -0.57158  -0.56759  -0.56272  -0.55678  -0.55198
 Alpha  occ. eigenvalues --   -0.55097  -0.54874  -0.54735  -0.54259  -0.54065
 Alpha  occ. eigenvalues --   -0.53537  -0.53286  -0.53092  -0.53014  -0.52846
 Alpha  occ. eigenvalues --   -0.52528  -0.52312  -0.52104  -0.51656  -0.51605
 Alpha  occ. eigenvalues --   -0.51296  -0.50591  -0.50509  -0.50242  -0.50115
 Alpha  occ. eigenvalues --   -0.49915  -0.49289  -0.49220  -0.49022  -0.48312
 Alpha  occ. eigenvalues --   -0.48162  -0.47909  -0.47874  -0.47602  -0.47270
 Alpha  occ. eigenvalues --   -0.47015  -0.46837  -0.46550  -0.46500  -0.46262
 Alpha  occ. eigenvalues --   -0.46131  -0.45959  -0.45873  -0.45731  -0.45393
 Alpha  occ. eigenvalues --   -0.44984  -0.44814  -0.44737  -0.44517  -0.44445
 Alpha  occ. eigenvalues --   -0.44183  -0.43469  -0.43338  -0.42949  -0.42894
 Alpha  occ. eigenvalues --   -0.42667  -0.42427  -0.42018  -0.41723  -0.41384
 Alpha  occ. eigenvalues --   -0.41208  -0.40864  -0.40694  -0.40690  -0.40516
 Alpha  occ. eigenvalues --   -0.40293  -0.39485  -0.39430  -0.39179  -0.37974
 Alpha  occ. eigenvalues --   -0.37715  -0.37408  -0.37168  -0.37089  -0.37028
 Alpha  occ. eigenvalues --   -0.36950  -0.36916  -0.36779  -0.36550  -0.35060
 Alpha  occ. eigenvalues --   -0.34941  -0.34203  -0.33874  -0.32923  -0.32462
 Alpha  occ. eigenvalues --   -0.32437  -0.32141  -0.31873  -0.31365  -0.29548
 Alpha  occ. eigenvalues --   -0.29226  -0.28311  -0.28031  -0.27511  -0.27138
 Alpha  occ. eigenvalues --   -0.26041  -0.25234
 Alpha virt. eigenvalues --   -0.14263  -0.13079  -0.11871  -0.10530  -0.07763
 Alpha virt. eigenvalues --   -0.05985  -0.05563  -0.05030  -0.04752  -0.04398
 Alpha virt. eigenvalues --   -0.04035  -0.03910  -0.03641  -0.03209  -0.03021

 Mulliken charges:
               1
     1  N   -0.747829
     2  H    0.418073
     3  H    0.407355
     4  H    0.429347
     5  C   -0.118152
     6  H    0.212328
     7  C    0.663760
     8  C   -0.391003
     9  H    0.203903
    10  H    0.208059
    11  O   -0.536597
    12  C    0.135139
    13  C   -0.179638
    14  H    0.146096
    15  C   -0.233068
    16  H    0.155556
    17  C   -0.121989
    18  H    0.170957
    19  C   -0.118799
    20  H    0.170658
    21  C   -0.123461
    22  H    0.172563
    23  N   -0.582751
    24  H    0.354019
    25  C   -0.083082
    26  H    0.201902
    27  C    0.615201
    28  C   -0.469341
    29  H    0.202365
    30  H    0.182263
    31  H    0.164435
    32  O   -0.500539
    33  N   -0.609335
    34  H    0.360939
    35  C   -0.057413
    36  H    0.194125
    37  C    0.628972
    38  C   -0.450510
    39  H    0.176105
    40  H    0.156909
    41  H    0.150833
    42  O   -0.554000
    43  N   -0.606830
    44  H    0.364028
    45  C   -0.037258
    46  H    0.178406
    47  C    0.639944
    48  C   -0.389631
    49  H    0.151977
    50  H    0.187032
    51  O   -0.546477
    52  C    0.163737
    53  C   -0.201537
    54  H    0.106328
    55  C   -0.206629
    56  H    0.169102
    57  C   -0.173258
    58  H    0.144989
    59  C   -0.209500
    60  H    0.135756
    61  O   -0.674191
    62  H    0.432947
    63  C    0.351585
    64  N   -0.604227
    65  H    0.339280
    66  C   -0.058413
    67  H    0.163790
    68  C    0.642810
    69  C   -0.316250
    70  H    0.150895
    71  H    0.201097
    72  O   -0.555269
    73  C   -0.069486
    74  H    0.118520
    75  C   -0.454411
    76  H    0.155628
    77  H    0.141414
    78  H    0.139957
    79  C   -0.456717
    80  H    0.141784
    81  H    0.145766
    82  H    0.147222
    83  N   -0.594057
    84  H    0.351696
    85  C   -0.069077
    86  H    0.184837
    87  C    0.627957
    88  C   -0.290796
    89  H    0.166436
    90  H    0.182283
    91  O   -0.537990
    92  C   -0.364778
    93  H    0.160122
    94  H    0.224070
    95  C    0.577489
    96  O   -0.440039
    97  O   -0.589462
    98  N   -0.637923
    99  H    0.375035
   100  C    0.024724
   101  H    0.164826
   102  C    0.563939
   103  C   -0.292283
   104  H    0.128819
   105  H    0.182167
   106  O   -0.576711
   107  C   -0.303037
   108  H    0.143857
   109  H    0.180053
   110  C   -0.165059
   111  H    0.210680
   112  H    0.164470
   113  N   -0.575737
   114  H    0.340787
   115  N   -0.767803
   116  H    0.335761
   117  H    0.437288
   118  N   -0.756839
   119  H    0.364326
   120  H    0.350728
   121  C    0.775534
   122  O   -0.633036
   123  H    0.418477
 Sum of Mulliken charges =   1.00000

 Dipole moment (field-independent basis, Debye):
    X=            -29.9013    Y=             16.6929    Z=             18.5036  Tot=             38.9246
 Quadrupole moment (field-independent basis, Debye-Ang):
   XX=            135.9567   YY=           -214.4740   ZZ=           -297.5960
   XY=           -284.2470   XZ=           -132.4616   YZ=             97.2981

 Normal termination of Gaussian 16 at Mon Jul 11 14:07:51 2022.
