 Gaussian 16, Revision C.01,
 Gaussian 16:  ES64L-G16RevC.01  3-Jul-2019

 ----------------------------------------------------------------------
 # B3LYP/6-31G* empiricaldispersion=gd3 guess=read geom=check nosymm in
 tegral(ultrafinegrid)
 ----------------------------------------------------------------------

 ------------------------------------------------------
 Candidate Structure: Conf:684 Charge calc in gas phase
 ------------------------------------------------------
 Structure from the checkpoint file:  "conf-684.chk"
 Charge =  1 Multiplicity = 1

                          Input orientation:
 ---------------------------------------------------------------------
 Center     Atomic      Atomic             Coordinates (Angstroms)
 Number     Number       Type             X           Y           Z
 ---------------------------------------------------------------------
      1          7           0      -10.656228    3.687185    3.737742
      2          1           0      -10.603514    2.773310    4.195935
      3          1           0      -11.589279    3.792677    3.312731
      4          1           0      -10.448011    4.423792    4.458220
      5          6           0       -9.561979    3.893074    2.716214
      6          1           0       -9.274427    2.924622    2.305249
      7          6           0       -8.431063    4.565912    3.525742
      8          6           0      -10.082582    4.814412    1.592596
      9          1           0       -9.251990    4.958734    0.898102
     10          1           0      -10.324212    5.794272    2.022773
     11          8           0       -8.737805    5.144061    4.578811
     12          6           0      -11.276693    4.201438    0.898386
     13          6           0      -11.089217    3.157168   -0.019765
     14          1           0      -10.077603    2.852655   -0.280616
     15          6           0      -12.580693    4.604230    1.223878
     16          1           0      -12.735862    5.447938    1.895762
     17          6           0      -12.189917    2.531095   -0.602114
     18          1           0      -12.036912    1.731858   -1.321499
     19          6           0      -13.684021    3.969837    0.642073
     20          1           0      -14.689075    4.298088    0.890278
     21          6           0      -13.488355    2.932007   -0.268459
     22          1           0      -14.342643    2.442345   -0.726242
     23          7           0       -7.232250    4.484237    2.963628
     24          1           0       -7.165486    4.005757    2.064426
     25          6           0       -6.021501    5.153343    3.457989
     26          1           0       -6.255253    6.218421    3.584743
     27          6           0       -5.009071    5.027908    2.288366
     28          6           0       -5.569668    4.559858    4.797038
     29          1           0       -4.765354    5.162908    5.232608
     30          1           0       -5.216400    3.532644    4.663262
     31          1           0       -6.402997    4.577956    5.503276
     32          8           0       -5.416700    5.089603    1.125063
     33          7           0       -3.712950    4.855441    2.628647
     34          1           0       -3.548278    4.610990    3.597050
     35          6           0       -2.775838    4.184175    1.727358
     36          1           0       -3.182263    4.269364    0.716556
     37          6           0       -2.772406    2.683248    2.129835
     38          6           0       -1.381195    4.815975    1.788194
     39          1           0       -0.713093    4.332872    1.070131
     40          1           0       -0.942672    4.707843    2.786413
     41          1           0       -1.442346    5.880867    1.545543
     42          8           0       -3.431638    2.283247    3.092245
     43          7           0       -2.009483    1.893848    1.350574
     44          1           0       -1.540629    2.283705    0.533589
     45          6           0       -2.010611    0.450080    1.463713
     46          1           0       -2.388572    0.210856    2.462546
     47          6           0       -0.548369   -0.020737    1.331275
     48          6           0       -2.946658   -0.201564    0.386058
     49          1           0       -2.399626   -0.238189   -0.562218
     50          1           0       -3.168525   -1.233392    0.687732
     51          8           0        0.385654    0.756660    1.488196
     52          6           0       -4.224563    0.584250    0.230123
     53          6           0       -5.318457    0.386447    1.078364
     54          1           0       -5.301436   -0.430381    1.795190
     55          6           0       -4.269062    1.650748   -0.678757
     56          1           0       -3.419860    1.832778   -1.330952
     57          6           0       -6.406275    1.261221    1.068376
     58          1           0       -7.233218    1.130805    1.761281
     59          6           0       -5.345620    2.531227   -0.698933
     60          1           0       -5.349881    3.385396   -1.370040
     61          8           0       -7.423393    3.289009    0.291436
     62          1           0       -7.019397    4.145934    0.051866
     63          6           0       -6.393833    2.349548    0.201995
     64          7           0       -0.340752   -1.331614    0.985374
     65          1           0       -1.144464   -1.832919    0.630802
     66          6           0        0.903052   -1.624238    0.271592
     67          1           0        1.733463   -1.425903    0.952621
     68          6           0        0.987351   -0.661090   -0.934475
     69          6           0        0.910404   -3.090921   -0.188638
     70          1           0        0.719566   -3.722642    0.689711
     71          1           0        0.064796   -3.231798   -0.877653
     72          8           0       -0.033089   -0.291073   -1.524082
     73          6           0        2.205216   -3.563536   -0.880553
     74          1           0        2.404944   -2.903625   -1.735571
     75          6           0        3.422603   -3.508839    0.054670
     76          1           0        3.263163   -4.141266    0.937562
     77          1           0        4.319990   -3.866974   -0.460442
     78          1           0        3.641704   -2.495483    0.409190
     79          6           0        2.009175   -4.987382   -1.421178
     80          1           0        1.807567   -5.691992   -0.603977
     81          1           0        1.168317   -5.037709   -2.123141
     82          1           0        2.907036   -5.333683   -1.944917
     83          7           0        2.223316   -0.251463   -1.275561
     84          1           0        3.055239   -0.647466   -0.849425
     85          6           0        2.477341    0.613409   -2.411321
     86          1           0        1.670852    0.470456   -3.135579
     87          6           0        3.830482    0.181202   -3.005516
     88          6           0        2.534106    2.105418   -1.999859
     89          1           0        3.433272    2.259925   -1.391470
     90          1           0        2.648976    2.712597   -2.903604
     91          8           0        4.610519   -0.515544   -2.349392
     92          6           0        1.329261    2.587060   -1.181120
     93          1           0        1.494593    3.629136   -0.873626
     94          1           0        1.218260    2.015894   -0.254386
     95          6           0       -0.017088    2.568447   -1.861050
     96          8           0       -1.082961    2.727697   -1.282226
     97          8           0        0.045139    2.433117   -3.195865
     98          7           0        4.096031    0.658169   -4.233820
     99          1           0        3.404854    1.167211   -4.775950
    100          6           0        5.358470    0.442212   -4.930877
    101          1           0        6.184188    0.596559   -4.232565
    102          6           0        5.470758    1.458191   -6.084050
    103          6           0        5.421975   -1.007113   -5.486324
    104          1           0        4.458582   -1.211719   -5.974499
    105          1           0        5.474046   -1.675954   -4.622169
    106          8           0        6.610675    1.822985   -6.419411
    107          6           0        6.588738   -1.289401   -6.464424
    108          1           0        7.078338   -2.234819   -6.201070
    109          1           0        7.340889   -0.497489   -6.387698
    110          6           0        6.140162   -1.424317   -7.931336
    111          1           0        5.395274   -2.221787   -8.024153
    112          1           0        6.976285   -1.727107   -8.570455
    113          7           0        5.515967   -0.217617   -8.492442
    114          1           0        4.650523    0.065760   -8.032453
    115          7           0        7.398504    0.696898   -9.554439
    116          1           0        7.973933    1.525289   -9.611040
    117          1           0        7.910452   -0.157675   -9.395690
    118          7           0        5.506544    1.997865   -9.105512
    119          1           0        6.052365    2.798205   -9.398128
    120          1           0        4.908287    2.170494   -8.257111
    121          6           0        6.166426    0.833893   -9.013591
    122          8           0        4.361380    1.722130   -6.678751
    123          1           0       -0.873045    2.411052   -3.524941
 ---------------------------------------------------------------------

 SCF Done:  E(RB3LYP) =  -2974.22300193     A.U. after    2 cycles

 Alpha  occ. eigenvalues --  -19.26727 -19.26215 -19.24573 -19.20732 -19.20656
 Alpha  occ. eigenvalues --  -19.17507 -19.17454 -19.16873 -19.16010 -19.13460
 Alpha  occ. eigenvalues --  -19.12200 -14.58488 -14.47162 -14.44948 -14.43753
 Alpha  occ. eigenvalues --  -14.43747 -14.41316 -14.41243 -14.41018 -14.40841
 Alpha  occ. eigenvalues --  -14.39847 -10.41262 -10.39971 -10.38863 -10.38622
 Alpha  occ. eigenvalues --  -10.37835 -10.34429 -10.34416 -10.33810 -10.33179
 Alpha  occ. eigenvalues --  -10.33095 -10.32221 -10.31982 -10.30701 -10.30522
 Alpha  occ. eigenvalues --  -10.29924 -10.29806 -10.29687 -10.29292 -10.29087
 Alpha  occ. eigenvalues --  -10.28926 -10.28854 -10.28688 -10.28545 -10.28169
 Alpha  occ. eigenvalues --  -10.26319 -10.26136 -10.25880 -10.25741 -10.25721
 Alpha  occ. eigenvalues --  -10.25626 -10.25527 -10.25309 -10.25259 -10.24836
 Alpha  occ. eigenvalues --  -10.24533 -10.24406 -10.24052 -10.24039 -10.23267
 Alpha  occ. eigenvalues --  -10.22010 -10.22006  -1.17188  -1.16994  -1.14014
 Alpha  occ. eigenvalues --   -1.12584  -1.12171  -1.10075  -1.09150  -1.08842
 Alpha  occ. eigenvalues --   -1.08470  -1.07826  -1.07623  -1.05886  -1.04144
 Alpha  occ. eigenvalues --   -1.00528  -0.98579  -0.98168  -0.97990  -0.97679
 Alpha  occ. eigenvalues --   -0.97462  -0.96437  -0.96281  -0.95771  -0.92218
 Alpha  occ. eigenvalues --   -0.91744  -0.87546  -0.86763  -0.85551  -0.85304
 Alpha  occ. eigenvalues --   -0.84601  -0.84502  -0.84298  -0.82554  -0.81691
 Alpha  occ. eigenvalues --   -0.80988  -0.79923  -0.78340  -0.78092  -0.77144
 Alpha  occ. eigenvalues --   -0.75267  -0.72962  -0.72848  -0.72697  -0.72423
 Alpha  occ. eigenvalues --   -0.72041  -0.71532  -0.71153  -0.70487  -0.70353
 Alpha  occ. eigenvalues --   -0.69152  -0.68972  -0.68725  -0.68389  -0.66955
 Alpha  occ. eigenvalues --   -0.66164  -0.65807  -0.65651  -0.65241  -0.64762
 Alpha  occ. eigenvalues --   -0.64069  -0.63971  -0.63566  -0.62169  -0.61583
 Alpha  occ. eigenvalues --   -0.61516  -0.61502  -0.61390  -0.60882  -0.60342
 Alpha  occ. eigenvalues --   -0.58981  -0.58034  -0.57342  -0.57020  -0.56283
 Alpha  occ. eigenvalues --   -0.56002  -0.55902  -0.55742  -0.55422  -0.55173
 Alpha  occ. eigenvalues --   -0.55045  -0.54836  -0.54526  -0.54120  -0.53980
 Alpha  occ. eigenvalues --   -0.53604  -0.53385  -0.52964  -0.52694  -0.52384
 Alpha  occ. eigenvalues --   -0.52205  -0.52108  -0.51946  -0.51674  -0.51338
 Alpha  occ. eigenvalues --   -0.50983  -0.50668  -0.50253  -0.50012  -0.49965
 Alpha  occ. eigenvalues --   -0.49636  -0.49419  -0.49305  -0.49253  -0.48985
 Alpha  occ. eigenvalues --   -0.48685  -0.48661  -0.48335  -0.48190  -0.47651
 Alpha  occ. eigenvalues --   -0.47485  -0.47239  -0.47212  -0.46840  -0.46658
 Alpha  occ. eigenvalues --   -0.46335  -0.46183  -0.45996  -0.45914  -0.45543
 Alpha  occ. eigenvalues --   -0.45283  -0.44984  -0.44731  -0.44591  -0.44336
 Alpha  occ. eigenvalues --   -0.44256  -0.44056  -0.43920  -0.43537  -0.43022
 Alpha  occ. eigenvalues --   -0.42877  -0.42741  -0.42487  -0.42245  -0.42085
 Alpha  occ. eigenvalues --   -0.41665  -0.41428  -0.41338  -0.40980  -0.40823
 Alpha  occ. eigenvalues --   -0.40289  -0.39890  -0.39667  -0.39561  -0.39259
 Alpha  occ. eigenvalues --   -0.38995  -0.38107  -0.37910  -0.37865  -0.37527
 Alpha  occ. eigenvalues --   -0.37388  -0.37115  -0.35556  -0.35366  -0.34873
 Alpha  occ. eigenvalues --   -0.34775  -0.34368  -0.33989  -0.32850  -0.32621
 Alpha  occ. eigenvalues --   -0.32306  -0.31493  -0.31263  -0.31084  -0.30444
 Alpha  occ. eigenvalues --   -0.30357  -0.30073  -0.29678  -0.29148  -0.28784
 Alpha  occ. eigenvalues --   -0.27986  -0.25805
 Alpha virt. eigenvalues --   -0.11657  -0.11075  -0.09274  -0.08537  -0.07662
 Alpha virt. eigenvalues --   -0.06696  -0.06529  -0.05494  -0.05479  -0.04369
 Alpha virt. eigenvalues --   -0.03205  -0.03045  -0.02429  -0.01836  -0.01324

 Mulliken charges:
               1
     1  N   -0.746430
     2  H    0.413912
     3  H    0.403196
     4  H    0.421558
     5  C   -0.127140
     6  H    0.223987
     7  C    0.648981
     8  C   -0.376071
     9  H    0.208964
    10  H    0.185212
    11  O   -0.547667
    12  C    0.134816
    13  C   -0.189712
    14  H    0.172964
    15  C   -0.231806
    16  H    0.145301
    17  C   -0.126017
    18  H    0.163030
    19  C   -0.123150
    20  H    0.161783
    21  C   -0.124088
    22  H    0.163260
    23  N   -0.643205
    24  H    0.411784
    25  C   -0.017290
    26  H    0.200630
    27  C    0.596291
    28  C   -0.509254
    29  H    0.167504
    30  H    0.205629
    31  H    0.188015
    32  O   -0.556113
    33  N   -0.565573
    34  H    0.351693
    35  C   -0.102982
    36  H    0.205377
    37  C    0.627661
    38  C   -0.452219
    39  H    0.175450
    40  H    0.161173
    41  H    0.167701
    42  O   -0.554521
    43  N   -0.620048
    44  H    0.402973
    45  C   -0.051566
    46  H    0.200193
    47  C    0.625749
    48  C   -0.415276
    49  H    0.199713
    50  H    0.143121
    51  O   -0.518951
    52  C    0.168791
    53  C   -0.160654
    54  H    0.134578
    55  C   -0.201145
    56  H    0.163577
    57  C   -0.164509
    58  H    0.109173
    59  C   -0.167621
    60  H    0.141440
    61  O   -0.714172
    62  H    0.441433
    63  C    0.345984
    64  N   -0.601807
    65  H    0.336326
    66  C   -0.047649
    67  H    0.179350
    68  C    0.626991
    69  C   -0.288287
    70  H    0.152250
    71  H    0.141897
    72  O   -0.567468
    73  C   -0.089897
    74  H    0.143493
    75  C   -0.448436
    76  H    0.144843
    77  H    0.160587
    78  H    0.141921
    79  C   -0.444163
    80  H    0.144016
    81  H    0.142626
    82  H    0.150772
    83  N   -0.600143
    84  H    0.363578
    85  C   -0.069985
    86  H    0.187561
    87  C    0.623559
    88  C   -0.260058
    89  H    0.161370
    90  H    0.165308
    91  O   -0.553382
    92  C   -0.408791
    93  H    0.183307
    94  H    0.240972
    95  C    0.643736
    96  O   -0.509498
    97  O   -0.551189
    98  N   -0.618750
    99  H    0.349005
   100  C   -0.004363
   101  H    0.172481
   102  C    0.576837
   103  C   -0.293877
   104  H    0.128849
   105  H    0.179244
   106  O   -0.581138
   107  C   -0.273721
   108  H    0.148806
   109  H    0.186827
   110  C   -0.179513
   111  H    0.178153
   112  H    0.148551
   113  N   -0.569403
   114  H    0.369067
   115  N   -0.750829
   116  H    0.367445
   117  H    0.364998
   118  N   -0.734024
   119  H    0.337575
   120  H    0.400517
   121  C    0.760830
   122  O   -0.648077
   123  H    0.415378
 Sum of Mulliken charges =   1.00000

 Dipole moment (field-independent basis, Debye):
    X=            -28.6447    Y=             10.0376    Z=             -2.5374  Tot=             30.4584
 Quadrupole moment (field-independent basis, Debye-Ang):
   XX=            105.1116   YY=           -293.4074   ZZ=           -212.4190
   XY=           -130.3705   XZ=           -187.7158   YZ=             37.7073

 Normal termination of Gaussian 16 at Mon Jul 11 14:06:25 2022.
