 Gaussian 16, Revision C.01,
 Gaussian 16:  ES64L-G16RevC.01  3-Jul-2019

 ----------------------------------------------------------------------
 # B3LYP/6-31G* empiricaldispersion=gd3 guess=read geom=check nosymm in
 tegral(ultrafinegrid)
 ----------------------------------------------------------------------

 ------------------------------------------------------
 Candidate Structure: Conf:367 Charge calc in gas phase
 ------------------------------------------------------
 Structure from the checkpoint file:  "conf-367.chk"
 Charge =  1 Multiplicity = 1

                          Input orientation:
 ---------------------------------------------------------------------
 Center     Atomic      Atomic             Coordinates (Angstroms)
 Number     Number       Type             X           Y           Z
 ---------------------------------------------------------------------
      1          7           0      -11.813964    3.052556    2.104807
      2          1           0      -11.975526    2.696619    1.158422
      3          1           0      -12.548079    3.727781    2.333012
      4          1           0      -11.809931    2.227245    2.782363
      5          6           0      -10.407969    3.593737    2.298348
      6          1           0       -9.982901    3.859015    1.328861
      7          6           0       -9.691761    2.370240    2.933807
      8          6           0      -10.451793    4.820589    3.245168
      9          1           0      -10.692214    4.474584    4.257702
     10          1           0      -11.272187    5.473914    2.918795
     11          8           0      -10.419150    1.506851    3.462047
     12          6           0       -9.161747    5.613654    3.228680
     13          6           0       -8.095402    5.281601    4.070803
     14          1           0       -8.197026    4.465364    4.778909
     15          6           0       -9.007088    6.667179    2.314335
     16          1           0       -9.831280    6.943151    1.660167
     17          6           0       -6.883645    5.968296    3.984852
     18          1           0       -6.055472    5.670178    4.618233
     19          6           0       -7.800584    7.366168    2.236330
     20          1           0       -7.695053    8.185169    1.530965
     21          6           0       -6.733772    7.011445    3.070145
     22          1           0       -5.793064    7.550456    3.007243
     23          7           0       -8.372215    2.353463    2.890146
     24          1           0       -7.867136    3.098275    2.403939
     25          6           0       -7.570752    1.269868    3.462330
     26          1           0       -7.992256    1.018464    4.442560
     27          6           0       -6.147680    1.838960    3.640495
     28          6           0       -7.610894    0.032077    2.547964
     29          1           0       -7.107491   -0.821356    3.010314
     30          1           0       -7.105911    0.240797    1.602491
     31          1           0       -8.652959   -0.249733    2.374106
     32          8           0       -5.897029    3.002808    3.343361
     33          7           0       -5.217573    0.976584    4.142470
     34          1           0       -5.481595   -0.001500    4.119358
     35          6           0       -3.815098    1.188591    3.783058
     36          1           0       -3.612753    2.257313    3.886479
     37          6           0       -3.644542    0.780511    2.297814
     38          6           0       -2.892720    0.374562    4.695473
     39          1           0       -1.843922    0.539186    4.430562
     40          1           0       -3.095913   -0.698221    4.595066
     41          1           0       -3.038363    0.661790    5.740712
     42          8           0       -4.494226    0.090947    1.735762
     43          7           0       -2.521846    1.225775    1.692436
     44          1           0       -1.779013    1.683334    2.209835
     45          6           0       -2.203423    0.893602    0.316788
     46          1           0       -2.769405   -0.006083    0.060450
     47          6           0       -0.689613    0.647841    0.239724
     48          6           0       -2.581055    2.041517   -0.672713
     49          1           0       -1.806714    2.814807   -0.608943
     50          1           0       -2.541782    1.636535   -1.691138
     51          8           0        0.071207    1.145690    1.071681
     52          6           0       -3.928796    2.657579   -0.376533
     53          6           0       -5.125762    1.987886   -0.661457
     54          1           0       -5.095416    1.016822   -1.147163
     55          6           0       -4.004554    3.898421    0.265151
     56          1           0       -3.089112    4.434785    0.501497
     57          6           0       -6.359326    2.531276   -0.306685
     58          1           0       -7.286235    2.009197   -0.524476
     59          6           0       -5.227652    4.455427    0.629992
     60          1           0       -5.268527    5.400875    1.163564
     61          8           0       -7.640079    4.235475    0.759085
     62          1           0       -7.532251    5.135205    1.114235
     63          6           0       -6.401051    3.760404    0.350139
     64          7           0       -0.276825   -0.068011   -0.824167
     65          1           0       -0.930098   -0.502635   -1.467775
     66          6           0        1.127411   -0.317828   -1.116542
     67          1           0        1.685458    0.599271   -0.905967
     68          6           0        1.194015   -0.679930   -2.604802
     69          6           0        1.671585   -1.477874   -0.242443
     70          1           0        1.480539   -1.195077    0.800166
     71          1           0        1.057187   -2.361462   -0.459023
     72          8           0        0.242493   -1.227956   -3.162059
     73          6           0        3.162342   -1.830792   -0.410554
     74          1           0        3.352467   -2.075184   -1.462879
     75          6           0        4.091131   -0.671219   -0.022230
     76          1           0        3.946077   -0.393712    1.029341
     77          1           0        5.139645   -0.954607   -0.162332
     78          1           0        3.924479    0.229301   -0.624019
     79          6           0        3.494453   -3.080177    0.418601
     80          1           0        3.333820   -2.896349    1.488552
     81          1           0        2.870307   -3.932953    0.126598
     82          1           0        4.543747   -3.369081    0.284174
     83          7           0        2.361102   -0.385845   -3.226720
     84          1           0        3.152844   -0.064496   -2.677356
     85          6           0        2.752414   -1.015392   -4.479943
     86          1           0        2.076001   -1.859458   -4.652813
     87          6           0        4.191802   -1.520638   -4.278093
     88          6           0        2.673834   -0.047206   -5.677176
     89          1           0        3.370403    0.782445   -5.517704
     90          1           0        3.004017   -0.573978   -6.581130
     91          8           0        4.901865   -1.055784   -3.378651
     92          6           0        1.250222    0.494782   -5.872075
     93          1           0        0.954313    1.050931   -4.973947
     94          1           0        0.527872   -0.313888   -6.003632
     95          6           0        1.115701    1.427303   -7.055504
     96          8           0        0.244554    1.380901   -7.893536
     97          8           0        2.096301    2.368723   -7.068346
     98          7           0        4.604086   -2.478845   -5.128974
     99          1           0        4.040337   -2.766584   -5.923107
    100          6           0        5.977516   -2.956921   -5.145686
    101          1           0        6.605877   -2.152332   -4.766526
    102          6           0        6.367302   -3.258818   -6.601717
    103          6           0        6.159040   -4.226065   -4.279364
    104          1           0        7.096352   -4.714895   -4.565049
    105          1           0        5.358100   -4.925231   -4.547143
    106          8           0        7.668032   -3.326570   -6.853772
    107          6           0        6.139700   -3.977565   -2.761857
    108          1           0        6.175508   -4.950901   -2.253034
    109          1           0        5.196200   -3.502596   -2.470505
    110          6           0        7.290543   -3.097610   -2.238925
    111          1           0        7.206845   -2.990061   -1.152559
    112          1           0        7.202615   -2.087849   -2.645848
    113          7           0        8.625542   -3.630563   -2.524445
    114          1           0        8.916738   -4.415087   -1.954732
    115          7           0        9.069072   -2.585549   -4.626461
    116          1           0        8.239378   -3.020661   -6.072403
    117          1           0        8.681369   -1.755241   -4.180940
    118          7           0        9.979953   -4.643693   -4.116448
    119          1           0       10.406842   -4.572288   -5.031501
    120          1           0        9.651923   -5.570107   -3.875032
    121          6           0        9.193092   -3.564759   -3.777290
    122          8           0        5.515270   -3.469047   -7.443197
    123          1           0        1.933329    2.922801   -7.854919
 ---------------------------------------------------------------------

 SCF Done:  E(RB3LYP) =  -2974.20453752     A.U. after    2 cycles

 Alpha  occ. eigenvalues --  -19.27027 -19.25819 -19.23703 -19.21438 -19.20865
 Alpha  occ. eigenvalues --  -19.18820 -19.18263 -19.18201 -19.18189 -19.17894
 Alpha  occ. eigenvalues --  -19.16783 -14.59427 -14.48096 -14.44409 -14.43051
 Alpha  occ. eigenvalues --  -14.42461 -14.42130 -14.42076 -14.41486 -14.40828
 Alpha  occ. eigenvalues --  -14.35149 -10.42383 -10.39840 -10.38276 -10.36178
 Alpha  occ. eigenvalues --  -10.35905 -10.35357 -10.35271 -10.35212 -10.35158
 Alpha  occ. eigenvalues --  -10.35141 -10.33927 -10.33841 -10.32378 -10.31347
 Alpha  occ. eigenvalues --  -10.31236 -10.30358 -10.29936 -10.29574 -10.29528
 Alpha  occ. eigenvalues --  -10.29508 -10.29443 -10.29206 -10.29007 -10.28609
 Alpha  occ. eigenvalues --  -10.27937 -10.27033 -10.26444 -10.26379 -10.26170
 Alpha  occ. eigenvalues --  -10.26133 -10.26110 -10.26076 -10.26062 -10.25195
 Alpha  occ. eigenvalues --  -10.24845 -10.24628 -10.24442 -10.24345 -10.24226
 Alpha  occ. eigenvalues --  -10.22623 -10.22501  -1.18342  -1.14434  -1.14353
 Alpha  occ. eigenvalues --   -1.13545  -1.12961  -1.12434  -1.10964  -1.10556
 Alpha  occ. eigenvalues --   -1.09992  -1.09471  -1.05439  -1.05028  -1.04584
 Alpha  occ. eigenvalues --   -1.04141  -1.01259  -0.99661  -0.99083  -0.98887
 Alpha  occ. eigenvalues --   -0.98582  -0.96943  -0.95068  -0.92606  -0.92542
 Alpha  occ. eigenvalues --   -0.90471  -0.88259  -0.87351  -0.86268  -0.85869
 Alpha  occ. eigenvalues --   -0.85171  -0.84950  -0.84881  -0.83656  -0.82068
 Alpha  occ. eigenvalues --   -0.81770  -0.80331  -0.79556  -0.79134  -0.77500
 Alpha  occ. eigenvalues --   -0.75875  -0.73986  -0.73447  -0.73331  -0.73163
 Alpha  occ. eigenvalues --   -0.72828  -0.72508  -0.71425  -0.71024  -0.70205
 Alpha  occ. eigenvalues --   -0.69450  -0.68953  -0.68671  -0.67709  -0.66826
 Alpha  occ. eigenvalues --   -0.66224  -0.66089  -0.65620  -0.65129  -0.64896
 Alpha  occ. eigenvalues --   -0.64722  -0.64045  -0.63898  -0.63584  -0.62784
 Alpha  occ. eigenvalues --   -0.62336  -0.62007  -0.61600  -0.61499  -0.61249
 Alpha  occ. eigenvalues --   -0.60258  -0.58820  -0.58769  -0.57641  -0.57470
 Alpha  occ. eigenvalues --   -0.56740  -0.56380  -0.56134  -0.55923  -0.55377
 Alpha  occ. eigenvalues --   -0.55176  -0.54931  -0.54566  -0.54227  -0.53974
 Alpha  occ. eigenvalues --   -0.53892  -0.53851  -0.53476  -0.52912  -0.52692
 Alpha  occ. eigenvalues --   -0.52485  -0.52317  -0.52055  -0.51746  -0.51459
 Alpha  occ. eigenvalues --   -0.51362  -0.51288  -0.50797  -0.50676  -0.50599
 Alpha  occ. eigenvalues --   -0.50299  -0.49836  -0.49650  -0.49583  -0.49529
 Alpha  occ. eigenvalues --   -0.49417  -0.48988  -0.48792  -0.48583  -0.48385
 Alpha  occ. eigenvalues --   -0.48246  -0.47841  -0.47526  -0.47475  -0.47235
 Alpha  occ. eigenvalues --   -0.47136  -0.46678  -0.46556  -0.46257  -0.46086
 Alpha  occ. eigenvalues --   -0.45769  -0.45438  -0.45345  -0.45024  -0.44933
 Alpha  occ. eigenvalues --   -0.44740  -0.44510  -0.44136  -0.44102  -0.43849
 Alpha  occ. eigenvalues --   -0.43478  -0.43407  -0.43292  -0.42790  -0.42566
 Alpha  occ. eigenvalues --   -0.42230  -0.41905  -0.41671  -0.41391  -0.41239
 Alpha  occ. eigenvalues --   -0.41073  -0.40990  -0.40617  -0.40179  -0.40047
 Alpha  occ. eigenvalues --   -0.39676  -0.39281  -0.38755  -0.38193  -0.38010
 Alpha  occ. eigenvalues --   -0.37763  -0.35922  -0.35857  -0.35569  -0.35396
 Alpha  occ. eigenvalues --   -0.34470  -0.34040  -0.33806  -0.33496  -0.33166
 Alpha  occ. eigenvalues --   -0.32924  -0.32712  -0.32168  -0.31975  -0.31842
 Alpha  occ. eigenvalues --   -0.31630  -0.31536  -0.31108  -0.30784  -0.30252
 Alpha  occ. eigenvalues --   -0.29368  -0.28952
 Alpha virt. eigenvalues --   -0.11928  -0.11208  -0.10765  -0.10358  -0.07847
 Alpha virt. eigenvalues --   -0.07150  -0.06696  -0.05802  -0.04866  -0.04647
 Alpha virt. eigenvalues --   -0.04100  -0.03137  -0.02844  -0.02602  -0.02213

 Mulliken charges:
               1
     1  N   -0.757066
     2  H    0.416347
     3  H    0.408637
     4  H    0.431507
     5  C   -0.114541
     6  H    0.237839
     7  C    0.637728
     8  C   -0.385859
     9  H    0.196003
    10  H    0.171214
    11  O   -0.557367
    12  C    0.156189
    13  C   -0.171134
    14  H    0.148181
    15  C   -0.204937
    16  H    0.139937
    17  C   -0.097483
    18  H    0.169139
    19  C   -0.154165
    20  H    0.165309
    21  C   -0.139945
    22  H    0.164313
    23  N   -0.616886
    24  H    0.433786
    25  C   -0.076470
    26  H    0.197635
    27  C    0.629586
    28  C   -0.457973
    29  H    0.166267
    30  H    0.202513
    31  H    0.169482
    32  O   -0.526523
    33  N   -0.574061
    34  H    0.337974
    35  C   -0.085999
    36  H    0.190741
    37  C    0.639801
    38  C   -0.461806
    39  H    0.174797
    40  H    0.162703
    41  H    0.177731
    42  O   -0.546535
    43  N   -0.605967
    44  H    0.350051
    45  C   -0.049233
    46  H    0.182783
    47  C    0.627018
    48  C   -0.370591
    49  H    0.163264
    50  H    0.164385
    51  O   -0.548302
    52  C    0.184254
    53  C   -0.157646
    54  H    0.141327
    55  C   -0.196350
    56  H    0.136515
    57  C   -0.167738
    58  H    0.123314
    59  C   -0.160310
    60  H    0.131047
    61  O   -0.711901
    62  H    0.434682
    63  C    0.340476
    64  N   -0.619345
    65  H    0.353106
    66  C   -0.048131
    67  H    0.176744
    68  C    0.604153
    69  C   -0.256193
    70  H    0.164832
    71  H    0.144017
    72  O   -0.541977
    73  C   -0.100839
    74  H    0.140426
    75  C   -0.444191
    76  H    0.149399
    77  H    0.154020
    78  H    0.137354
    79  C   -0.446744
    80  H    0.146035
    81  H    0.144905
    82  H    0.142114
    83  N   -0.607961
    84  H    0.367329
    85  C   -0.074715
    86  H    0.185852
    87  C    0.630522
    88  C   -0.273724
    89  H    0.177481
    90  H    0.163417
    91  O   -0.556454
    92  C   -0.338804
    93  H    0.180216
    94  H    0.189000
    95  C    0.565782
    96  O   -0.454383
    97  O   -0.563968
    98  N   -0.603692
    99  H    0.356242
   100  C   -0.070807
   101  H    0.169075
   102  C    0.600181
   103  C   -0.269058
   104  H    0.147174
   105  H    0.159203
   106  O   -0.603231
   107  C   -0.268474
   108  H    0.133011
   109  H    0.170313
   110  C   -0.173673
   111  H    0.161232
   112  H    0.187056
   113  N   -0.577058
   114  H    0.325417
   115  N   -0.731423
   116  H    0.462448
   117  H    0.302287
   118  N   -0.737803
   119  H    0.357282
   120  H    0.330603
   121  C    0.641568
   122  O   -0.477857
   123  H    0.413027
 Sum of Mulliken charges =   1.00000

 Dipole moment (field-independent basis, Debye):
    X=            -34.0554    Y=             11.0921    Z=             12.7874  Tot=             38.0305
 Quadrupole moment (field-independent basis, Debye-Ang):
   XX=            131.9199   YY=           -252.8439   ZZ=           -382.4843
   XY=           -194.4586   XZ=            -86.2293   YZ=             24.4939

 Normal termination of Gaussian 16 at Mon Jul 11 14:06:01 2022.
