 Gaussian 16, Revision C.01,
 Gaussian 16:  ES64L-G16RevC.01  3-Jul-2019

 ----------------------------------------------------------------------
 # B3LYP/6-31G* empiricaldispersion=gd3 guess=read geom=check nosymm in
 tegral(ultrafinegrid)
 ----------------------------------------------------------------------

 ------------------------------------------------------
 Candidate Structure: Conf:474 Charge calc in gas phase
 ------------------------------------------------------
 Structure from the checkpoint file:  "conf-474.chk"
 Charge =  1 Multiplicity = 1

                          Input orientation:
 ---------------------------------------------------------------------
 Center     Atomic      Atomic             Coordinates (Angstroms)
 Number     Number       Type             X           Y           Z
 ---------------------------------------------------------------------
      1          7           0       -6.932068    3.076347   -0.987337
      2          1           0       -7.580831    2.254277   -0.916455
      3          1           0       -6.713408    3.305567   -1.960163
      4          1           0       -7.395284    3.881972   -0.536084
      5          6           0       -5.719530    2.662455   -0.183355
      6          1           0       -4.956368    2.313556   -0.885433
      7          6           0       -6.235340    1.448431    0.629457
      8          6           0       -5.163062    3.854683    0.622559
      9          1           0       -4.761044    4.581600   -0.092099
     10          1           0       -4.292786    3.500139    1.180726
     11          8           0       -7.347217    0.979877    0.358341
     12          6           0       -6.203349    4.481217    1.523057
     13          6           0       -6.958051    5.574948    1.066973
     14          1           0       -6.708096    6.044554    0.115592
     15          6           0       -6.479952    3.945826    2.790990
     16          1           0       -5.893173    3.113855    3.173334
     17          6           0       -7.982584    6.113204    1.852263
     18          1           0       -8.549908    6.965788    1.490802
     19          6           0       -7.497330    4.489461    3.574590
     20          1           0       -7.695660    4.074658    4.558629
     21          6           0       -8.255820    5.566271    3.105501
     22          1           0       -9.046132    5.984747    3.721388
     23          7           0       -5.407786    0.947786    1.552300
     24          1           0       -4.562313    1.452242    1.785210
     25          6           0       -5.771000   -0.186611    2.414334
     26          1           0       -6.774548    0.010612    2.812948
     27          6           0       -4.789485   -0.125108    3.606387
     28          6           0       -5.793491   -1.498577    1.623073
     29          1           0       -6.178288   -2.319762    2.237679
     30          1           0       -4.795020   -1.756741    1.253566
     31          1           0       -6.466713   -1.392339    0.769890
     32          8           0       -4.441274    0.972751    4.049490
     33          7           0       -4.339817   -1.301973    4.105767
     34          1           0       -4.524329   -2.146572    3.580039
     35          6           0       -3.173517   -1.378680    5.014380
     36          1           0       -3.298015   -0.596157    5.766967
     37          6           0       -1.976210   -1.081140    4.086779
     38          6           0       -3.089864   -2.755540    5.656877
     39          1           0       -2.255626   -2.785392    6.363727
     40          1           0       -2.907170   -3.519353    4.894509
     41          1           0       -4.012721   -2.986048    6.196611
     42          8           0       -1.539879   -1.947139    3.326132
     43          7           0       -1.593448    0.222835    4.021704
     44          1           0       -2.130277    0.866988    4.590363
     45          6           0       -1.185761    0.753708    2.713431
     46          1           0       -1.640099    0.082611    1.977656
     47          6           0        0.327423    0.694398    2.421268
     48          6           0       -1.715455    2.176857    2.501580
     49          1           0       -2.692900    2.253377    2.995461
     50          1           0       -1.044414    2.884143    2.996924
     51          8           0        1.022081    1.712216    2.361669
     52          6           0       -1.839658    2.528800    1.030702
     53          6           0       -1.415051    3.777970    0.548354
     54          1           0       -0.941626    4.476220    1.234285
     55          6           0       -2.412055    1.645216    0.104893
     56          1           0       -2.743407    0.657061    0.417404
     57          6           0       -1.560840    4.136112   -0.787486
     58          1           0       -1.179748    5.083151   -1.155156
     59          6           0       -2.565818    1.978653   -1.242008
     60          1           0       -2.955776    1.260402   -1.956750
     61          8           0       -2.197058    3.595941   -2.999246
     62          1           0       -2.309619    2.760107   -3.583718
     63          6           0       -2.128038    3.235651   -1.713093
     64          7           0        0.781486   -0.540797    2.112857
     65          1           0        0.135752   -1.321086    2.215394
     66          6           0        2.100472   -0.762387    1.513343
     67          1           0        2.783250   -0.037211    1.965630
     68          6           0        1.949480   -0.442393   -0.000882
     69          6           0        2.585571   -2.189818    1.758984
     70          1           0        1.964183   -2.875297    1.170226
     71          1           0        3.601131   -2.272862    1.347534
     72          8           0        1.882468   -1.344562   -0.848638
     73          6           0        2.597520   -2.623945    3.237473
     74          1           0        1.561422   -2.606349    3.605455
     75          6           0        3.109078   -4.067295    3.345906
     76          1           0        4.151262   -4.139157    3.008985
     77          1           0        3.070486   -4.420608    4.382201
     78          1           0        2.510610   -4.752298    2.733598
     79          6           0        3.427746   -1.678597    4.117201
     80          1           0        4.460318   -1.608501    3.750388
     81          1           0        3.007893   -0.666864    4.145481
     82          1           0        3.468528   -2.045739    5.148611
     83          7           0        1.850101    0.879816   -0.261528
     84          1           0        1.847841    1.472385    0.569001
     85          6           0        1.221301    1.531956   -1.419993
     86          1           0        0.173988    1.713044   -1.152042
     87          6           0        1.265917    0.727413   -2.727694
     88          6           0        1.899035    2.894931   -1.649497
     89          1           0        1.742954    3.511716   -0.756901
     90          1           0        2.974846    2.728886   -1.767822
     91          8           0        2.336843    0.467968   -3.293727
     92          6           0        1.352390    3.627415   -2.891913
     93          1           0        0.258192    3.626077   -2.900014
     94          1           0        1.707126    3.139210   -3.801598
     95          6           0        1.835566    5.057795   -2.925219
     96          8           0        2.692958    5.505983   -3.649696
     97          8           0        1.198984    5.818947   -1.988750
     98          7           0        0.047558    0.476601   -3.233342
     99          1           0       -0.780747    0.856621   -2.780057
    100          6           0       -0.255486    0.089226   -4.607212
    101          1           0        0.585867    0.379061   -5.241584
    102          6           0       -1.525624    0.879435   -5.076595
    103          6           0       -0.550927   -1.420013   -4.739166
    104          1           0       -0.685872   -1.640709   -5.804019
    105          1           0       -1.513083   -1.621194   -4.251429
    106          8           0       -2.259709    1.311859   -4.106128
    107          6           0        0.508041   -2.322087   -4.094315
    108          1           0        0.153846   -3.360711   -4.072494
    109          1           0        0.643209   -2.002450   -3.054536
    110          6           0        1.873192   -2.261710   -4.799783
    111          1           0        2.050996   -1.252283   -5.171856
    112          1           0        1.927937   -2.964116   -5.637521
    113          7           0        2.945628   -2.558183   -3.827327
    114          1           0        2.679312   -3.180221   -3.071551
    115          7           0        4.533270   -0.953904   -4.452456
    116          1           0        4.672151    0.020474   -4.208090
    117          1           0        4.235655   -1.089452   -5.410047
    118          7           0        4.340854   -1.646220   -2.237603
    119          1           0        5.140246   -1.060261   -2.037238
    120          1           0        3.599781   -1.671892   -1.530534
    121          6           0        3.909749   -1.692833   -3.508103
    122          8           0       -1.718756    0.946939   -6.285019
    123          1           0        1.579786    6.714411   -2.063353
 ---------------------------------------------------------------------

 SCF Done:  E(RB3LYP) =  -2974.21004559     A.U. after    3 cycles

 Alpha  occ. eigenvalues --  -19.26058 -19.24997 -19.24126 -19.22668 -19.21097
 Alpha  occ. eigenvalues --  -19.20894 -19.20788 -19.19111 -19.17966 -19.13289
 Alpha  occ. eigenvalues --  -19.11730 -14.58193 -14.49453 -14.48325 -14.47104
 Alpha  occ. eigenvalues --  -14.46587 -14.46086 -14.45904 -14.44593 -14.44158
 Alpha  occ. eigenvalues --  -14.41449 -10.42862 -10.42859 -10.41249 -10.39119
 Alpha  occ. eigenvalues --  -10.38790 -10.37679 -10.37604 -10.37297 -10.35963
 Alpha  occ. eigenvalues --  -10.35329 -10.34372 -10.32838 -10.32127 -10.32024
 Alpha  occ. eigenvalues --  -10.31563 -10.30876 -10.30754 -10.30701 -10.30661
 Alpha  occ. eigenvalues --  -10.29823 -10.29416 -10.29226 -10.29105 -10.28993
 Alpha  occ. eigenvalues --  -10.28812 -10.28149 -10.27726 -10.27684 -10.27577
 Alpha  occ. eigenvalues --  -10.26969 -10.26563 -10.26418 -10.26167 -10.26036
 Alpha  occ. eigenvalues --  -10.25956 -10.25723 -10.25561 -10.25356 -10.24333
 Alpha  occ. eigenvalues --  -10.23836 -10.23728  -1.18408  -1.16071  -1.15564
 Alpha  occ. eigenvalues --   -1.14219  -1.12803  -1.12480  -1.12004  -1.11509
 Alpha  occ. eigenvalues --   -1.10139  -1.09408  -1.06638  -1.06002  -1.05669
 Alpha  occ. eigenvalues --   -1.04417  -1.02784  -1.01526  -1.01066  -1.00396
 Alpha  occ. eigenvalues --   -0.99629  -0.98517  -0.96806  -0.96367  -0.93407
 Alpha  occ. eigenvalues --   -0.92227  -0.89787  -0.88729  -0.87510  -0.87450
 Alpha  occ. eigenvalues --   -0.86274  -0.86247  -0.84882  -0.84605  -0.83203
 Alpha  occ. eigenvalues --   -0.82577  -0.81144  -0.80318  -0.79057  -0.79034
 Alpha  occ. eigenvalues --   -0.77559  -0.75458  -0.74875  -0.74732  -0.74167
 Alpha  occ. eigenvalues --   -0.73017  -0.72467  -0.72427  -0.72155  -0.71484
 Alpha  occ. eigenvalues --   -0.70582  -0.69965  -0.69917  -0.69407  -0.68826
 Alpha  occ. eigenvalues --   -0.68437  -0.68110  -0.67604  -0.66808  -0.66459
 Alpha  occ. eigenvalues --   -0.65525  -0.65370  -0.64882  -0.64489  -0.63505
 Alpha  occ. eigenvalues --   -0.63438  -0.62867  -0.62327  -0.61214  -0.61001
 Alpha  occ. eigenvalues --   -0.60786  -0.60490  -0.60156  -0.59886  -0.59647
 Alpha  occ. eigenvalues --   -0.59206  -0.58951  -0.57889  -0.57517  -0.57052
 Alpha  occ. eigenvalues --   -0.56933  -0.56551  -0.56285  -0.56157  -0.55756
 Alpha  occ. eigenvalues --   -0.55513  -0.55003  -0.54817  -0.54646  -0.53955
 Alpha  occ. eigenvalues --   -0.53733  -0.53413  -0.53147  -0.52863  -0.52426
 Alpha  occ. eigenvalues --   -0.52284  -0.52144  -0.51831  -0.51574  -0.51387
 Alpha  occ. eigenvalues --   -0.51197  -0.51090  -0.50733  -0.50652  -0.50384
 Alpha  occ. eigenvalues --   -0.50215  -0.50166  -0.49856  -0.49620  -0.49421
 Alpha  occ. eigenvalues --   -0.49219  -0.49115  -0.48884  -0.48634  -0.48449
 Alpha  occ. eigenvalues --   -0.48282  -0.47779  -0.47651  -0.47211  -0.47058
 Alpha  occ. eigenvalues --   -0.46896  -0.46590  -0.46496  -0.46302  -0.46158
 Alpha  occ. eigenvalues --   -0.45698  -0.45177  -0.45095  -0.44773  -0.44465
 Alpha  occ. eigenvalues --   -0.44360  -0.44236  -0.44168  -0.43826  -0.43368
 Alpha  occ. eigenvalues --   -0.43213  -0.43123  -0.42833  -0.42614  -0.42414
 Alpha  occ. eigenvalues --   -0.41581  -0.41266  -0.40365  -0.40227  -0.40110
 Alpha  occ. eigenvalues --   -0.39577  -0.39549  -0.39414  -0.39279  -0.39180
 Alpha  occ. eigenvalues --   -0.38985  -0.38563  -0.38131  -0.37780  -0.37099
 Alpha  occ. eigenvalues --   -0.37048  -0.36336  -0.36051  -0.35627  -0.35485
 Alpha  occ. eigenvalues --   -0.35016  -0.34439  -0.33581  -0.33364  -0.32743
 Alpha  occ. eigenvalues --   -0.32516  -0.32194  -0.31925  -0.29124  -0.28251
 Alpha  occ. eigenvalues --   -0.28108  -0.25433
 Alpha virt. eigenvalues --   -0.12067  -0.11336  -0.11057  -0.10984  -0.09475
 Alpha virt. eigenvalues --   -0.09258  -0.08593  -0.08457  -0.07528  -0.07078
 Alpha virt. eigenvalues --   -0.06040  -0.04534  -0.04108  -0.03590  -0.02483

 Mulliken charges:
               1
     1  N   -0.754356
     2  H    0.428664
     3  H    0.420191
     4  H    0.402929
     5  C   -0.121921
     6  H    0.245707
     7  C    0.655300
     8  C   -0.405549
     9  H    0.197826
    10  H    0.208240
    11  O   -0.538137
    12  C    0.144684
    13  C   -0.236364
    14  H    0.145209
    15  C   -0.191739
    16  H    0.163791
    17  C   -0.120155
    18  H    0.162561
    19  C   -0.128034
    20  H    0.160174
    21  C   -0.122796
    22  H    0.163367
    23  N   -0.616826
    24  H    0.376414
    25  C   -0.016301
    26  H    0.214252
    27  C    0.587463
    28  C   -0.494352
    29  H    0.172235
    30  H    0.171867
    31  H    0.208628
    32  O   -0.527278
    33  N   -0.591225
    34  H    0.357304
    35  C   -0.053490
    36  H    0.186198
    37  C    0.599937
    38  C   -0.474182
    39  H    0.183821
    40  H    0.181724
    41  H    0.175337
    42  O   -0.531515
    43  N   -0.573017
    44  H    0.358820
    45  C   -0.073576
    46  H    0.166477
    47  C    0.654639
    48  C   -0.412398
    49  H    0.167040
    50  H    0.194191
    51  O   -0.543084
    52  C    0.147775
    53  C   -0.199714
    54  H    0.147198
    55  C   -0.233223
    56  H    0.122150
    57  C   -0.183548
    58  H    0.171839
    59  C   -0.268711
    60  H    0.183961
    61  O   -0.675303
    62  H    0.458799
    63  C    0.349579
    64  N   -0.613933
    65  H    0.377979
    66  C   -0.072986
    67  H    0.187355
    68  C    0.620323
    69  C   -0.283896
    70  H    0.157173
    71  H    0.137165
    72  O   -0.565123
    73  C   -0.077528
    74  H    0.134370
    75  C   -0.443758
    76  H    0.144879
    77  H    0.152474
    78  H    0.143865
    79  C   -0.455938
    80  H    0.142891
    81  H    0.154060
    82  H    0.154096
    83  N   -0.618796
    84  H    0.379958
    85  C   -0.050598
    86  H    0.174958
    87  C    0.648203
    88  C   -0.289820
    89  H    0.168998
    90  H    0.165694
    91  O   -0.608068
    92  C   -0.370797
    93  H    0.204799
    94  H    0.190356
    95  C    0.558533
    96  O   -0.445860
    97  O   -0.567745
    98  N   -0.606378
    99  H    0.362982
   100  C   -0.069315
   101  H    0.160285
   102  C    0.587521
   103  C   -0.268323
   104  H    0.170573
   105  H    0.146341
   106  O   -0.668321
   107  C   -0.317489
   108  H    0.146457
   109  H    0.187140
   110  C   -0.148840
   111  H    0.183282
   112  H    0.175230
   113  N   -0.566485
   114  H    0.360321
   115  N   -0.712567
   116  H    0.378071
   117  H    0.366625
   118  N   -0.754986
   119  H    0.356017
   120  H    0.405692
   121  C    0.751311
   122  O   -0.520318
   123  H    0.412392
 Sum of Mulliken charges =   1.00000

 Dipole moment (field-independent basis, Debye):
    X=            -14.4979    Y=              1.7871    Z=              9.2064  Tot=             17.2668
 Quadrupole moment (field-independent basis, Debye-Ang):
   XX=           -167.9970   YY=           -300.4376   ZZ=           -353.0562
   XY=            -79.6813   XZ=            -61.0027   YZ=             20.8541

 Normal termination of Gaussian 16 at Mon Jul 11 14:07:31 2022.
