 Gaussian 16, Revision C.01,
 Gaussian 16:  ES64L-G16RevC.01  3-Jul-2019

 ----------------------------------------------------------------------
 # B3LYP/6-31G* empiricaldispersion=gd3 guess=read geom=check nosymm in
 tegral(ultrafinegrid)
 ----------------------------------------------------------------------

 ------------------------------------------------------
 Candidate Structure: Conf:669 Charge calc in gas phase
 ------------------------------------------------------
 Structure from the checkpoint file:  "conf-669.chk"
 Charge =  1 Multiplicity = 1

                          Input orientation:
 ---------------------------------------------------------------------
 Center     Atomic      Atomic             Coordinates (Angstroms)
 Number     Number       Type             X           Y           Z
 ---------------------------------------------------------------------
      1          7           0       -0.119084    3.567837    1.365276
      2          1           0        0.165770    4.107301    0.542732
      3          1           0        0.627464    2.867137    1.560561
      4          1           0       -0.274084    4.196979    2.162499
      5          6           0       -1.387153    2.827647    1.070293
      6          1           0       -1.193960    2.274884    0.156126
      7          6           0       -2.507388    3.843534    0.887956
      8          6           0       -1.724607    1.842471    2.212973
      9          1           0       -1.074867    0.975803    2.092072
     10          1           0       -2.745847    1.494968    2.054303
     11          8           0       -2.478428    4.924803    1.462919
     12          6           0       -1.579499    2.432180    3.598798
     13          6           0       -0.366001    2.319491    4.295201
     14          1           0        0.462420    1.772929    3.850287
     15          6           0       -2.643315    3.126913    4.191459
     16          1           0       -3.588153    3.201334    3.663267
     17          6           0       -0.216738    2.892643    5.560265
     18          1           0        0.725673    2.791700    6.091982
     19          6           0       -2.491681    3.696948    5.455224
     20          1           0       -3.324809    4.227628    5.907465
     21          6           0       -1.279995    3.584838    6.141657
     22          1           0       -1.167639    4.029093    7.126684
     23          7           0       -3.513148    3.386813    0.095655
     24          1           0       -3.398568    2.465028   -0.313042
     25          6           0       -4.895534    3.841477    0.229824
     26          1           0       -4.865836    4.716662    0.885451
     27          6           0       -5.615328    2.726524    1.025281
     28          6           0       -5.490284    4.222653   -1.126043
     29          1           0       -6.522596    4.573433   -1.020143
     30          1           0       -5.469696    3.377213   -1.824307
     31          1           0       -4.902459    5.031090   -1.568127
     32          8           0       -5.164384    2.378769    2.119834
     33          7           0       -6.684284    2.123093    0.459897
     34          1           0       -6.987446    2.387942   -0.466737
     35          6           0       -7.376467    0.995060    1.100260
     36          1           0       -7.308242    1.168134    2.178470
     37          6           0       -6.641072   -0.327609    0.756219
     38          6           0       -8.831483    0.944382    0.651370
     39          1           0       -9.352620    0.131287    1.162591
     40          1           0       -8.898595    0.743108   -0.422274
     41          1           0       -9.333929    1.888145    0.883526
     42          8           0       -7.107288   -1.130987   -0.048009
     43          7           0       -5.450808   -0.489925    1.387906
     44          1           0       -5.128450    0.208048    2.056161
     45          6           0       -4.616645   -1.667579    1.222548
     46          1           0       -5.179058   -2.558079    1.542997
     47          6           0       -3.419674   -1.498677    2.185875
     48          6           0       -4.211643   -1.909833   -0.259385
     49          1           0       -3.622396   -2.833971   -0.313628
     50          1           0       -5.139565   -2.098550   -0.801169
     51          8           0       -3.360593   -0.546109    2.958665
     52          6           0       -3.446324   -0.779368   -0.907796
     53          6           0       -4.052077    0.113457   -1.804589
     54          1           0       -5.112334    0.005527   -2.019723
     55          6           0       -2.083008   -0.608353   -0.645328
     56          1           0       -1.593104   -1.271761    0.055489
     57          6           0       -3.318680    1.127797   -2.432793
     58          1           0       -3.790263    1.812751   -3.131006
     59          6           0       -1.338884    0.392913   -1.257806
     60          1           0       -0.290640    0.531116   -1.028140
     61          8           0       -1.230873    2.262974   -2.777792
     62          1           0       -0.439850    2.487272   -2.205680
     63          6           0       -1.952615    1.273346   -2.157665
     64          7           0       -2.445196   -2.448683    2.127764
     65          1           0       -2.542843   -3.251339    1.519996
     66          6           0       -1.224814   -2.376345    2.937491
     67          1           0       -1.278948   -1.416053    3.456351
     68          6           0       -0.038920   -2.406367    1.953458
     69          6           0       -1.099776   -3.508149    3.966783
     70          1           0       -1.000341   -4.464139    3.437410
     71          1           0       -0.144648   -3.349047    4.485985
     72          8           0        0.238310   -3.427001    1.325200
     73          6           0       -2.248490   -3.568223    5.001764
     74          1           0       -2.599858   -2.541930    5.182165
     75          6           0       -3.441150   -4.402960    4.506545
     76          1           0       -3.134797   -5.441004    4.323447
     77          1           0       -4.239289   -4.420014    5.256928
     78          1           0       -3.867186   -4.010017    3.578783
     79          6           0       -1.729293   -4.136220    6.331605
     80          1           0       -1.328862   -5.148707    6.192694
     81          1           0       -0.929624   -3.513258    6.749185
     82          1           0       -2.532451   -4.195418    7.074429
     83          7           0        0.608750   -1.223236    1.776762
     84          1           0        0.385683   -0.422294    2.355923
     85          6           0        1.686815   -1.003595    0.822457
     86          1           0        2.601928   -1.497095    1.185935
     87          6           0        1.977616    0.520839    0.828907
     88          6           0        1.351554   -1.568197   -0.596376
     89          1           0        0.313948   -1.888835   -0.603629
     90          1           0        1.437716   -0.778074   -1.346684
     91          8           0        1.420771    1.255998    1.663527
     92          6           0        2.215095   -2.761543   -1.006297
     93          1           0        1.732655   -3.314256   -1.825045
     94          1           0        2.309945   -3.479561   -0.187607
     95          6           0        3.571832   -2.358084   -1.523072
     96          8           0        3.850140   -1.243879   -1.963879
     97          8           0        4.459831   -3.349053   -1.493722
     98          7           0        2.873921    0.959312   -0.063632
     99          1           0        3.246730    0.294074   -0.733111
    100          6           0        3.138481    2.379606   -0.295335
    101          1           0        3.067313    2.865635    0.685348
    102          6           0        2.026540    3.037002   -1.176620
    103          6           0        4.559721    2.632494   -0.824455
    104          1           0        5.269760    2.387470   -0.025686
    105          1           0        4.626226    3.709334   -0.998717
    106          8           0        2.357657    4.018641   -1.873770
    107          6           0        5.025282    1.892289   -2.095752
    108          1           0        5.143706    0.818559   -1.905064
    109          1           0        6.034902    2.257314   -2.318284
    110          6           0        4.200210    2.083125   -3.378060
    111          1           0        4.800942    1.790451   -4.247513
    112          1           0        3.913976    3.126438   -3.493999
    113          7           0        2.986454    1.243662   -3.367866
    114          1           0        3.135243    0.280389   -3.076567
    115          7           0        1.443877    2.812495   -4.159990
    116          1           0        0.486675    2.947022   -4.464758
    117          1           0        1.788277    3.541627   -3.511572
    118          7           0        0.877921    0.566548   -4.067351
    119          1           0       -0.099730    0.809830   -3.939325
    120          1           0        1.133557   -0.395735   -3.899419
    121          6           0        1.778903    1.550829   -3.849427
    122          8           0        0.863423    2.525636   -1.089325
    123          1           0        5.297784   -3.028448   -1.881664
 ---------------------------------------------------------------------

 SCF Done:  E(RB3LYP) =  -2974.29636248     A.U. after    1 cycles

 Alpha  occ. eigenvalues --  -19.32291 -19.27587 -19.25863 -19.24355 -19.21378
 Alpha  occ. eigenvalues --  -19.21171 -19.20806 -19.20787 -19.20380 -19.19878
 Alpha  occ. eigenvalues --  -19.18719 -14.53731 -14.49181 -14.48839 -14.47282
 Alpha  occ. eigenvalues --  -14.46748 -14.46131 -14.45512 -14.45370 -14.45217
 Alpha  occ. eigenvalues --  -14.42715 -10.45342 -10.44837 -10.41012 -10.38440
 Alpha  occ. eigenvalues --  -10.38239 -10.38114 -10.38023 -10.37655 -10.35795
 Alpha  occ. eigenvalues --  -10.35309 -10.34178 -10.34145 -10.33113 -10.32873
 Alpha  occ. eigenvalues --  -10.32494 -10.32180 -10.31883 -10.31167 -10.31096
 Alpha  occ. eigenvalues --  -10.30587 -10.29022 -10.28409 -10.28355 -10.28291
 Alpha  occ. eigenvalues --  -10.28153 -10.28134 -10.27841 -10.27653 -10.27522
 Alpha  occ. eigenvalues --  -10.27396 -10.26650 -10.25874 -10.25780 -10.25568
 Alpha  occ. eigenvalues --  -10.25509 -10.25287 -10.25106 -10.25101 -10.24787
 Alpha  occ. eigenvalues --  -10.23482 -10.23176  -1.23655  -1.15909  -1.14479
 Alpha  occ. eigenvalues --   -1.14359  -1.13671  -1.13427  -1.13321  -1.13034
 Alpha  occ. eigenvalues --   -1.12718  -1.12372  -1.10411  -1.08622  -1.04948
 Alpha  occ. eigenvalues --   -1.03812  -1.03040  -1.02539  -1.02148  -1.01539
 Alpha  occ. eigenvalues --   -1.01367  -1.01026  -0.99518  -0.94622  -0.92358
 Alpha  occ. eigenvalues --   -0.91879  -0.89741  -0.88800  -0.88372  -0.87019
 Alpha  occ. eigenvalues --   -0.86132  -0.86047  -0.84170  -0.84131  -0.83720
 Alpha  occ. eigenvalues --   -0.82491  -0.81149  -0.80727  -0.80689  -0.78599
 Alpha  occ. eigenvalues --   -0.77290  -0.75469  -0.75214  -0.74809  -0.74207
 Alpha  occ. eigenvalues --   -0.73614  -0.73003  -0.71849  -0.71408  -0.71190
 Alpha  occ. eigenvalues --   -0.70934  -0.70128  -0.69306  -0.69047  -0.68555
 Alpha  occ. eigenvalues --   -0.68247  -0.68150  -0.67788  -0.67545  -0.67515
 Alpha  occ. eigenvalues --   -0.66559  -0.66390  -0.65686  -0.64880  -0.64479
 Alpha  occ. eigenvalues --   -0.64129  -0.63295  -0.63018  -0.62740  -0.62077
 Alpha  occ. eigenvalues --   -0.61991  -0.61195  -0.61009  -0.60144  -0.59943
 Alpha  occ. eigenvalues --   -0.59104  -0.58553  -0.58339  -0.58198  -0.57713
 Alpha  occ. eigenvalues --   -0.57321  -0.57218  -0.56928  -0.56635  -0.56300
 Alpha  occ. eigenvalues --   -0.56091  -0.55929  -0.55661  -0.55192  -0.54847
 Alpha  occ. eigenvalues --   -0.54642  -0.54252  -0.53727  -0.53419  -0.53245
 Alpha  occ. eigenvalues --   -0.53007  -0.52676  -0.52516  -0.52312  -0.51950
 Alpha  occ. eigenvalues --   -0.51702  -0.51551  -0.51348  -0.51023  -0.50818
 Alpha  occ. eigenvalues --   -0.50645  -0.50411  -0.49963  -0.49853  -0.49712
 Alpha  occ. eigenvalues --   -0.49654  -0.49435  -0.49181  -0.49145  -0.48449
 Alpha  occ. eigenvalues --   -0.48355  -0.48243  -0.47932  -0.47764  -0.47625
 Alpha  occ. eigenvalues --   -0.47578  -0.47243  -0.47186  -0.46945  -0.46693
 Alpha  occ. eigenvalues --   -0.46529  -0.46085  -0.45848  -0.45606  -0.45341
 Alpha  occ. eigenvalues --   -0.45277  -0.45001  -0.44920  -0.44718  -0.44529
 Alpha  occ. eigenvalues --   -0.44108  -0.44045  -0.43871  -0.43653  -0.43421
 Alpha  occ. eigenvalues --   -0.42696  -0.42498  -0.42375  -0.42196  -0.41292
 Alpha  occ. eigenvalues --   -0.41214  -0.40538  -0.40266  -0.40236  -0.39685
 Alpha  occ. eigenvalues --   -0.39337  -0.39193  -0.38777  -0.38542  -0.37769
 Alpha  occ. eigenvalues --   -0.36383  -0.36149  -0.36056  -0.35781  -0.35716
 Alpha  occ. eigenvalues --   -0.35363  -0.34856  -0.34692  -0.34394  -0.33606
 Alpha  occ. eigenvalues --   -0.33340  -0.33092  -0.32426  -0.31508  -0.31474
 Alpha  occ. eigenvalues --   -0.31396  -0.31040
 Alpha virt. eigenvalues --   -0.12620  -0.10585  -0.10138  -0.09854  -0.09164
 Alpha virt. eigenvalues --   -0.08936  -0.08111  -0.07172  -0.06921  -0.06176
 Alpha virt. eigenvalues --   -0.05972  -0.05655  -0.05345  -0.04548  -0.03636

 Mulliken charges:
               1
     1  N   -0.759543
     2  H    0.409256
     3  H    0.450613
     4  H    0.408988
     5  C   -0.143999
     6  H    0.214702
     7  C    0.648209
     8  C   -0.383036
     9  H    0.150174
    10  H    0.223409
    11  O   -0.517854
    12  C    0.121885
    13  C   -0.237761
    14  H    0.142084
    15  C   -0.166772
    16  H    0.183522
    17  C   -0.129447
    18  H    0.137946
    19  C   -0.134577
    20  H    0.146416
    21  C   -0.126011
    22  H    0.144865
    23  N   -0.598824
    24  H    0.359075
    25  C   -0.059019
    26  H    0.217199
    27  C    0.607786
    28  C   -0.483742
    29  H    0.170734
    30  H    0.150483
    31  H    0.189671
    32  O   -0.521457
    33  N   -0.600347
    34  H    0.345936
    35  C   -0.063357
    36  H    0.192682
    37  C    0.629910
    38  C   -0.461586
    39  H    0.183149
    40  H    0.169155
    41  H    0.160286
    42  O   -0.528811
    43  N   -0.651054
    44  H    0.397985
    45  C   -0.022815
    46  H    0.191704
    47  C    0.615627
    48  C   -0.401132
    49  H    0.143521
    50  H    0.215558
    51  O   -0.517442
    52  C    0.182262
    53  C   -0.212658
    54  H    0.160908
    55  C   -0.198189
    56  H    0.152089
    57  C   -0.192399
    58  H    0.153786
    59  C   -0.248790
    60  H    0.175309
    61  O   -0.727409
    62  H    0.447201
    63  C    0.313068
    64  N   -0.616968
    65  H    0.345815
    66  C   -0.061890
    67  H    0.188371
    68  C    0.615425
    69  C   -0.269599
    70  H    0.160506
    71  H    0.145508
    72  O   -0.537044
    73  C   -0.076922
    74  H    0.146466
    75  C   -0.447256
    76  H    0.146838
    77  H    0.156535
    78  H    0.127324
    79  C   -0.448082
    80  H    0.147576
    81  H    0.143897
    82  H    0.154399
    83  N   -0.651581
    84  H    0.381851
    85  C   -0.010171
    86  H    0.188303
    87  C    0.634284
    88  C   -0.308349
    89  H    0.199700
    90  H    0.140342
    91  O   -0.583838
    92  C   -0.372235
    93  H    0.202812
    94  H    0.232682
    95  C    0.588058
    96  O   -0.508709
    97  O   -0.519624
    98  N   -0.614245
    99  H    0.384233
   100  C   -0.076372
   101  H    0.174734
   102  C    0.609813
   103  C   -0.277640
   104  H    0.155691
   105  H    0.187736
   106  O   -0.566950
   107  C   -0.323582
   108  H    0.160736
   109  H    0.174653
   110  C   -0.141592
   111  H    0.179062
   112  H    0.209863
   113  N   -0.632063
   114  H    0.381112
   115  N   -0.744326
   116  H    0.367748
   117  H    0.408628
   118  N   -0.767054
   119  H    0.392097
   120  H    0.356376
   121  C    0.748584
   122  O   -0.631841
   123  H    0.431049
 Sum of Mulliken charges =   1.00000

 Dipole moment (field-independent basis, Debye):
    X=              3.0900    Y=              1.9775    Z=             -4.7532  Tot=              6.0043
 Quadrupole moment (field-independent basis, Debye-Ang):
   XX=           -269.2412   YY=           -338.2447   ZZ=           -316.8934
   XY=            -22.3175   XZ=            -16.5653   YZ=             -2.4431

 Normal termination of Gaussian 16 at Mon Jul 11 14:06:23 2022.
