 Gaussian 16, Revision C.01,
 Gaussian 16:  ES64L-G16RevC.01  3-Jul-2019

 ----------------------------------------------------------------------
 # B3LYP/6-31G* empiricaldispersion=gd3 guess=read geom=check nosymm in
 tegral(ultrafinegrid)
 ----------------------------------------------------------------------

 ------------------------------------------------------
 Candidate Structure: Conf:962 Charge calc in gas phase
 ------------------------------------------------------
 Structure from the checkpoint file:  "conf-962.chk"
 Charge =  1 Multiplicity = 1

                          Input orientation:
 ---------------------------------------------------------------------
 Center     Atomic      Atomic             Coordinates (Angstroms)
 Number     Number       Type             X           Y           Z
 ---------------------------------------------------------------------
      1          7           0      -10.457515    5.194685    2.340957
      2          1           0      -10.900844    5.435318    1.451726
      3          1           0      -10.740169    5.884211    3.044073
      4          1           0      -10.740820    4.215069    2.672404
      5          6           0       -8.947545    5.047066    2.257158
      6          1           0       -8.702795    4.944410    1.196775
      7          6           0       -8.718973    3.663660    2.937089
      8          6           0       -8.230066    6.272536    2.850410
      9          1           0       -8.438708    6.324127    3.926218
     10          1           0       -8.667558    7.169557    2.389833
     11          8           0       -9.735206    2.988043    3.188188
     12          6           0       -6.733088    6.244326    2.604519
     13          6           0       -5.835226    6.214720    3.677516
     14          1           0       -6.211068    6.222060    4.697668
     15          6           0       -6.232493    6.219330    1.292979
     16          1           0       -6.914308    6.262390    0.445031
     17          6           0       -4.459699    6.151781    3.445680
     18          1           0       -3.775869    6.109701    4.287274
     19          6           0       -4.860674    6.142589    1.062597
     20          1           0       -4.474135    6.082015    0.051106
     21          6           0       -3.971855    6.106555    2.141161
     22          1           0       -2.908615    6.012976    1.948223
     23          7           0       -7.474156    3.276712    3.160213
     24          1           0       -6.672260    3.884866    2.985421
     25          6           0       -7.132506    1.953177    3.684372
     26          1           0       -7.818880    1.714229    4.503243
     27          6           0       -5.687677    2.067346    4.201047
     28          6           0       -7.228669    0.879441    2.584314
     29          1           0       -6.885126   -0.091714    2.952989
     30          1           0       -6.595840    1.157688    1.735602
     31          1           0       -8.264626    0.787035    2.247340
     32          8           0       -4.980009    3.012393    3.855015
     33          7           0       -5.287026    1.057370    5.010534
     34          1           0       -5.878032    0.232198    5.034455
     35          6           0       -3.868434    0.738846    5.179514
     36          1           0       -3.312350    1.656447    4.974207
     37          6           0       -3.524638   -0.347290    4.134671
     38          6           0       -3.584034    0.236419    6.598181
     39          1           0       -2.520362    0.005364    6.711858
     40          1           0       -4.152737   -0.677713    6.802135
     41          1           0       -3.860982    0.995745    7.335177
     42          8           0       -4.384816   -1.155850    3.776120
     43          7           0       -2.259601   -0.324550    3.680835
     44          1           0       -1.618996    0.421536    3.940993
     45          6           0       -1.751920   -1.166350    2.611880
     46          1           0       -1.846221   -2.220720    2.899043
     47          6           0       -0.262614   -0.795732    2.471003
     48          6           0       -2.523777   -0.960550    1.268234
     49          1           0       -2.084887   -1.619954    0.510666
     50          1           0       -3.545465   -1.306593    1.445750
     51          8           0        0.205007    0.179604    3.054413
     52          6           0       -2.515315    0.471687    0.790473
     53          6           0       -3.428729    1.399022    1.311211
     54          1           0       -4.187443    1.061154    2.008473
     55          6           0       -1.564068    0.931878   -0.127294
     56          1           0       -0.862176    0.230946   -0.568922
     57          6           0       -3.387983    2.744023    0.960861
     58          1           0       -4.083446    3.450326    1.397457
     59          6           0       -1.513021    2.276476   -0.496713
     60          1           0       -0.763711    2.614061   -1.209895
     61          8           0       -2.403129    4.526554   -0.254470
     62          1           0       -1.672501    4.700366   -0.868443
     63          6           0       -2.417814    3.186631    0.056717
     64          7           0        0.466982   -1.615255    1.669324
     65          1           0       -0.029848   -2.262743    1.067672
     66          6           0        1.770771   -1.211981    1.151587
     67          1           0        2.115171   -0.384431    1.773939
     68          6           0        1.588988   -0.782632   -0.309369
     69          6           0        2.759768   -2.397333    1.197247
     70          1           0        2.849385   -2.723914    2.241191
     71          1           0        2.302510   -3.224525    0.638111
     72          8           0        0.869762   -1.442555   -1.064063
     73          6           0        4.161301   -2.114125    0.617987
     74          1           0        4.038771   -1.727142   -0.403323
     75          6           0        4.934023   -1.070564    1.437185
     76          1           0        5.063397   -1.411635    2.471931
     77          1           0        5.929810   -0.903960    1.011040
     78          1           0        4.435307   -0.097214    1.462175
     79          6           0        4.962779   -3.419739    0.516967
     80          1           0        5.123852   -3.861387    1.508273
     81          1           0        4.443391   -4.161925   -0.100692
     82          1           0        5.948047   -3.236499    0.071165
     83          7           0        2.294378    0.299245   -0.704384
     84          1           0        2.974803    0.713376   -0.073664
     85          6           0        2.601142    0.523322   -2.111460
     86          1           0        2.600606   -0.452943   -2.601751
     87          6           0        4.036213    1.092339   -2.149307
     88          6           0        1.502989    1.367968   -2.796811
     89          1           0        0.561109    0.871408   -2.539904
     90          1           0        1.481758    2.362902   -2.335889
     91          8           0        4.657763    1.256928   -1.073860
     92          6           0        1.573281    1.544770   -4.327244
     93          1           0        2.380454    2.228383   -4.630225
     94          1           0        0.639357    1.991593   -4.678879
     95          6           0        1.837732    0.290076   -5.127397
     96          8           0        2.635344   -0.594411   -4.845082
     97          8           0        1.120461    0.255266   -6.260912
     98          7           0        4.598741    1.267950   -3.345231
     99          1           0        4.050955    1.252932   -4.231334
    100          6           0        5.727281    2.165142   -3.648263
    101          1           0        5.681835    3.020466   -2.963997
    102          6           0        5.418459    2.685267   -5.127725
    103          6           0        7.139600    1.567751   -3.590822
    104          1           0        7.754892    2.302757   -4.117082
    105          1           0        7.169543    0.656577   -4.206870
    106          8           0        6.267943    3.437996   -5.609847
    107          6           0        7.725250    1.297425   -2.183298
    108          1           0        7.120363    1.798534   -1.420409
    109          1           0        8.740624    1.704801   -2.102922
    110          6           0        7.823903   -0.193147   -1.829405
    111          1           0        8.190618   -0.337444   -0.807406
    112          1           0        8.514339   -0.696964   -2.513201
    113          7           0        6.498081   -0.825986   -1.957308
    114          1           0        5.741715   -0.246291   -1.582200
    115          7           0        7.068355   -2.742339   -3.145161
    116          1           0        7.010246   -3.228001   -4.028271
    117          1           0        7.919432   -2.843766   -2.612580
    118          7           0        4.953914   -1.819432   -3.378574
    119          1           0        4.646529   -2.641046   -3.879671
    120          1           0        4.466877   -0.953557   -3.604268
    121          6           0        6.179330   -1.774153   -2.834082
    122          8           0        4.331480    2.236754   -5.615428
    123          1           0        1.425067   -0.520165   -6.769833
 ---------------------------------------------------------------------

 SCF Done:  E(RB3LYP) =  -2974.17594293     A.U. after    2 cycles

 Alpha  occ. eigenvalues --  -19.26583 -19.25122 -19.24459 -19.21782 -19.19925
 Alpha  occ. eigenvalues --  -19.18940 -19.18877 -19.18442 -19.17964 -19.09268
 Alpha  occ. eigenvalues --  -19.07857 -14.59607 -14.48886 -14.47824 -14.45943
 Alpha  occ. eigenvalues --  -14.45925 -14.44996 -14.42838 -14.42756 -14.41784
 Alpha  occ. eigenvalues --  -14.39759 -10.43274 -10.43086 -10.40649 -10.38650
 Alpha  occ. eigenvalues --  -10.38064 -10.35886 -10.35857 -10.34824 -10.34706
 Alpha  occ. eigenvalues --  -10.34254 -10.33883 -10.31247 -10.30913 -10.30582
 Alpha  occ. eigenvalues --  -10.30536 -10.30364 -10.29462 -10.29172 -10.28795
 Alpha  occ. eigenvalues --  -10.28533 -10.27728 -10.27665 -10.27622 -10.27296
 Alpha  occ. eigenvalues --  -10.26902 -10.25894 -10.25611 -10.25539 -10.25467
 Alpha  occ. eigenvalues --  -10.25025 -10.24883 -10.24811 -10.24777 -10.24676
 Alpha  occ. eigenvalues --  -10.24596 -10.24373 -10.24241 -10.24015 -10.23708
 Alpha  occ. eigenvalues --  -10.23298 -10.22142  -1.19032  -1.16249  -1.13863
 Alpha  occ. eigenvalues --   -1.13288  -1.12122  -1.11575  -1.11245  -1.10452
 Alpha  occ. eigenvalues --   -1.10059  -1.09242  -1.06997  -1.05619  -1.02214
 Alpha  occ. eigenvalues --   -1.01714  -1.00780  -0.99736  -0.99684  -0.99328
 Alpha  occ. eigenvalues --   -0.98577  -0.96655  -0.96160  -0.93317  -0.92288
 Alpha  occ. eigenvalues --   -0.91204  -0.88411  -0.87795  -0.85848  -0.85748
 Alpha  occ. eigenvalues --   -0.84875  -0.84773  -0.83677  -0.83504  -0.81713
 Alpha  occ. eigenvalues --   -0.80572  -0.79966  -0.79397  -0.78893  -0.77815
 Alpha  occ. eigenvalues --   -0.76522  -0.74398  -0.74317  -0.74184  -0.73606
 Alpha  occ. eigenvalues --   -0.72735  -0.72252  -0.72058  -0.71644  -0.70418
 Alpha  occ. eigenvalues --   -0.69882  -0.69507  -0.68790  -0.68248  -0.67799
 Alpha  occ. eigenvalues --   -0.67377  -0.66525  -0.66050  -0.65646  -0.65547
 Alpha  occ. eigenvalues --   -0.65032  -0.64557  -0.63505  -0.63369  -0.63168
 Alpha  occ. eigenvalues --   -0.62794  -0.62085  -0.61851  -0.60681  -0.60553
 Alpha  occ. eigenvalues --   -0.60358  -0.59845  -0.59752  -0.59666  -0.57564
 Alpha  occ. eigenvalues --   -0.57012  -0.56440  -0.56186  -0.55968  -0.55720
 Alpha  occ. eigenvalues --   -0.55354  -0.55010  -0.54740  -0.54567  -0.54494
 Alpha  occ. eigenvalues --   -0.54297  -0.53765  -0.53546  -0.53371  -0.53188
 Alpha  occ. eigenvalues --   -0.52656  -0.52231  -0.52164  -0.51947  -0.51544
 Alpha  occ. eigenvalues --   -0.51165  -0.50946  -0.50806  -0.50667  -0.50457
 Alpha  occ. eigenvalues --   -0.50322  -0.49846  -0.49607  -0.49497  -0.49317
 Alpha  occ. eigenvalues --   -0.49158  -0.49000  -0.48961  -0.48560  -0.48361
 Alpha  occ. eigenvalues --   -0.47821  -0.47488  -0.47383  -0.46911  -0.46774
 Alpha  occ. eigenvalues --   -0.46685  -0.46604  -0.46147  -0.46016  -0.45928
 Alpha  occ. eigenvalues --   -0.45370  -0.45188  -0.44915  -0.44829  -0.44476
 Alpha  occ. eigenvalues --   -0.44428  -0.44301  -0.43639  -0.43534  -0.43470
 Alpha  occ. eigenvalues --   -0.43307  -0.43091  -0.42944  -0.42752  -0.42353
 Alpha  occ. eigenvalues --   -0.42133  -0.41266  -0.40889  -0.40811  -0.40292
 Alpha  occ. eigenvalues --   -0.40156  -0.39546  -0.39297  -0.39196  -0.39011
 Alpha  occ. eigenvalues --   -0.38847  -0.38760  -0.38682  -0.38372  -0.38230
 Alpha  occ. eigenvalues --   -0.37927  -0.37386  -0.36305  -0.35903  -0.35397
 Alpha  occ. eigenvalues --   -0.35270  -0.34013  -0.33940  -0.33806  -0.33592
 Alpha  occ. eigenvalues --   -0.33166  -0.32633  -0.32361  -0.32135  -0.31915
 Alpha  occ. eigenvalues --   -0.31128  -0.30927  -0.30731  -0.27814  -0.24257
 Alpha  occ. eigenvalues --   -0.24199  -0.22015
 Alpha virt. eigenvalues --   -0.12597  -0.10764  -0.09876  -0.09273  -0.08613
 Alpha virt. eigenvalues --   -0.07764  -0.06409  -0.05932  -0.05462  -0.05262
 Alpha virt. eigenvalues --   -0.05009  -0.04594  -0.04496  -0.03674  -0.03412

 Mulliken charges:
               1
     1  N   -0.762685
     2  H    0.414719
     3  H    0.412456
     4  H    0.437257
     5  C   -0.113138
     6  H    0.229341
     7  C    0.648392
     8  C   -0.370952
     9  H    0.177372
    10  H    0.183733
    11  O   -0.551107
    12  C    0.115531
    13  C   -0.183224
    14  H    0.140137
    15  C   -0.185951
    16  H    0.124475
    17  C   -0.091767
    18  H    0.158626
    19  C   -0.125616
    20  H    0.171283
    21  C   -0.126040
    22  H    0.171686
    23  N   -0.614074
    24  H    0.409650
    25  C   -0.062870
    26  H    0.193902
    27  C    0.621192
    28  C   -0.469166
    29  H    0.197261
    30  H    0.177150
    31  H    0.181629
    32  O   -0.525056
    33  N   -0.575633
    34  H    0.346944
    35  C   -0.092144
    36  H    0.191318
    37  C    0.638889
    38  C   -0.449584
    39  H    0.173354
    40  H    0.167234
    41  H    0.171982
    42  O   -0.556702
    43  N   -0.614790
    44  H    0.364508
    45  C   -0.027928
    46  H    0.181061
    47  C    0.623786
    48  C   -0.396602
    49  H    0.159714
    50  H    0.191858
    51  O   -0.530173
    52  C    0.166220
    53  C   -0.205891
    54  H    0.130088
    55  C   -0.215395
    56  H    0.172371
    57  C   -0.167418
    58  H    0.148070
    59  C   -0.192072
    60  H    0.126656
    61  O   -0.659262
    62  H    0.413738
    63  C    0.338806
    64  N   -0.602230
    65  H    0.344535
    66  C   -0.080683
    67  H    0.187060
    68  C    0.623144
    69  C   -0.256413
    70  H    0.153409
    71  H    0.145867
    72  O   -0.560681
    73  C   -0.094300
    74  H    0.125632
    75  C   -0.448249
    76  H    0.148302
    77  H    0.142388
    78  H    0.154129
    79  C   -0.443906
    80  H    0.152666
    81  H    0.144240
    82  H    0.128513
    83  N   -0.600393
    84  H    0.365715
    85  C   -0.061467
    86  H    0.198520
    87  C    0.543191
    88  C   -0.275122
    89  H    0.179250
    90  H    0.151579
    91  O   -0.575205
    92  C   -0.413228
    93  H    0.254485
    94  H    0.175529
    95  C    0.637577
    96  O   -0.516935
    97  O   -0.548352
    98  N   -0.639292
    99  H    0.398081
   100  C   -0.073348
   101  H    0.157326
   102  C    0.588497
   103  C   -0.279084
   104  H    0.200224
   105  H    0.115174
   106  O   -0.553293
   107  C   -0.293660
   108  H    0.184792
   109  H    0.157473
   110  C   -0.174660
   111  H    0.174753
   112  H    0.156583
   113  N   -0.604925
   114  H    0.423289
   115  N   -0.748133
   116  H    0.372314
   117  H    0.375851
   118  N   -0.784785
   119  H    0.362739
   120  H    0.437687
   121  C    0.769931
   122  O   -0.624133
   123  H    0.414885
 Sum of Mulliken charges =   1.00000

 Dipole moment (field-independent basis, Debye):
    X=            -27.7335    Y=              7.5183    Z=             12.9029  Tot=             31.4985
 Quadrupole moment (field-independent basis, Debye-Ang):
   XX=             49.2947   YY=           -250.2183   ZZ=           -354.5791
   XY=           -272.7528   XZ=            -71.8413   YZ=            103.8969

 Normal termination of Gaussian 16 at Mon Jul 11 14:06:37 2022.
