 Gaussian 16, Revision C.01,
 Gaussian 16:  ES64L-G16RevC.01  3-Jul-2019

 ----------------------------------------------------------------------
 # B3LYP/6-31G* empiricaldispersion=gd3 guess=read geom=check nosymm in
 tegral(ultrafinegrid)
 ----------------------------------------------------------------------

 ------------------------------------------------------
 Candidate Structure: Conf:746 Charge calc in gas phase
 ------------------------------------------------------
 Structure from the checkpoint file:  "conf-746.chk"
 Charge =  1 Multiplicity = 1

                          Input orientation:
 ---------------------------------------------------------------------
 Center     Atomic      Atomic             Coordinates (Angstroms)
 Number     Number       Type             X           Y           Z
 ---------------------------------------------------------------------
      1          7           0        0.301338    5.780045    4.683160
      2          1           0        0.417346    6.782015    4.832331
      3          1           0        1.416983    5.274178    3.426714
      4          1           0        0.737192    5.306684    5.473770
      5          6           0       -1.134397    5.446771    4.663900
      6          1           0       -1.632992    5.773278    5.591051
      7          6           0       -1.236984    3.915640    4.586425
      8          6           0       -1.858964    6.154260    3.484856
      9          1           0       -1.593476    7.218251    3.530417
     10          1           0       -2.936667    6.110674    3.677811
     11          8           0       -0.221020    3.216846    4.637640
     12          6           0       -1.573030    5.607664    2.099579
     13          6           0       -0.434424    6.004380    1.386408
     14          1           0        0.261683    6.709816    1.827590
     15          6           0       -2.464901    4.709943    1.492157
     16          1           0       -3.373396    4.420222    2.010439
     17          6           0       -0.185366    5.511706    0.103261
     18          1           0        0.698720    5.843678   -0.434503
     19          6           0       -2.217102    4.212169    0.213367
     20          1           0       -2.926350    3.525264   -0.241810
     21          6           0       -1.081029    4.617705   -0.488870
     22          1           0       -0.913525    4.269317   -1.502842
     23          7           0       -2.465134    3.394560    4.427908
     24          1           0       -3.298217    3.975232    4.403327
     25          6           0       -2.669500    2.053397    3.889882
     26          1           0       -1.884330    1.854798    3.149977
     27          6           0       -4.044227    2.105849    3.202449
     28          6           0       -2.636699    0.967337    4.975736
     29          1           0       -2.773953   -0.025911    4.534236
     30          1           0       -3.426746    1.136710    5.713910
     31          1           0       -1.666898    0.999626    5.479330
     32          8           0       -4.867729    2.963673    3.527184
     33          7           0       -4.270213    1.176212    2.245040
     34          1           0       -3.579931    0.441778    2.103682
     35          6           0       -5.611293    0.984496    1.657750
     36          1           0       -6.318846    0.712505    2.446110
     37          6           0       -5.541225   -0.209401    0.704878
     38          6           0       -6.120704    2.232984    0.915529
     39          1           0       -7.070064    2.000222    0.422731
     40          1           0       -5.404380    2.552864    0.150296
     41          1           0       -6.272690    3.052404    1.617109
     42          8           0       -6.274924   -1.177585    0.806485
     43          7           0       -4.592894   -0.081458   -0.289300
     44          1           0       -3.917089    0.661508   -0.160132
     45          6           0       -4.089400   -1.281462   -0.937320
     46          1           0       -4.730713   -2.093633   -0.572897
     47          6           0       -2.687379   -1.556760   -0.353099
     48          6           0       -4.236663   -1.237264   -2.480953
     49          1           0       -4.207594   -2.265531   -2.863701
     50          1           0       -5.253094   -0.875411   -2.670916
     51          8           0       -2.410342   -1.265716    0.809655
     52          6           0       -3.208915   -0.400680   -3.214344
     53          6           0       -2.346757   -0.996732   -4.149005
     54          1           0       -2.489783   -2.043574   -4.416092
     55          6           0       -3.032671    0.965211   -2.949230
     56          1           0       -3.722209    1.478211   -2.284470
     57          6           0       -1.309162   -0.289007   -4.747432
     58          1           0       -0.638472   -0.760572   -5.458513
     59          6           0       -2.005129    1.693760   -3.548809
     60          1           0       -1.891022    2.754558   -3.343986
     61          8           0       -0.053590    1.689190   -4.991698
     62          1           0        0.055997    2.580599   -4.600795
     63          6           0       -1.114837    1.061323   -4.431754
     64          7           0       -1.787550   -2.168714   -1.172871
     65          1           0       -2.006777   -2.286524   -2.150889
     66          6           0       -0.509051   -2.670579   -0.713949
     67          1           0       -0.654468   -3.095523    0.284781
     68          6           0        0.572451   -1.602019   -0.510554
     69          6           0        0.016815   -3.749144   -1.681567
     70          1           0        0.181347   -3.279784   -2.662502
     71          1           0        1.001105   -4.065797   -1.320159
     72          8           0        1.656025   -1.958329   -0.006438
     73          6           0       -0.895359   -4.980379   -1.842840
     74          1           0       -1.865956   -4.647081   -2.239167
     75          6           0       -0.276397   -5.942973   -2.866675
     76          1           0        0.690471   -6.321217   -2.511572
     77          1           0       -0.929642   -6.805193   -3.037244
     78          1           0       -0.109096   -5.450760   -3.831858
     79          6           0       -1.152425   -5.689806   -0.506444
     80          1           0       -0.205994   -5.994757   -0.040319
     81          1           0       -1.695290   -5.055366    0.203641
     82          1           0       -1.752140   -6.593298   -0.658155
     83          7           0        0.319945   -0.351711   -0.918309
     84          1           0       -0.616473   -0.152027   -1.251168
     85          6           0        1.192272    0.790419   -0.666992
     86          1           0        2.226412    0.432565   -0.711393
     87          6           0        0.890186    1.376768    0.738307
     88          6           0        0.947292    1.839346   -1.770396
     89          1           0        1.049673    1.341420   -2.738312
     90          1           0       -0.092584    2.168305   -1.692320
     91          8           0       -0.219749    1.276004    1.240345
     92          6           0        1.869043    3.057910   -1.721035
     93          1           0        2.922303    2.784152   -1.864699
     94          1           0        1.832982    3.581953   -0.761676
     95          6           0        1.515358    4.085486   -2.770534
     96          8           0        0.609312    4.002546   -3.585976
     97          8           0        2.302774    5.165190   -2.688476
     98          7           0        1.960762    1.983376    1.351989
     99          1           0        2.748970    2.245116    0.761697
    100          6           0        1.783232    2.937385    2.454741
    101          1           0        0.715818    3.065761    2.633056
    102          6           0        2.427273    4.266642    2.028737
    103          6           0        2.459753    2.433052    3.748875
    104          1           0        2.401354    3.223568    4.499422
    105          1           0        3.527177    2.286358    3.528120
    106          8           0        2.203493    5.324948    2.788379
    107          6           0        1.821385    1.132230    4.288259
    108          1           0        1.174808    0.703608    3.514422
    109          1           0        1.145840    1.375805    5.108367
    110          6           0        2.847944    0.061711    4.739112
    111          1           0        2.963024    0.037600    5.824758
    112          1           0        3.845261    0.258862    4.329875
    113          7           0        2.471871   -1.300252    4.326804
    114          1           0        1.942163   -1.865440    4.975935
    115          7           0        2.976057   -0.857475    2.098473
    116          1           0        2.779831   -1.142042    1.133845
    117          1           0        2.935970    0.146213    2.237936
    118          7           0        2.023941   -2.878950    2.664042
    119          1           0        1.851191   -3.038884    1.672241
    120          1           0        1.760356   -3.581600    3.337803
    121          6           0        2.471695   -1.670788    3.037601
    122          8           0        3.176264    4.312689    1.066635
    123          1           0        2.022621    5.791355   -3.384313
 ---------------------------------------------------------------------

 SCF Done:  E(RB3LYP) =  -2974.27333547     A.U. after    1 cycles

 Alpha  occ. eigenvalues --  -19.29510 -19.25187 -19.24732 -19.24224 -19.24058
 Alpha  occ. eigenvalues --  -19.22675 -19.21844 -19.21295 -19.20824 -19.20453
 Alpha  occ. eigenvalues --  -19.19752 -14.50360 -14.49274 -14.47780 -14.47738
 Alpha  occ. eigenvalues --  -14.46380 -14.46294 -14.44782 -14.44241 -14.44037
 Alpha  occ. eigenvalues --  -14.43663 -10.45688 -10.42746 -10.40652 -10.39673
 Alpha  occ. eigenvalues --  -10.39517 -10.38812 -10.37731 -10.37391 -10.36617
 Alpha  occ. eigenvalues --  -10.34861 -10.34371 -10.33901 -10.32736 -10.32612
 Alpha  occ. eigenvalues --  -10.32206 -10.32205 -10.31680 -10.31212 -10.29789
 Alpha  occ. eigenvalues --  -10.29589 -10.28745 -10.28552 -10.28501 -10.28466
 Alpha  occ. eigenvalues --  -10.28053 -10.27931 -10.27741 -10.27684 -10.27564
 Alpha  occ. eigenvalues --  -10.27489 -10.27018 -10.26941 -10.26817 -10.26719
 Alpha  occ. eigenvalues --  -10.26582 -10.26570 -10.26518 -10.26366 -10.25739
 Alpha  occ. eigenvalues --  -10.25228 -10.25163  -1.20866  -1.16919  -1.15770
 Alpha  occ. eigenvalues --   -1.14402  -1.14196  -1.13739  -1.13068  -1.12758
 Alpha  occ. eigenvalues --   -1.12224  -1.11591  -1.11559  -1.08822  -1.04729
 Alpha  occ. eigenvalues --   -1.04045  -1.02773  -1.02656  -1.01815  -1.01737
 Alpha  occ. eigenvalues --   -1.01056  -1.00118  -0.99803  -0.93649  -0.93361
 Alpha  occ. eigenvalues --   -0.91386  -0.90371  -0.89674  -0.87879  -0.87143
 Alpha  occ. eigenvalues --   -0.85927  -0.85617  -0.84729  -0.83609  -0.83087
 Alpha  occ. eigenvalues --   -0.82961  -0.82151  -0.80624  -0.80384  -0.78836
 Alpha  occ. eigenvalues --   -0.76632  -0.76198  -0.75507  -0.75177  -0.74818
 Alpha  occ. eigenvalues --   -0.74312  -0.73461  -0.72152  -0.71774  -0.70978
 Alpha  occ. eigenvalues --   -0.70517  -0.70219  -0.69402  -0.69284  -0.68420
 Alpha  occ. eigenvalues --   -0.68208  -0.68056  -0.67519  -0.67265  -0.66935
 Alpha  occ. eigenvalues --   -0.66415  -0.66359  -0.65833  -0.65577  -0.65051
 Alpha  occ. eigenvalues --   -0.63408  -0.63177  -0.62644  -0.62536  -0.61750
 Alpha  occ. eigenvalues --   -0.61109  -0.60573  -0.60307  -0.59722  -0.59231
 Alpha  occ. eigenvalues --   -0.59030  -0.58714  -0.58490  -0.58066  -0.57585
 Alpha  occ. eigenvalues --   -0.57182  -0.56952  -0.56646  -0.56526  -0.56162
 Alpha  occ. eigenvalues --   -0.55888  -0.55678  -0.54914  -0.54684  -0.54287
 Alpha  occ. eigenvalues --   -0.53988  -0.53834  -0.53552  -0.53405  -0.53291
 Alpha  occ. eigenvalues --   -0.53181  -0.52845  -0.52559  -0.52276  -0.51934
 Alpha  occ. eigenvalues --   -0.51883  -0.51597  -0.51269  -0.51052  -0.50879
 Alpha  occ. eigenvalues --   -0.50671  -0.50517  -0.50111  -0.50075  -0.49981
 Alpha  occ. eigenvalues --   -0.49750  -0.49428  -0.49169  -0.49033  -0.48729
 Alpha  occ. eigenvalues --   -0.48675  -0.48391  -0.48226  -0.47878  -0.47684
 Alpha  occ. eigenvalues --   -0.47427  -0.47233  -0.47062  -0.46746  -0.46393
 Alpha  occ. eigenvalues --   -0.46354  -0.46149  -0.45897  -0.45807  -0.45512
 Alpha  occ. eigenvalues --   -0.45433  -0.45264  -0.44959  -0.44786  -0.44635
 Alpha  occ. eigenvalues --   -0.44201  -0.44126  -0.43769  -0.43651  -0.43303
 Alpha  occ. eigenvalues --   -0.42936  -0.42587  -0.42336  -0.41872  -0.41813
 Alpha  occ. eigenvalues --   -0.41453  -0.41334  -0.41167  -0.41081  -0.40678
 Alpha  occ. eigenvalues --   -0.40480  -0.39346  -0.39038  -0.38508  -0.38171
 Alpha  occ. eigenvalues --   -0.37954  -0.37236  -0.36366  -0.36179  -0.35715
 Alpha  occ. eigenvalues --   -0.35287  -0.34980  -0.34845  -0.34612  -0.34367
 Alpha  occ. eigenvalues --   -0.33919  -0.33739  -0.33624  -0.32705  -0.32508
 Alpha  occ. eigenvalues --   -0.32300  -0.29491
 Alpha virt. eigenvalues --   -0.10531  -0.09779  -0.09588  -0.09433  -0.09127
 Alpha virt. eigenvalues --   -0.08632  -0.08058  -0.07870  -0.07685  -0.07378
 Alpha virt. eigenvalues --   -0.06733  -0.06523  -0.05730  -0.05308  -0.03613

 Mulliken charges:
               1
     1  N   -0.768843
     2  H    0.333971
     3  H    0.483745
     4  H    0.340193
     5  C   -0.068793
     6  H    0.167795
     7  C    0.634071
     8  C   -0.381137
     9  H    0.168392
    10  H    0.168821
    11  O   -0.550758
    12  C    0.176325
    13  C   -0.196950
    14  H    0.150503
    15  C   -0.198234
    16  H    0.152015
    17  C   -0.158731
    18  H    0.154634
    19  C   -0.129960
    20  H    0.125799
    21  C   -0.155690
    22  H    0.145403
    23  N   -0.605090
    24  H    0.361333
    25  C   -0.059128
    26  H    0.209773
    27  C    0.630465
    28  C   -0.449878
    29  H    0.154427
    30  H    0.173294
    31  H    0.170374
    32  O   -0.540458
    33  N   -0.664856
    34  H    0.372271
    35  C   -0.018336
    36  H    0.194861
    37  C    0.569884
    38  C   -0.467139
    39  H    0.175434
    40  H    0.141412
    41  H    0.206359
    42  O   -0.486707
    43  N   -0.580371
    44  H    0.332297
    45  C   -0.073041
    46  H    0.222798
    47  C    0.588260
    48  C   -0.380519
    49  H    0.153418
    50  H    0.196146
    51  O   -0.523380
    52  C    0.156090
    53  C   -0.236236
    54  H    0.138768
    55  C   -0.218540
    56  H    0.143871
    57  C   -0.158431
    58  H    0.155646
    59  C   -0.209718
    60  H    0.161134
    61  O   -0.675694
    62  H    0.457566
    63  C    0.355116
    64  N   -0.643028
    65  H    0.360671
    66  C   -0.024607
    67  H    0.182482
    68  C    0.664541
    69  C   -0.302109
    70  H    0.149634
    71  H    0.167507
    72  O   -0.598704
    73  C   -0.074072
    74  H    0.124750
    75  C   -0.445024
    76  H    0.150197
    77  H    0.161526
    78  H    0.148908
    79  C   -0.455402
    80  H    0.139024
    81  H    0.147992
    82  H    0.167150
    83  N   -0.580676
    84  H    0.369447
    85  C   -0.078287
    86  H    0.167966
    87  C    0.620018
    88  C   -0.307047
    89  H    0.196085
    90  H    0.172987
    91  O   -0.500368
    92  C   -0.397015
    93  H    0.196382
    94  H    0.226016
    95  C    0.617178
    96  O   -0.499872
    97  O   -0.538475
    98  N   -0.641273
    99  H    0.355011
   100  C   -0.100655
   101  H    0.225380
   102  C    0.626678
   103  C   -0.270112
   104  H    0.173165
   105  H    0.142615
   106  O   -0.614662
   107  C   -0.312277
   108  H    0.174979
   109  H    0.198933
   110  C   -0.187226
   111  H    0.190874
   112  H    0.189850
   113  N   -0.586780
   114  H    0.355211
   115  N   -0.786835
   116  H    0.406807
   117  H    0.393526
   118  N   -0.784194
   119  H    0.402136
   120  H    0.364933
   121  C    0.790071
   122  O   -0.488109
   123  H    0.430136
 Sum of Mulliken charges =   1.00000

 Dipole moment (field-independent basis, Debye):
    X=              3.7213    Y=              1.0262    Z=              9.7403  Tot=             10.4773
 Quadrupole moment (field-independent basis, Debye-Ang):
   XX=           -364.3148   YY=           -276.6539   ZZ=           -278.0176
   XY=            -13.9096   XZ=             21.8577   YZ=             20.3384

 Normal termination of Gaussian 16 at Mon Jul 11 14:06:17 2022.
