 Gaussian 16, Revision C.01,
 Gaussian 16:  ES64L-G16RevC.01  3-Jul-2019

 ----------------------------------------------------------------------
 # B3LYP/6-31G* empiricaldispersion=gd3 guess=read geom=check nosymm in
 tegral(ultrafinegrid)
 ----------------------------------------------------------------------

 ------------------------------------------------------
 Candidate Structure: Conf:306 Charge calc in gas phase
 ------------------------------------------------------
 Structure from the checkpoint file:  "conf-306.chk"
 Charge =  1 Multiplicity = 1

                          Input orientation:
 ---------------------------------------------------------------------
 Center     Atomic      Atomic             Coordinates (Angstroms)
 Number     Number       Type             X           Y           Z
 ---------------------------------------------------------------------
      1          7           0       -7.149717    1.239987    1.378024
      2          1           0       -7.222684    0.220699    1.418248
      3          1           0       -6.136865    1.514734    1.422685
      4          1           0       -7.506708    1.575270    0.468586
      5          6           0       -7.905570    1.925165    2.492943
      6          1           0       -8.942423    1.580114    2.424322
      7          6           0       -7.870944    3.415726    2.061774
      8          6           0       -7.286662    1.516912    3.843548
      9          1           0       -6.218663    1.753651    3.817802
     10          1           0       -7.367854    0.423749    3.924323
     11          8           0       -7.835390    3.653914    0.854127
     12          6           0       -7.946058    2.160318    5.046983
     13          6           0       -7.195943    2.981931    5.902786
     14          1           0       -6.132451    3.121202    5.717762
     15          6           0       -9.309937    1.975033    5.312550
     16          1           0       -9.906704    1.329744    4.671591
     17          6           0       -7.798019    3.613925    6.993440
     18          1           0       -7.202692    4.242610    7.649129
     19          6           0       -9.912113    2.604175    6.402391
     20          1           0      -10.969217    2.449636    6.596825
     21          6           0       -9.158979    3.428390    7.242279
     22          1           0       -9.629820    3.918274    8.089118
     23          7           0       -7.823414    4.382784    2.996302
     24          1           0       -7.896690    4.146946    3.979686
     25          6           0       -7.372057    5.725186    2.603272
     26          1           0       -7.925461    6.034824    1.715670
     27          6           0       -5.883688    5.679285    2.177298
     28          6           0       -7.583111    6.715485    3.749801
     29          1           0       -7.198943    7.696963    3.459750
     30          1           0       -7.050922    6.394607    4.652912
     31          1           0       -8.647468    6.813882    3.984489
     32          8           0       -5.446112    6.392138    1.290996
     33          7           0       -5.112033    4.835186    2.936833
     34          1           0       -5.596718    4.141016    3.488332
     35          6           0       -3.757762    4.480211    2.571664
     36          1           0       -3.404414    5.251076    1.881378
     37          6           0       -3.751168    3.113331    1.859830
     38          6           0       -2.849807    4.418598    3.812091
     39          1           0       -1.825263    4.146581    3.539412
     40          1           0       -3.218999    3.669119    4.522689
     41          1           0       -2.835512    5.392421    4.308231
     42          8           0       -4.684807    2.302536    2.019287
     43          7           0       -2.654321    2.864549    1.137397
     44          1           0       -1.887319    3.533872    1.147786
     45          6           0       -2.282670    1.593641    0.538428
     46          1           0       -2.881511    0.806936    1.006138
     47          6           0       -0.779338    1.401530    0.804530
     48          6           0       -2.515558    1.587479   -1.003486
     49          1           0       -1.909884    2.395740   -1.430618
     50          1           0       -2.125470    0.646560   -1.408801
     51          8           0       -0.055008    2.379532    0.987723
     52          6           0       -3.972184    1.764993   -1.340552
     53          6           0       -4.804330    0.657041   -1.540548
     54          1           0       -4.372555   -0.340768   -1.572923
     55          6           0       -4.550433    3.042050   -1.347085
     56          1           0       -3.922650    3.917712   -1.207840
     57          6           0       -6.181946    0.810759   -1.697573
     58          1           0       -6.833003   -0.043862   -1.862983
     59          6           0       -5.924594    3.213911   -1.478359
     60          1           0       -6.362718    4.205700   -1.416872
     61          8           0       -8.113928    2.171039   -1.633468
     62          1           0       -8.373517    3.072822   -1.378961
     63          6           0       -6.744813    2.091481   -1.633796
     64          7           0       -0.359673    0.118601    0.751436
     65          1           0       -1.016205   -0.578429    0.408212
     66          6           0        1.020774   -0.252609    0.457913
     67          1           0        1.579065    0.668958    0.270967
     68          6           0        0.956232   -1.101704   -0.829715
     69          6           0        1.672166   -1.049218    1.606179
     70          1           0        1.120466   -1.992089    1.721843
     71          1           0        2.692504   -1.322684    1.303075
     72          8           0       -0.116063   -1.579632   -1.213505
     73          6           0        1.725515   -0.312258    2.956534
     74          1           0        0.693063   -0.058200    3.235491
     75          6           0        2.296129   -1.248825    4.031446
     76          1           0        3.332999   -1.524312    3.799708
     77          1           0        2.294921   -0.763673    5.013914
     78          1           0        1.714321   -2.174894    4.111274
     79          6           0        2.533415    0.991644    2.877443
     80          1           0        3.553292    0.796843    2.518716
     81          1           0        2.062987    1.724343    2.214482
     82          1           0        2.617774    1.450896    3.868948
     83          7           0        2.125833   -1.285307   -1.471262
     84          1           0        2.993522   -0.907880   -1.107094
     85          6           0        2.273468   -2.170032   -2.621761
     86          1           0        1.476080   -2.916457   -2.574280
     87          6           0        3.647479   -2.833071   -2.524196
     88          6           0        2.198587   -1.408683   -3.961111
     89          1           0        3.007564   -0.669688   -3.992799
     90          1           0        2.386158   -2.117279   -4.775889
     91          8           0        4.617922   -2.147061   -2.086556
     92          6           0        0.858164   -0.710581   -4.182637
     93          1           0        0.631975   -0.010324   -3.370116
     94          1           0        0.027725   -1.425571   -4.188779
     95          6           0        0.842902    0.068586   -5.479223
     96          8           0        1.776912    0.195279   -6.239736
     97          8           0       -0.368042    0.638917   -5.695595
     98          7           0        3.736008   -4.068060   -2.976230
     99          1           0        2.978419   -4.567713   -3.482643
    100          6           0        4.980362   -4.764707   -3.267882
    101          1           0        5.675612   -4.047050   -3.700398
    102          6           0        4.663643   -5.804972   -4.411541
    103          6           0        5.597195   -5.444124   -2.025844
    104          1           0        5.147137   -6.435297   -1.911031
    105          1           0        5.337781   -4.877095   -1.118985
    106          8           0        5.677352   -6.370221   -4.862323
    107          6           0        7.126140   -5.579543   -2.138789
    108          1           0        7.357219   -5.798434   -3.187780
    109          1           0        7.484899   -6.430381   -1.548113
    110          6           0        7.863719   -4.333424   -1.618847
    111          1           0        8.942891   -4.376072   -1.806396
    112          1           0        7.749497   -4.255198   -0.533395
    113          7           0        7.336568   -3.064988   -2.154564
    114          1           0        6.423454   -2.771962   -1.788365
    115          7           0        8.581218   -3.077815   -4.134061
    116          1           0        8.618499   -2.835390   -5.113926
    117          1           0        8.970487   -3.981925   -3.909022
    118          7           0        6.814000   -1.582289   -3.834182
    119          1           0        6.859353   -1.315847   -4.807560
    120          1           0        5.926041   -1.429075   -3.349144
    121          6           0        7.569410   -2.602269   -3.381150
    122          8           0        3.441841   -5.901584   -4.694343
    123          1           0       -0.301510    1.112901   -6.546200
 ---------------------------------------------------------------------

 SCF Done:  E(RB3LYP) =  -2974.19807410     A.U. after    1 cycles

 Alpha  occ. eigenvalues --  -19.27032 -19.25066 -19.25030 -19.24268 -19.21360
 Alpha  occ. eigenvalues --  -19.21152 -19.19958 -19.19815 -19.19529 -19.08766
 Alpha  occ. eigenvalues --  -19.07762 -14.56792 -14.48554 -14.47305 -14.47297
 Alpha  occ. eigenvalues --  -14.46028 -14.45743 -14.45594 -14.44703 -14.44073
 Alpha  occ. eigenvalues --  -14.41291 -10.42790 -10.42468 -10.40636 -10.39416
 Alpha  occ. eigenvalues --  -10.38360 -10.38250 -10.37695 -10.36963 -10.35861
 Alpha  occ. eigenvalues --  -10.33915 -10.33844 -10.33773 -10.33711 -10.33142
 Alpha  occ. eigenvalues --  -10.31868 -10.31467 -10.30620 -10.30548 -10.30540
 Alpha  occ. eigenvalues --  -10.30355 -10.30025 -10.29882 -10.29651 -10.28735
 Alpha  occ. eigenvalues --  -10.28461 -10.28437 -10.28202 -10.28121 -10.27861
 Alpha  occ. eigenvalues --  -10.27851 -10.27629 -10.26758 -10.26281 -10.26137
 Alpha  occ. eigenvalues --  -10.25905 -10.25665 -10.24820 -10.24088 -10.23576
 Alpha  occ. eigenvalues --  -10.23306 -10.23194  -1.17684  -1.15919  -1.15380
 Alpha  occ. eigenvalues --   -1.14948  -1.13243  -1.13072  -1.11820  -1.11588
 Alpha  occ. eigenvalues --   -1.11470  -1.10165  -1.07017  -1.05423  -1.03994
 Alpha  occ. eigenvalues --   -1.02284  -1.02052  -1.01649  -1.00697  -1.00426
 Alpha  occ. eigenvalues --   -0.99746  -0.97771  -0.97320  -0.94511  -0.93305
 Alpha  occ. eigenvalues --   -0.92290  -0.89861  -0.88539  -0.87806  -0.86910
 Alpha  occ. eigenvalues --   -0.86060  -0.85675  -0.85321  -0.85146  -0.83837
 Alpha  occ. eigenvalues --   -0.83524  -0.81983  -0.80657  -0.79358  -0.78654
 Alpha  occ. eigenvalues --   -0.76643  -0.75855  -0.74583  -0.74455  -0.74151
 Alpha  occ. eigenvalues --   -0.72931  -0.72237  -0.72033  -0.72029  -0.71396
 Alpha  occ. eigenvalues --   -0.71249  -0.71103  -0.70662  -0.69259  -0.68582
 Alpha  occ. eigenvalues --   -0.68445  -0.67960  -0.67884  -0.67732  -0.66848
 Alpha  occ. eigenvalues --   -0.66154  -0.65835  -0.64676  -0.64102  -0.63883
 Alpha  occ. eigenvalues --   -0.63228  -0.63190  -0.62761  -0.62065  -0.61637
 Alpha  occ. eigenvalues --   -0.60946  -0.60086  -0.59708  -0.59275  -0.59053
 Alpha  occ. eigenvalues --   -0.58871  -0.57880  -0.57627  -0.57059  -0.56823
 Alpha  occ. eigenvalues --   -0.56659  -0.56488  -0.56076  -0.55912  -0.55543
 Alpha  occ. eigenvalues --   -0.55463  -0.55128  -0.54721  -0.54470  -0.54067
 Alpha  occ. eigenvalues --   -0.53701  -0.53546  -0.53400  -0.53283  -0.53147
 Alpha  occ. eigenvalues --   -0.53114  -0.52893  -0.52488  -0.52184  -0.51663
 Alpha  occ. eigenvalues --   -0.51585  -0.51306  -0.51184  -0.51078  -0.50636
 Alpha  occ. eigenvalues --   -0.50538  -0.50259  -0.49923  -0.49671  -0.49582
 Alpha  occ. eigenvalues --   -0.49369  -0.49153  -0.48969  -0.48774  -0.48322
 Alpha  occ. eigenvalues --   -0.48238  -0.47946  -0.47793  -0.47350  -0.46927
 Alpha  occ. eigenvalues --   -0.46852  -0.46629  -0.46371  -0.45951  -0.45901
 Alpha  occ. eigenvalues --   -0.45757  -0.45541  -0.45385  -0.45347  -0.45032
 Alpha  occ. eigenvalues --   -0.45027  -0.44724  -0.44364  -0.44105  -0.43175
 Alpha  occ. eigenvalues --   -0.42920  -0.42616  -0.42582  -0.42301  -0.41923
 Alpha  occ. eigenvalues --   -0.41305  -0.40733  -0.40258  -0.39806  -0.39703
 Alpha  occ. eigenvalues --   -0.39161  -0.39103  -0.39010  -0.38950  -0.38430
 Alpha  occ. eigenvalues --   -0.38280  -0.37989  -0.37521  -0.37370  -0.36297
 Alpha  occ. eigenvalues --   -0.36256  -0.35858  -0.35532  -0.35265  -0.35130
 Alpha  occ. eigenvalues --   -0.35030  -0.34577  -0.34316  -0.34000  -0.33453
 Alpha  occ. eigenvalues --   -0.33157  -0.32769  -0.32108  -0.30907  -0.23847
 Alpha  occ. eigenvalues --   -0.23665  -0.22070
 Alpha virt. eigenvalues --   -0.12642  -0.11731  -0.11521  -0.09771  -0.09230
 Alpha virt. eigenvalues --   -0.08805  -0.07829  -0.07449  -0.06546  -0.06447
 Alpha virt. eigenvalues --   -0.06075  -0.04944  -0.04813  -0.04484  -0.02922

 Mulliken charges:
               1
     1  N   -0.785472
     2  H    0.395296
     3  H    0.455203
     4  H    0.447424
     5  C   -0.122963
     6  H    0.219371
     7  C    0.661703
     8  C   -0.381411
     9  H    0.197988
    10  H    0.179418
    11  O   -0.537508
    12  C    0.122141
    13  C   -0.226792
    14  H    0.143973
    15  C   -0.173521
    16  H    0.141205
    17  C   -0.117979
    18  H    0.163943
    19  C   -0.122257
    20  H    0.166486
    21  C   -0.125163
    22  H    0.167607
    23  N   -0.646264
    24  H    0.372591
    25  C   -0.037493
    26  H    0.208159
    27  C    0.602989
    28  C   -0.480737
    29  H    0.202058
    30  H    0.156380
    31  H    0.181305
    32  O   -0.494716
    33  N   -0.585991
    34  H    0.325597
    35  C   -0.086666
    36  H    0.205477
    37  C    0.655576
    38  C   -0.454654
    39  H    0.178838
    40  H    0.151808
    41  H    0.188014
    42  O   -0.602438
    43  N   -0.576724
    44  H    0.367062
    45  C   -0.071463
    46  H    0.170128
    47  C    0.618261
    48  C   -0.377492
    49  H    0.173534
    50  H    0.186249
    51  O   -0.527783
    52  C    0.177784
    53  C   -0.193953
    54  H    0.147950
    55  C   -0.190222
    56  H    0.148220
    57  C   -0.203897
    58  H    0.151443
    59  C   -0.168848
    60  H    0.162957
    61  O   -0.657139
    62  H    0.433585
    63  C    0.309879
    64  N   -0.581454
    65  H    0.351040
    66  C   -0.099062
    67  H    0.188965
    68  C    0.633815
    69  C   -0.254942
    70  H    0.146671
    71  H    0.141126
    72  O   -0.553147
    73  C   -0.065960
    74  H    0.127679
    75  C   -0.444311
    76  H    0.145508
    77  H    0.149812
    78  H    0.143856
    79  C   -0.471761
    80  H    0.135224
    81  H    0.176711
    82  H    0.148052
    83  N   -0.605499
    84  H    0.349514
    85  C   -0.054006
    86  H    0.191690
    87  C    0.617272
    88  C   -0.260410
    89  H    0.151045
    90  H    0.186627
    91  O   -0.636025
    92  C   -0.356103
    93  H    0.176248
    94  H    0.196796
    95  C    0.583309
    96  O   -0.459428
    97  O   -0.571912
    98  N   -0.572955
    99  H    0.365888
   100  C   -0.083065
   101  H    0.118667
   102  C    0.585878
   103  C   -0.269172
   104  H    0.177125
   105  H    0.120564
   106  O   -0.583545
   107  C   -0.281349
   108  H    0.190495
   109  H    0.156568
   110  C   -0.193328
   111  H    0.163144
   112  H    0.180672
   113  N   -0.574566
   114  H    0.397884
   115  N   -0.744194
   116  H    0.371561
   117  H    0.386725
   118  N   -0.762731
   119  H    0.360444
   120  H    0.402378
   121  C    0.755026
   122  O   -0.597088
   123  H    0.413981
 Sum of Mulliken charges =   1.00000

 Dipole moment (field-independent basis, Debye):
    X=            -17.8466    Y=             13.9064    Z=             15.8455  Tot=             27.6219
 Quadrupole moment (field-independent basis, Debye-Ang):
   XX=            -21.4024   YY=           -397.6763   ZZ=           -311.4995
   XY=            -68.2877   XZ=           -127.2560   YZ=             -8.7252

 Normal termination of Gaussian 16 at Mon Jul 11 14:05:30 2022.
