 Gaussian 16, Revision C.01,
 Gaussian 16:  ES64L-G16RevC.01  3-Jul-2019

 ----------------------------------------------------------------------
 # B3LYP/6-31G* empiricaldispersion=gd3 guess=read geom=check nosymm in
 tegral(ultrafinegrid)
 ----------------------------------------------------------------------

 ------------------------------------------------------
 Candidate Structure: Conf:197 Charge calc in gas phase
 ------------------------------------------------------
 Structure from the checkpoint file:  "conf-197.chk"
 Charge =  1 Multiplicity = 1

                          Input orientation:
 ---------------------------------------------------------------------
 Center     Atomic      Atomic             Coordinates (Angstroms)
 Number     Number       Type             X           Y           Z
 ---------------------------------------------------------------------
      1          7           0      -11.623682    4.487675    6.329794
      2          1           0      -11.925208    3.693925    5.694979
      3          1           0      -12.303785    5.249961    6.348724
      4          1           0      -11.502970    4.104772    7.282285
      5          6           0      -10.276865    4.867212    5.757346
      6          1           0      -10.435345    5.731574    5.105263
      7          6           0       -9.940461    3.634987    4.866769
      8          6           0       -9.270182    5.209388    6.879334
      9          1           0       -9.591506    6.145651    7.351088
     10          1           0       -8.303849    5.424900    6.412026
     11          8           0      -10.853687    2.828042    4.636063
     12          6           0       -9.149812    4.105375    7.908481
     13          6           0       -9.988449    4.107637    9.036769
     14          1           0      -10.629483    4.967149    9.234917
     15          6           0       -8.256291    3.039490    7.725236
     16          1           0       -7.573281    3.039602    6.879919
     17          6           0       -9.955112    3.051190    9.952247
     18          1           0      -10.600309    3.071585   10.825524
     19          6           0       -8.220638    1.991779    8.645343
     20          1           0       -7.517047    1.177152    8.500524
     21          6           0       -9.074744    1.988125    9.751836
     22          1           0       -9.040859    1.168666   10.463370
     23          7           0       -8.705268    3.560264    4.392463
     24          1           0       -7.953800    4.150069    4.751550
     25          6           0       -8.177386    2.392482    3.686257
     26          1           0       -8.705249    1.506390    4.056023
     27          6           0       -6.694189    2.324164    4.117792
     28          6           0       -8.355571    2.509824    2.167360
     29          1           0       -7.948796    1.635159    1.653083
     30          1           0       -7.839701    3.388518    1.773794
     31          1           0       -9.419768    2.585883    1.926697
     32          8           0       -6.214462    3.213628    4.838286
     33          7           0       -6.010339    1.270804    3.667987
     34          1           0       -6.399672    0.619435    2.986648
     35          6           0       -4.568108    1.123468    3.818629
     36          1           0       -4.111803    2.115910    3.734724
     37          6           0       -4.136200    0.252944    2.621806
     38          6           0       -4.187375    0.495548    5.166561
     39          1           0       -3.100717    0.395438    5.255615
     40          1           0       -4.635616   -0.498360    5.263980
     41          1           0       -4.545087    1.133115    5.980226
     42          8           0       -4.976184   -0.383942    1.983602
     43          7           0       -2.818451    0.261752    2.348136
     44          1           0       -2.154004    0.756520    2.933171
     45          6           0       -2.255843   -0.335608    1.150477
     46          1           0       -2.900805   -1.165154    0.851220
     47          6           0       -0.834884   -0.800297    1.486832
     48          6           0       -2.174515    0.700417   -0.013175
     49          1           0       -1.442608    1.465502    0.273870
     50          1           0       -1.792606    0.172122   -0.891199
     51          8           0       -0.167933   -0.208335    2.336542
     52          6           0       -3.513464    1.326125   -0.308930
     53          6           0       -3.917919    2.506642    0.327982
     54          1           0       -3.219567    3.028134    0.978471
     55          6           0       -4.424882    0.686050   -1.156294
     56          1           0       -4.127337   -0.230352   -1.660410
     57          6           0       -5.197716    3.027334    0.148261
     58          1           0       -5.504753    3.950227    0.630967
     59          6           0       -5.706485    1.196157   -1.351121
     60          1           0       -6.404744    0.683949   -2.010746
     61          8           0       -7.351760    2.910352   -0.826368
     62          1           0       -7.846857    2.401103   -1.486840
     63          6           0       -6.097369    2.366241   -0.691896
     64          7           0       -0.382585   -1.825793    0.735431
     65          1           0       -0.983342   -2.236267    0.027308
     66          6           0        1.017620   -2.259498    0.730158
     67          1           0        1.616224   -1.402353    1.049128
     68          6           0        1.280157   -2.627076   -0.732705
     69          6           0        1.253834   -3.453683    1.664816
     70          1           0        1.025116   -3.122999    2.686280
     71          1           0        0.529608   -4.232061    1.397877
     72          8           0        0.642336   -3.543980   -1.253211
     73          6           0        2.676704   -4.041242    1.606347
     74          1           0        2.830928   -4.438229    0.591902
     75          6           0        3.764634   -2.990407    1.878557
     76          1           0        3.585324   -2.477948    2.832496
     77          1           0        4.752972   -3.460700    1.932238
     78          1           0        3.815788   -2.231130    1.089946
     79          6           0        2.792962   -5.212928    2.591425
     80          1           0        2.664812   -4.865910    3.624976
     81          1           0        2.029880   -5.975676    2.396712
     82          1           0        3.776118   -5.692235    2.520485
     83          7           0        2.131181   -1.825319   -1.413655
     84          1           0        2.765671   -1.195539   -0.934257
     85          6           0        2.371464   -1.987945   -2.835246
     86          1           0        2.031454   -2.989401   -3.108953
     87          6           0        3.880659   -1.816503   -3.073569
     88          6           0        1.603742   -0.936589   -3.685692
     89          1           0        2.170231    0.002586   -3.683669
     90          1           0        1.569603   -1.289772   -4.721086
     91          8           0        4.567607   -1.180080   -2.270252
     92          6           0        0.188605   -0.613209   -3.182448
     93          1           0       -0.276595    0.104756   -3.871666
     94          1           0        0.228313   -0.126994   -2.204905
     95          6           0       -0.778881   -1.769707   -3.043520
     96          8           0       -1.678823   -1.816901   -2.223236
     97          8           0       -0.573490   -2.735517   -3.955883
     98          7           0        4.344854   -2.356858   -4.214405
     99          1           0        3.726889   -2.797783   -4.891905
    100          6           0        5.686202   -2.122870   -4.738495
    101          1           0        5.903467   -1.049165   -4.698949
    102          6           0        5.731543   -2.572477   -6.219002
    103          6           0        6.779897   -2.830641   -3.906322
    104          1           0        6.761225   -2.373451   -2.912409
    105          1           0        7.741519   -2.584198   -4.369453
    106          8           0        6.795770   -2.404092   -6.827205
    107          6           0        6.651306   -4.358148   -3.727736
    108          1           0        5.602243   -4.633354   -3.551296
    109          1           0        7.185680   -4.635673   -2.811414
    110          6           0        7.237521   -5.252066   -4.836235
    111          1           0        7.404206   -6.260356   -4.436684
    112          1           0        8.207266   -4.842243   -5.145877
    113          7           0        6.359434   -5.347583   -6.011947
    114          1           0        5.445019   -4.898658   -5.922457
    115          7           0        8.010098   -5.848774   -7.587171
    116          1           0        8.466197   -5.533019   -8.430744
    117          1           0        8.619928   -6.162515   -6.847139
    118          7           0        5.953637   -4.943557   -8.239074
    119          1           0        6.300812   -4.899686   -9.187126
    120          1           0        5.306712   -4.180153   -7.919684
    121          6           0        6.790128   -5.351599   -7.279577
    122          8           0        4.681820   -3.192543   -6.643034
    123          1           0       -1.182292   -3.466014   -3.736670
 ---------------------------------------------------------------------

 SCF Done:  E(RB3LYP) =  -2974.20737369     A.U. after    3 cycles

 Alpha  occ. eigenvalues --  -19.25756 -19.24793 -19.23751 -19.21284 -19.19226
 Alpha  occ. eigenvalues --  -19.18303 -19.16719 -19.16258 -19.15366 -19.13133
 Alpha  occ. eigenvalues --  -19.11414 -14.58508 -14.48160 -14.44708 -14.44276
 Alpha  occ. eigenvalues --  -14.42713 -14.42285 -14.41193 -14.41064 -14.40882
 Alpha  occ. eigenvalues --  -14.38964 -10.42543 -10.40036 -10.39378 -10.38088
 Alpha  occ. eigenvalues --  -10.37582 -10.35483 -10.33831 -10.33515 -10.33504
 Alpha  occ. eigenvalues --  -10.33476 -10.32422 -10.31414 -10.30885 -10.30353
 Alpha  occ. eigenvalues --  -10.30344 -10.30000 -10.29626 -10.29281 -10.29226
 Alpha  occ. eigenvalues --  -10.29138 -10.28899 -10.28857 -10.27704 -10.27654
 Alpha  occ. eigenvalues --  -10.26619 -10.25396 -10.25377 -10.24989 -10.24639
 Alpha  occ. eigenvalues --  -10.24332 -10.24271 -10.24212 -10.24088 -10.24052
 Alpha  occ. eigenvalues --  -10.24045 -10.24021 -10.22794 -10.22207 -10.21897
 Alpha  occ. eigenvalues --  -10.21040 -10.20897  -1.18213  -1.15750  -1.13167
 Alpha  occ. eigenvalues --   -1.12532  -1.11531  -1.10370  -1.08875  -1.08359
 Alpha  occ. eigenvalues --   -1.08195  -1.07070  -1.06576  -1.05395  -1.05057
 Alpha  occ. eigenvalues --   -1.01066  -0.98956  -0.97884  -0.97511  -0.97290
 Alpha  occ. eigenvalues --   -0.96999  -0.96816  -0.96010  -0.95061  -0.92425
 Alpha  occ. eigenvalues --   -0.90571  -0.87984  -0.85994  -0.85575  -0.85025
 Alpha  occ. eigenvalues --   -0.84912  -0.84365  -0.83859  -0.82768  -0.80422
 Alpha  occ. eigenvalues --   -0.80023  -0.79252  -0.79159  -0.77657  -0.76454
 Alpha  occ. eigenvalues --   -0.75695  -0.73694  -0.73603  -0.72144  -0.72029
 Alpha  occ. eigenvalues --   -0.71909  -0.71516  -0.70612  -0.70389  -0.70008
 Alpha  occ. eigenvalues --   -0.69777  -0.68784  -0.68314  -0.67425  -0.66740
 Alpha  occ. eigenvalues --   -0.65877  -0.65697  -0.65233  -0.64704  -0.64366
 Alpha  occ. eigenvalues --   -0.63968  -0.63408  -0.63200  -0.62858  -0.61907
 Alpha  occ. eigenvalues --   -0.61350  -0.60620  -0.60176  -0.60011  -0.59738
 Alpha  occ. eigenvalues --   -0.59088  -0.58723  -0.57562  -0.56795  -0.56646
 Alpha  occ. eigenvalues --   -0.56551  -0.56117  -0.55448  -0.55298  -0.54696
 Alpha  occ. eigenvalues --   -0.54369  -0.54258  -0.54147  -0.54073  -0.53471
 Alpha  occ. eigenvalues --   -0.52997  -0.52632  -0.52517  -0.52326  -0.52183
 Alpha  occ. eigenvalues --   -0.52090  -0.52039  -0.51614  -0.51511  -0.51166
 Alpha  occ. eigenvalues --   -0.50801  -0.50718  -0.50412  -0.50128  -0.50028
 Alpha  occ. eigenvalues --   -0.49829  -0.49550  -0.48810  -0.48619  -0.48348
 Alpha  occ. eigenvalues --   -0.48171  -0.47830  -0.47638  -0.47528  -0.47427
 Alpha  occ. eigenvalues --   -0.47123  -0.46671  -0.46594  -0.46251  -0.46054
 Alpha  occ. eigenvalues --   -0.45790  -0.45556  -0.45525  -0.45125  -0.44968
 Alpha  occ. eigenvalues --   -0.44820  -0.44737  -0.44605  -0.44241  -0.44073
 Alpha  occ. eigenvalues --   -0.43990  -0.43766  -0.43603  -0.43261  -0.42824
 Alpha  occ. eigenvalues --   -0.42578  -0.42149  -0.42004  -0.41739  -0.41209
 Alpha  occ. eigenvalues --   -0.41123  -0.40735  -0.40401  -0.40338  -0.40292
 Alpha  occ. eigenvalues --   -0.39687  -0.39477  -0.38948  -0.38825  -0.38361
 Alpha  occ. eigenvalues --   -0.38270  -0.37959  -0.37096  -0.37017  -0.36797
 Alpha  occ. eigenvalues --   -0.36385  -0.36053  -0.35850  -0.35469  -0.35353
 Alpha  occ. eigenvalues --   -0.35179  -0.34486  -0.32944  -0.32601  -0.32164
 Alpha  occ. eigenvalues --   -0.31853  -0.31380  -0.30741  -0.30580  -0.30134
 Alpha  occ. eigenvalues --   -0.29438  -0.29377  -0.28974  -0.28038  -0.27729
 Alpha  occ. eigenvalues --   -0.26958  -0.25463
 Alpha virt. eigenvalues --   -0.12022  -0.11541  -0.11397  -0.07933  -0.06942
 Alpha virt. eigenvalues --   -0.05662  -0.04926  -0.04618  -0.04583  -0.03961
 Alpha virt. eigenvalues --   -0.03514  -0.03315  -0.02295  -0.01464  -0.00972

 Mulliken charges:
               1
     1  N   -0.756323
     2  H    0.431978
     3  H    0.408396
     4  H    0.403137
     5  C   -0.114092
     6  H    0.227081
     7  C    0.654578
     8  C   -0.394884
     9  H    0.187023
    10  H    0.209949
    11  O   -0.541331
    12  C    0.139219
    13  C   -0.240337
    14  H    0.140542
    15  C   -0.186542
    16  H    0.178350
    17  C   -0.119037
    18  H    0.163131
    19  C   -0.130697
    20  H    0.163778
    21  C   -0.121628
    22  H    0.165849
    23  N   -0.599165
    24  H    0.372633
    25  C   -0.072966
    26  H    0.198910
    27  C    0.632851
    28  C   -0.448065
    29  H    0.181549
    30  H    0.183733
    31  H    0.173184
    32  O   -0.558668
    33  N   -0.609724
    34  H    0.371264
    35  C   -0.049009
    36  H    0.181108
    37  C    0.641912
    38  C   -0.448422
    39  H    0.168874
    40  H    0.166687
    41  H    0.171633
    42  O   -0.543258
    43  N   -0.611867
    44  H    0.348768
    45  C   -0.056567
    46  H    0.189666
    47  C    0.621239
    48  C   -0.385815
    49  H    0.151534
    50  H    0.193912
    51  O   -0.548096
    52  C    0.175028
    53  C   -0.199472
    54  H    0.124453
    55  C   -0.174353
    56  H    0.156374
    57  C   -0.168533
    58  H    0.130833
    59  C   -0.187927
    60  H    0.125871
    61  O   -0.657334
    62  H    0.410815
    63  C    0.349382
    64  N   -0.630118
    65  H    0.373244
    66  C   -0.029347
    67  H    0.170225
    68  C    0.602570
    69  C   -0.249629
    70  H    0.147867
    71  H    0.151442
    72  O   -0.553896
    73  C   -0.085946
    74  H    0.138130
    75  C   -0.452731
    76  H    0.147640
    77  H    0.148474
    78  H    0.141267
    79  C   -0.443566
    80  H    0.142145
    81  H    0.144943
    82  H    0.143897
    83  N   -0.608058
    84  H    0.355124
    85  C   -0.062244
    86  H    0.191956
    87  C    0.615045
    88  C   -0.272647
    89  H    0.162806
    90  H    0.173509
    91  O   -0.548392
    92  C   -0.365640
    93  H    0.187936
    94  H    0.179800
    95  C    0.624556
    96  O   -0.499023
    97  O   -0.551563
    98  N   -0.619863
    99  H    0.352036
   100  C   -0.034496
   101  H    0.171887
   102  C    0.584865
   103  C   -0.271492
   104  H    0.174828
   105  H    0.159153
   106  O   -0.571167
   107  C   -0.309210
   108  H    0.156671
   109  H    0.156510
   110  C   -0.140790
   111  H    0.161620
   112  H    0.162747
   113  N   -0.586267
   114  H    0.368706
   115  N   -0.756640
   116  H    0.365626
   117  H    0.367450
   118  N   -0.748663
   119  H    0.339375
   120  H    0.410493
   121  C    0.774946
   122  O   -0.650321
   123  H    0.421105
 Sum of Mulliken charges =   1.00000

 Dipole moment (field-independent basis, Debye):
    X=            -32.4743    Y=              7.4238    Z=             16.0498  Tot=             36.9769
 Quadrupole moment (field-independent basis, Debye-Ang):
   XX=            162.2959   YY=           -228.4046   ZZ=           -117.7502
   XY=           -262.1719   XZ=           -323.0108   YZ=            164.6350

 Normal termination of Gaussian 16 at Mon Jul 11 14:07:17 2022.
