 Gaussian 16, Revision C.01,
 Gaussian 16:  ES64L-G16RevC.01  3-Jul-2019

 ----------------------------------------------------------------------
 # B3LYP/6-31G* empiricaldispersion=gd3 guess=read geom=check nosymm in
 tegral(ultrafinegrid)
 ----------------------------------------------------------------------

 ------------------------------------------------------
 Candidate Structure: Conf:883 Charge calc in gas phase
 ------------------------------------------------------
 Structure from the checkpoint file:  "conf-883.chk"
 Charge =  1 Multiplicity = 1

                          Input orientation:
 ---------------------------------------------------------------------
 Center     Atomic      Atomic             Coordinates (Angstroms)
 Number     Number       Type             X           Y           Z
 ---------------------------------------------------------------------
      1          7           0       -2.253892    2.589632    4.748914
      2          1           0       -1.993291    3.321805    4.082774
      3          1           0       -1.400291    2.219058    5.185677
      4          1           0       -2.920061    3.005531    5.447546
      5          6           0       -3.068559    1.478454    4.121910
      6          1           0       -2.825651    1.400153    3.062057
      7          6           0       -4.529947    1.910264    4.370985
      8          6           0       -2.790341    0.161488    4.860734
      9          1           0       -3.383722   -0.602606    4.349267
     10          1           0       -3.198537    0.241117    5.876246
     11          8           0       -4.746554    2.737158    5.267314
     12          6           0       -1.329155   -0.246664    4.923115
     13          6           0       -0.894942   -1.010330    6.015913
     14          1           0       -1.594076   -1.244705    6.815024
     15          6           0       -0.408292    0.049409    3.903997
     16          1           0       -0.708775    0.630779    3.034216
     17          6           0        0.410029   -1.498240    6.074064
     18          1           0        0.721643   -2.100003    6.922788
     19          6           0        0.902908   -0.433522    3.963631
     20          1           0        1.603442   -0.234649    3.158983
     21          6           0        1.310013   -1.216467    5.044276
     22          1           0        2.324230   -1.601931    5.079562
     23          7           0       -5.436930    1.278222    3.629679
     24          1           0       -5.085125    0.553558    2.990971
     25          6           0       -6.864683    1.239582    3.984746
     26          1           0       -6.932163    1.420380    5.063144
     27          6           0       -7.259490   -0.234949    3.741869
     28          6           0       -7.660101    2.313047    3.240464
     29          1           0       -8.713769    2.299345    3.540902
     30          1           0       -7.592170    2.183247    2.154467
     31          1           0       -7.259340    3.298966    3.490585
     32          8           0       -6.513658   -1.121213    4.164305
     33          7           0       -8.355672   -0.495430    2.991146
     34          1           0       -8.861247    0.272663    2.569292
     35          6           0       -8.562089   -1.823884    2.379465
     36          1           0       -8.160739   -2.552742    3.088255
     37          6           0       -7.722022   -1.835015    1.072028
     38          6           0      -10.036649   -2.078004    2.105056
     39          1           0      -10.165652   -3.068040    1.660376
     40          1           0      -10.430537   -1.350442    1.388675
     41          1           0      -10.610967   -2.027047    3.034287
     42          8           0       -8.237525   -1.802422   -0.036332
     43          7           0       -6.371252   -1.771030    1.281315
     44          1           0       -6.043078   -1.753020    2.242879
     45          6           0       -5.457783   -1.250080    0.269202
     46          1           0       -5.408409   -1.943702   -0.576863
     47          6           0       -4.086730   -1.116890    0.932974
     48          6           0       -5.900186    0.147585   -0.255119
     49          1           0       -6.847230    0.009094   -0.782102
     50          1           0       -6.094378    0.780611    0.618892
     51          8           0       -3.988892   -0.586696    2.058841
     52          6           0       -4.855848    0.782174   -1.137187
     53          6           0       -4.088438    1.855039   -0.672785
     54          1           0       -4.289039    2.263276    0.316218
     55          6           0       -4.586378    0.272856   -2.415931
     56          1           0       -5.186896   -0.546637   -2.805369
     57          6           0       -3.079687    2.413085   -1.455959
     58          1           0       -2.488145    3.245527   -1.092091
     59          6           0       -3.572735    0.813537   -3.203165
     60          1           0       -3.366277    0.425801   -4.195745
     61          8           0       -1.830613    2.456069   -3.511326
     62          1           0       -1.060158    1.851407   -3.563789
     63          6           0       -2.814956    1.881279   -2.718305
     64          7           0       -3.031753   -1.588126    0.259054
     65          1           0       -3.138606   -1.817085   -0.722807
     66          6           0       -1.666252   -1.524744    0.756998
     67          1           0       -1.708715   -1.055675    1.739616
     68          6           0       -0.800917   -0.690234   -0.198190
     69          6           0       -1.045285   -2.937147    0.876749
     70          1           0       -0.989284   -3.367650   -0.132839
     71          1           0       -0.009152   -2.825962    1.223261
     72          8           0       -1.096466   -0.554226   -1.377300
     73          6           0       -1.794986   -3.904639    1.809683
     74          1           0       -2.810680   -4.042310    1.411897
     75          6           0       -1.089561   -5.268569    1.800941
     76          1           0       -0.072599   -5.182042    2.204459
     77          1           0       -1.632877   -5.994687    2.415630
     78          1           0       -1.014336   -5.675969    0.785801
     79          6           0       -1.911791   -3.358167    3.239862
     80          1           0       -0.925207   -3.103772    3.647249
     81          1           0       -2.536301   -2.460532    3.277669
     82          1           0       -2.366938   -4.102873    3.902237
     83          7           0        0.331766   -0.193126    0.396103
     84          1           0        0.554349   -0.619941    1.293451
     85          6           0        1.559562    0.001591   -0.376219
     86          1           0        1.312737   -0.121757   -1.431322
     87          6           0        2.557585   -1.070480    0.109689
     88          6           0        2.198829    1.392642   -0.162358
     89          1           0        2.628901    1.435495    0.846540
     90          1           0        3.032734    1.491826   -0.865192
     91          8           0        2.414200   -1.590328    1.228980
     92          6           0        1.236044    2.566192   -0.322284
     93          1           0        1.737461    3.516206   -0.102908
     94          1           0        0.411386    2.481207    0.397049
     95          6           0        0.592921    2.672536   -1.685713
     96          8           0        0.723304    1.860571   -2.587142
     97          8           0       -0.190733    3.758507   -1.776197
     98          7           0        3.579916   -1.327024   -0.710705
     99          1           0        3.651246   -0.914378   -1.638423
    100          6           0        4.698618   -2.210868   -0.389587
    101          1           0        4.960560   -2.091304    0.664177
    102          6           0        5.870967   -1.786776   -1.306359
    103          6           0        4.284902   -3.672545   -0.683053
    104          1           0        4.074183   -3.734795   -1.758686
    105          1           0        3.336741   -3.848121   -0.161576
    106          8           0        5.570985   -1.446792   -2.467970
    107          6           0        5.251619   -4.794848   -0.263381
    108          1           0        4.734104   -5.751082   -0.428793
    109          1           0        5.440233   -4.738932    0.816068
    110          6           0        6.628555   -4.853237   -0.948440
    111          1           0        7.123403   -5.798940   -0.694640
    112          1           0        7.245086   -4.029365   -0.601070
    113          7           0        6.515311   -4.764756   -2.414191
    114          1           0        5.773472   -5.309811   -2.832906
    115          7           0        8.140334   -3.137188   -2.817272
    116          1           0        8.680612   -2.662024   -3.528735
    117          1           0        7.850593   -2.535719   -1.966549
    118          7           0        7.159834   -4.285197   -4.589642
    119          1           0        7.284803   -3.507112   -5.222771
    120          1           0        6.528331   -5.003142   -4.915773
    121          6           0        7.262632   -4.032480   -3.254041
    122          8           0        7.035546   -1.926795   -0.808258
    123          1           0       -0.748018    3.646413   -2.587208
 ---------------------------------------------------------------------

 SCF Done:  E(RB3LYP) =  -2974.22559898     A.U. after    2 cycles

 Alpha  occ. eigenvalues --  -19.25393 -19.24891 -19.23638 -19.22911 -19.21267
 Alpha  occ. eigenvalues --  -19.21161 -19.20005 -19.19617 -19.18413 -19.14177
 Alpha  occ. eigenvalues --  -19.13576 -14.58614 -14.47192 -14.46278 -14.46235
 Alpha  occ. eigenvalues --  -14.46162 -14.46054 -14.43522 -14.43177 -14.42214
 Alpha  occ. eigenvalues --  -14.41887 -10.41501 -10.41369 -10.39446 -10.39139
 Alpha  occ. eigenvalues --  -10.38764 -10.38478 -10.36784 -10.36518 -10.35195
 Alpha  occ. eigenvalues --  -10.33996 -10.32564 -10.31717 -10.31708 -10.31630
 Alpha  occ. eigenvalues --  -10.31464 -10.31323 -10.30530 -10.29943 -10.29400
 Alpha  occ. eigenvalues --  -10.29291 -10.28720 -10.28432 -10.28371 -10.28238
 Alpha  occ. eigenvalues --  -10.28140 -10.27491 -10.27303 -10.27196 -10.26871
 Alpha  occ. eigenvalues --  -10.26820 -10.26532 -10.26420 -10.26224 -10.26108
 Alpha  occ. eigenvalues --  -10.25960 -10.25864 -10.25786 -10.25348 -10.24857
 Alpha  occ. eigenvalues --  -10.24012 -10.23861  -1.17259  -1.17059  -1.14366
 Alpha  occ. eigenvalues --   -1.13597  -1.12445  -1.11773  -1.11347  -1.11103
 Alpha  occ. eigenvalues --   -1.10000  -1.09875  -1.08110  -1.07323  -1.04332
 Alpha  occ. eigenvalues --   -1.02617  -1.02206  -1.00278  -1.00128  -0.99814
 Alpha  occ. eigenvalues --   -0.99247  -0.97813  -0.96965  -0.95863  -0.92807
 Alpha  occ. eigenvalues --   -0.91660  -0.89215  -0.88235  -0.87540  -0.86738
 Alpha  occ. eigenvalues --   -0.86009  -0.84883  -0.84224  -0.83701  -0.83560
 Alpha  occ. eigenvalues --   -0.81914  -0.81566  -0.80216  -0.78871  -0.78033
 Alpha  occ. eigenvalues --   -0.75957  -0.75125  -0.74734  -0.74323  -0.73504
 Alpha  occ. eigenvalues --   -0.72815  -0.72484  -0.71865  -0.71519  -0.70673
 Alpha  occ. eigenvalues --   -0.70153  -0.69666  -0.68868  -0.68651  -0.68476
 Alpha  occ. eigenvalues --   -0.68224  -0.67669  -0.66875  -0.66539  -0.65952
 Alpha  occ. eigenvalues --   -0.65154  -0.64888  -0.64492  -0.64204  -0.63981
 Alpha  occ. eigenvalues --   -0.63000  -0.62625  -0.61600  -0.61327  -0.61166
 Alpha  occ. eigenvalues --   -0.60623  -0.59119  -0.58755  -0.58404  -0.58367
 Alpha  occ. eigenvalues --   -0.57395  -0.57333  -0.56863  -0.56395  -0.56259
 Alpha  occ. eigenvalues --   -0.56063  -0.55970  -0.55770  -0.55515  -0.55238
 Alpha  occ. eigenvalues --   -0.54921  -0.54431  -0.54292  -0.53810  -0.53802
 Alpha  occ. eigenvalues --   -0.53455  -0.53339  -0.53206  -0.52665  -0.52315
 Alpha  occ. eigenvalues --   -0.52277  -0.51989  -0.51802  -0.51689  -0.51511
 Alpha  occ. eigenvalues --   -0.51005  -0.50653  -0.50153  -0.49997  -0.49894
 Alpha  occ. eigenvalues --   -0.49630  -0.49475  -0.49390  -0.49127  -0.49073
 Alpha  occ. eigenvalues --   -0.48725  -0.48563  -0.48446  -0.48213  -0.48081
 Alpha  occ. eigenvalues --   -0.47933  -0.47860  -0.47249  -0.47121  -0.46802
 Alpha  occ. eigenvalues --   -0.46524  -0.46142  -0.45908  -0.45606  -0.45493
 Alpha  occ. eigenvalues --   -0.45292  -0.44977  -0.44875  -0.44615  -0.44551
 Alpha  occ. eigenvalues --   -0.44086  -0.43940  -0.43768  -0.43755  -0.43429
 Alpha  occ. eigenvalues --   -0.43342  -0.43148  -0.42913  -0.42830  -0.42361
 Alpha  occ. eigenvalues --   -0.42064  -0.41563  -0.41277  -0.40338  -0.39960
 Alpha  occ. eigenvalues --   -0.39620  -0.39543  -0.39373  -0.38979  -0.38485
 Alpha  occ. eigenvalues --   -0.37767  -0.37147  -0.36979  -0.36596  -0.36440
 Alpha  occ. eigenvalues --   -0.36228  -0.35047  -0.34938  -0.34843  -0.34336
 Alpha  occ. eigenvalues --   -0.34296  -0.34197  -0.33618  -0.33247  -0.32376
 Alpha  occ. eigenvalues --   -0.32283  -0.32226  -0.32003  -0.29984  -0.29617
 Alpha  occ. eigenvalues --   -0.28447  -0.27787
 Alpha virt. eigenvalues --   -0.11246  -0.10433  -0.09951  -0.09197  -0.08978
 Alpha virt. eigenvalues --   -0.08520  -0.07641  -0.07156  -0.06477  -0.06358
 Alpha virt. eigenvalues --   -0.05909  -0.04854  -0.04284  -0.03585  -0.03263

 Mulliken charges:
               1
     1  N   -0.740596
     2  H    0.411748
     3  H    0.408690
     4  H    0.423147
     5  C   -0.142219
     6  H    0.223129
     7  C    0.635747
     8  C   -0.364781
     9  H    0.256572
    10  H    0.177090
    11  O   -0.544730
    12  C    0.111809
    13  C   -0.177840
    14  H    0.150390
    15  C   -0.225520
    16  H    0.125787
    17  C   -0.124459
    18  H    0.160831
    19  C   -0.132795
    20  H    0.177394
    21  C   -0.132513
    22  H    0.166441
    23  N   -0.625756
    24  H    0.421003
    25  C   -0.031229
    26  H    0.210822
    27  C    0.575757
    28  C   -0.486872
    29  H    0.173858
    30  H    0.169461
    31  H    0.191069
    32  O   -0.527866
    33  N   -0.586875
    34  H    0.348229
    35  C   -0.079195
    36  H    0.199566
    37  C    0.618419
    38  C   -0.453779
    39  H    0.183338
    40  H    0.169299
    41  H    0.165208
    42  O   -0.504262
    43  N   -0.653242
    44  H    0.377837
    45  C    0.002637
    46  H    0.172502
    47  C    0.621778
    48  C   -0.389787
    49  H    0.208781
    50  H    0.136205
    51  O   -0.591676
    52  C    0.169856
    53  C   -0.197700
    54  H    0.105695
    55  C   -0.213127
    56  H    0.144653
    57  C   -0.165551
    58  H    0.143159
    59  C   -0.132960
    60  H    0.152062
    61  O   -0.703431
    62  H    0.445476
    63  C    0.346210
    64  N   -0.559592
    65  H    0.360499
    66  C   -0.113972
    67  H    0.180555
    68  C    0.615097
    69  C   -0.282039
    70  H    0.145686
    71  H    0.175024
    72  O   -0.512531
    73  C   -0.068086
    74  H    0.128427
    75  C   -0.445902
    76  H    0.148962
    77  H    0.152391
    78  H    0.144634
    79  C   -0.477185
    80  H    0.153713
    81  H    0.151446
    82  H    0.151475
    83  N   -0.629630
    84  H    0.366070
    85  C   -0.089390
    86  H    0.214830
    87  C    0.621879
    88  C   -0.270124
    89  H    0.147144
    90  H    0.177413
    91  O   -0.571628
    92  C   -0.351912
    93  H    0.187495
    94  H    0.163682
    95  C    0.614723
    96  O   -0.489275
    97  O   -0.593611
    98  N   -0.599789
    99  H    0.355354
   100  C   -0.015732
   101  H    0.162148
   102  C    0.582944
   103  C   -0.262750
   104  H    0.130848
   105  H    0.158529
   106  O   -0.586608
   107  C   -0.296955
   108  H    0.137829
   109  H    0.166592
   110  C   -0.153378
   111  H    0.165330
   112  H    0.230347
   113  N   -0.594867
   114  H    0.337416
   115  N   -0.749166
   116  H    0.342843
   117  H    0.428978
   118  N   -0.759920
   119  H    0.368519
   120  H    0.352684
   121  C    0.778141
   122  O   -0.620567
   123  H    0.442067
 Sum of Mulliken charges =   1.00000

 Dipole moment (field-independent basis, Debye):
    X=             -4.4572    Y=             -3.8784    Z=              8.5994  Tot=             10.4336
 Quadrupole moment (field-independent basis, Debye-Ang):
   XX=           -236.9828   YY=           -286.8880   ZZ=           -262.1177
   XY=            -64.6607   XZ=            -89.3046   YZ=             62.0126

 Normal termination of Gaussian 16 at Mon Jul 11 14:06:55 2022.
