 Gaussian 16, Revision C.01,
 Gaussian 16:  ES64L-G16RevC.01  3-Jul-2019

 ----------------------------------------------------------------------
 # B3LYP/6-31G* empiricaldispersion=gd3 guess=read geom=check nosymm in
 tegral(ultrafinegrid)
 ----------------------------------------------------------------------

 ------------------------------------------------------
 Candidate Structure: Conf:625 Charge calc in gas phase
 ------------------------------------------------------
 Structure from the checkpoint file:  "conf-625.chk"
 Charge =  1 Multiplicity = 1

                          Input orientation:
 ---------------------------------------------------------------------
 Center     Atomic      Atomic             Coordinates (Angstroms)
 Number     Number       Type             X           Y           Z
 ---------------------------------------------------------------------
      1          7           0       -9.754528    3.112982    9.121692
      2          1           0      -10.564027    3.722886    8.974715
      3          1           0       -9.534019    3.091223   10.121218
      4          1           0       -9.989761    2.141958    8.748607
      5          6           0       -8.565098    3.474086    8.251463
      6          1           0       -8.649134    4.520226    7.951502
      7          6           0       -8.728752    2.499890    7.056441
      8          6           0       -7.254915    3.225519    9.034145
      9          1           0       -7.260465    2.189624    9.395666
     10          1           0       -7.251297    3.887143    9.911032
     11          8           0       -9.431079    1.490341    7.247676
     12          6           0       -6.034671    3.474176    8.173855
     13          6           0       -5.299726    2.400405    7.657299
     14          1           0       -5.576452    1.381261    7.917527
     15          6           0       -5.670767    4.782712    7.829560
     16          1           0       -6.225962    5.626542    8.235796
     17          6           0       -4.216754    2.630976    6.809009
     18          1           0       -3.653203    1.791969    6.412200
     19          6           0       -4.592332    5.012785    6.975026
     20          1           0       -4.319964    6.029971    6.710892
     21          6           0       -3.865188    3.936691    6.463722
     22          1           0       -3.027976    4.115554    5.796224
     23          7           0       -8.084019    2.807132    5.945202
     24          1           0       -7.462661    3.618988    5.875344
     25          6           0       -7.956537    1.913418    4.794841
     26          1           0       -7.718098    0.908053    5.160608
     27          6           0       -6.762364    2.486303    3.998536
     28          6           0       -9.239770    1.867684    3.953676
     29          1           0       -9.111948    1.191746    3.102923
     30          1           0       -9.479748    2.864709    3.571279
     31          1           0      -10.071029    1.504175    4.563659
     32          8           0       -6.345192    3.622529    4.245320
     33          7           0       -6.264569    1.681420    3.053826
     34          1           0       -6.629363    0.747724    2.876747
     35          6           0       -5.158283    2.052211    2.181053
     36          1           0       -5.348789    3.054437    1.779797
     37          6           0       -5.155676    1.013513    1.047559
     38          6           0       -3.813823    2.043704    2.931120
     39          1           0       -2.986291    2.288889    2.260994
     40          1           0       -3.619372    1.046166    3.335789
     41          1           0       -3.857354    2.771849    3.744825
     42          8           0       -5.760232   -0.049397    1.172749
     43          7           0       -4.458422    1.372321   -0.061982
     44          1           0       -3.836168    2.166000    0.042190
     45          6           0       -3.955446    0.354066   -0.973121
     46          1           0       -4.672423   -0.471968   -0.941600
     47          6           0       -2.611514   -0.165471   -0.393221
     48          6           0       -3.875084    0.903897   -2.419032
     49          1           0       -3.701971    0.066255   -3.105134
     50          1           0       -4.868397    1.298160   -2.662355
     51          8           0       -2.232505    0.200634    0.718151
     52          6           0       -2.804601    1.954604   -2.615703
     53          6           0       -2.975549    3.279793   -2.181363
     54          1           0       -3.936769    3.592505   -1.777658
     55          6           0       -1.581582    1.611473   -3.203060
     56          1           0       -1.410593    0.604070   -3.567122
     57          6           0       -1.945389    4.213889   -2.271910
     58          1           0       -2.075862    5.234333   -1.925598
     59          6           0       -0.553000    2.540123   -3.321624
     60          1           0        0.374772    2.262903   -3.809242
     61          8           0        0.282066    4.763387   -2.875707
     62          1           0        1.097069    4.320767   -3.177312
     63          6           0       -0.714743    3.839531   -2.826740
     64          7           0       -1.936989   -1.066689   -1.148984
     65          1           0       -2.179412   -1.199180   -2.122676
     66          6           0       -0.626297   -1.567331   -0.762846
     67          1           0       -0.327648   -1.009262    0.126861
     68          6           0        0.370683   -1.299119   -1.897508
     69          6           0       -0.649779   -3.082451   -0.457468
     70          1           0       -0.927941   -3.608345   -1.381409
     71          1           0        0.372966   -3.402954   -0.213226
     72          8           0        0.009518   -1.184839   -3.069198
     73          6           0       -1.602133   -3.497064    0.678189
     74          1           0       -2.612749   -3.161701    0.405248
     75          6           0       -1.622594   -5.027837    0.799338
     76          1           0       -0.631630   -5.410213    1.076544
     77          1           0       -2.331476   -5.351026    1.570330
     78          1           0       -1.912341   -5.503297   -0.145476
     79          6           0       -1.229293   -2.845433    2.018386
     80          1           0       -0.192698   -3.084613    2.292057
     81          1           0       -1.341075   -1.757450    1.984562
     82          1           0       -1.877220   -3.220797    2.819400
     83          7           0        1.664333   -1.238641   -1.491666
     84          1           0        1.893021   -1.563134   -0.554552
     85          6           0        2.785662   -1.377437   -2.407862
     86          1           0        2.382408   -1.647032   -3.390038
     87          6           0        3.670153   -2.517795   -1.855502
     88          6           0        3.605503   -0.077551   -2.522680
     89          1           0        4.040422    0.162106   -1.545568
     90          1           0        4.447985   -0.237389   -3.203600
     91          8           0        3.539960   -2.901594   -0.688386
     92          6           0        2.758996    1.097225   -3.011776
     93          1           0        1.935184    1.304017   -2.318971
     94          1           0        2.282674    0.867387   -3.973755
     95          6           0        3.579099    2.353323   -3.178969
     96          8           0        4.764292    2.468414   -2.985272
     97          8           0        2.822042    3.417119   -3.613089
     98          7           0        4.582173   -3.003489   -2.711592
     99          1           0        4.660862   -2.676097   -3.670801
    100          6           0        5.592377   -3.990636   -2.353910
    101          1           0        6.029772   -3.721426   -1.388562
    102          6           0        6.713304   -3.946987   -3.416493
    103          6           0        4.954999   -5.404701   -2.228863
    104          1           0        4.202507   -5.507497   -3.022012
    105          1           0        4.405436   -5.424513   -1.282855
    106          8           0        7.821502   -4.415959   -3.062390
    107          6           0        5.945364   -6.588739   -2.297754
    108          1           0        5.545368   -7.428619   -1.719019
    109          1           0        6.892434   -6.289224   -1.840223
    110          6           0        6.207173   -7.067480   -3.754797
    111          1           0        5.744563   -6.368460   -4.453371
    112          1           0        5.755835   -8.048041   -3.933510
    113          7           0        7.634223   -7.156675   -4.117275
    114          1           0        8.216483   -7.695760   -3.485940
    115          7           0        7.691892   -5.530800   -5.825410
    116          1           0        7.529616   -4.521203   -5.595655
    117          1           0        6.812300   -5.933785   -6.129552
    118          7           0        9.586975   -5.979576   -4.552858
    119          1           0       10.004651   -5.285565   -5.162026
    120          1           0        9.804390   -5.821577   -3.574131
    121          6           0        8.272335   -6.193092   -4.797772
    122          8           0        6.394453   -3.529417   -4.571244
    123          1           0        3.448569    4.158126   -3.726773
 ---------------------------------------------------------------------

 SCF Done:  E(RB3LYP) =  -2974.18817136     A.U. after    3 cycles

 Alpha  occ. eigenvalues --  -19.26217 -19.25847 -19.20801 -19.20782 -19.19699
 Alpha  occ. eigenvalues --  -19.18993 -19.17166 -19.17030 -19.15709 -19.13035
 Alpha  occ. eigenvalues --  -19.12088 -14.60026 -14.48486 -14.44637 -14.44290
 Alpha  occ. eigenvalues --  -14.42891 -14.42223 -14.41322 -14.41043 -14.40581
 Alpha  occ. eigenvalues --  -14.39352 -10.42828 -10.40557 -10.39525 -10.37849
 Alpha  occ. eigenvalues --  -10.37763 -10.35783 -10.34292 -10.33920 -10.33883
 Alpha  occ. eigenvalues --  -10.33839 -10.32722 -10.30877 -10.30493 -10.30321
 Alpha  occ. eigenvalues --  -10.29244 -10.29128 -10.29044 -10.28860 -10.28842
 Alpha  occ. eigenvalues --  -10.28340 -10.28247 -10.28054 -10.27989 -10.27984
 Alpha  occ. eigenvalues --  -10.27593 -10.25343 -10.25289 -10.25119 -10.24536
 Alpha  occ. eigenvalues --  -10.24169 -10.23796 -10.23657 -10.23526 -10.23314
 Alpha  occ. eigenvalues --  -10.23088 -10.22851 -10.22812 -10.22737 -10.22561
 Alpha  occ. eigenvalues --  -10.21321 -10.20850  -1.18722  -1.16075  -1.13716
 Alpha  occ. eigenvalues --   -1.12764  -1.10886  -1.09236  -1.09188  -1.08545
 Alpha  occ. eigenvalues --   -1.08223  -1.07365  -1.07211  -1.05669  -1.05318
 Alpha  occ. eigenvalues --   -1.00972  -0.99208  -0.97947  -0.97788  -0.97474
 Alpha  occ. eigenvalues --   -0.97260  -0.96387  -0.95835  -0.95199  -0.92492
 Alpha  occ. eigenvalues --   -0.89646  -0.88185  -0.86161  -0.85359  -0.84988
 Alpha  occ. eigenvalues --   -0.84349  -0.84106  -0.84072  -0.82580  -0.80572
 Alpha  occ. eigenvalues --   -0.79470  -0.79059  -0.78868  -0.77512  -0.76542
 Alpha  occ. eigenvalues --   -0.76332  -0.73795  -0.73397  -0.73049  -0.72423
 Alpha  occ. eigenvalues --   -0.72048  -0.71168  -0.70667  -0.70371  -0.69601
 Alpha  occ. eigenvalues --   -0.68913  -0.68555  -0.68020  -0.66895  -0.66295
 Alpha  occ. eigenvalues --   -0.66051  -0.65519  -0.64657  -0.64571  -0.63880
 Alpha  occ. eigenvalues --   -0.63518  -0.63013  -0.62812  -0.62688  -0.61852
 Alpha  occ. eigenvalues --   -0.61381  -0.60918  -0.60779  -0.60449  -0.59343
 Alpha  occ. eigenvalues --   -0.59020  -0.58292  -0.58037  -0.57497  -0.56796
 Alpha  occ. eigenvalues --   -0.56460  -0.55694  -0.55461  -0.55168  -0.54970
 Alpha  occ. eigenvalues --   -0.54622  -0.54383  -0.54083  -0.53974  -0.53572
 Alpha  occ. eigenvalues --   -0.53205  -0.52915  -0.52814  -0.52183  -0.52085
 Alpha  occ. eigenvalues --   -0.51721  -0.51621  -0.51342  -0.51173  -0.51082
 Alpha  occ. eigenvalues --   -0.50871  -0.50669  -0.50325  -0.50242  -0.49970
 Alpha  occ. eigenvalues --   -0.49906  -0.49272  -0.48856  -0.48577  -0.48181
 Alpha  occ. eigenvalues --   -0.47902  -0.47809  -0.47484  -0.47161  -0.46986
 Alpha  occ. eigenvalues --   -0.46568  -0.46477  -0.46350  -0.46129  -0.45657
 Alpha  occ. eigenvalues --   -0.45546  -0.45415  -0.45109  -0.44860  -0.44757
 Alpha  occ. eigenvalues --   -0.44628  -0.44481  -0.44372  -0.44199  -0.43997
 Alpha  occ. eigenvalues --   -0.43914  -0.43766  -0.43480  -0.42924  -0.42675
 Alpha  occ. eigenvalues --   -0.42512  -0.42381  -0.42108  -0.41901  -0.41747
 Alpha  occ. eigenvalues --   -0.41202  -0.41001  -0.40813  -0.40374  -0.40169
 Alpha  occ. eigenvalues --   -0.39957  -0.39467  -0.38917  -0.38830  -0.38601
 Alpha  occ. eigenvalues --   -0.37957  -0.37457  -0.37388  -0.36998  -0.36643
 Alpha  occ. eigenvalues --   -0.36541  -0.36460  -0.35337  -0.35107  -0.34680
 Alpha  occ. eigenvalues --   -0.34484  -0.33878  -0.33558  -0.33254  -0.32964
 Alpha  occ. eigenvalues --   -0.32367  -0.31818  -0.31081  -0.30957  -0.30016
 Alpha  occ. eigenvalues --   -0.29646  -0.29526  -0.29218  -0.28141  -0.27489
 Alpha  occ. eigenvalues --   -0.26012  -0.25732
 Alpha virt. eigenvalues --   -0.12070  -0.10941  -0.10686  -0.09877  -0.06912
 Alpha virt. eigenvalues --   -0.06489  -0.05834  -0.05047  -0.04661  -0.04415
 Alpha virt. eigenvalues --   -0.03408  -0.03044  -0.02839  -0.02544  -0.01653

 Mulliken charges:
               1
     1  N   -0.755507
     2  H    0.416975
     3  H    0.413660
     4  H    0.431756
     5  C   -0.111450
     6  H    0.215783
     7  C    0.653562
     8  C   -0.380348
     9  H    0.183712
    10  H    0.183406
    11  O   -0.551772
    12  C    0.146859
    13  C   -0.181426
    14  H    0.141540
    15  C   -0.196430
    16  H    0.131137
    17  C   -0.124888
    18  H    0.160525
    19  C   -0.111551
    20  H    0.159912
    21  C   -0.106152
    22  H    0.161814
    23  N   -0.598094
    24  H    0.387518
    25  C   -0.053833
    26  H    0.188088
    27  C    0.636262
    28  C   -0.453325
    29  H    0.179878
    30  H    0.171704
    31  H    0.184574
    32  O   -0.549099
    33  N   -0.623020
    34  H    0.361837
    35  C   -0.051556
    36  H    0.179455
    37  C    0.628187
    38  C   -0.454016
    39  H    0.181424
    40  H    0.168656
    41  H    0.170776
    42  O   -0.532698
    43  N   -0.584582
    44  H    0.342946
    45  C   -0.089811
    46  H    0.202808
    47  C    0.630394
    48  C   -0.375358
    49  H    0.153187
    50  H    0.170208
    51  O   -0.531581
    52  C    0.160213
    53  C   -0.214101
    54  H    0.123704
    55  C   -0.206189
    56  H    0.165458
    57  C   -0.158781
    58  H    0.138676
    59  C   -0.212218
    60  H    0.144166
    61  O   -0.671379
    62  H    0.435967
    63  C    0.346705
    64  N   -0.595710
    65  H    0.344648
    66  C   -0.086487
    67  H    0.190699
    68  C    0.619696
    69  C   -0.265158
    70  H    0.140663
    71  H    0.154056
    72  O   -0.543565
    73  C   -0.064763
    74  H    0.131904
    75  C   -0.443846
    76  H    0.144585
    77  H    0.143075
    78  H    0.140867
    79  C   -0.471770
    80  H    0.137423
    81  H    0.177143
    82  H    0.136779
    83  N   -0.592170
    84  H    0.354832
    85  C   -0.088365
    86  H    0.179519
    87  C    0.626001
    88  C   -0.256801
    89  H    0.168046
    90  H    0.172615
    91  O   -0.554473
    92  C   -0.373615
    93  H    0.199635
    94  H    0.194926
    95  C    0.596774
    96  O   -0.437718
    97  O   -0.601301
    98  N   -0.615253
    99  H    0.349817
   100  C   -0.009738
   101  H    0.171347
   102  C    0.578924
   103  C   -0.287301
   104  H    0.137320
   105  H    0.174809
   106  O   -0.610884
   107  C   -0.283936
   108  H    0.145399
   109  H    0.179560
   110  C   -0.166152
   111  H    0.171387
   112  H    0.172341
   113  N   -0.543356
   114  H    0.346121
   115  N   -0.725112
   116  H    0.394177
   117  H    0.340768
   118  N   -0.700558
   119  H    0.364105
   120  H    0.370373
   121  C    0.692151
   122  O   -0.620942
   123  H    0.422226
 Sum of Mulliken charges =   1.00000

 Dipole moment (field-independent basis, Debye):
    X=            -26.5929    Y=              4.6829    Z=             26.7349  Tot=             37.9982
 Quadrupole moment (field-independent basis, Debye-Ang):
   XX=             18.0026   YY=           -235.1651   ZZ=            -44.3690
   XY=           -188.9858   XZ=           -335.0632   YZ=            154.4773

 Normal termination of Gaussian 16 at Mon Jul 11 14:06:47 2022.
