 Gaussian 16, Revision C.01,
 Gaussian 16:  ES64L-G16RevC.01  3-Jul-2019

 ----------------------------------------------------------------------
 # B3LYP/6-31G* empiricaldispersion=gd3 guess=read geom=check nosymm in
 tegral(ultrafinegrid)
 ----------------------------------------------------------------------

 ------------------------------------------------------
 Candidate Structure: Conf:123 Charge calc in gas phase
 ------------------------------------------------------
 Structure from the checkpoint file:  "conf-123.chk"
 Charge =  1 Multiplicity = 1

                          Input orientation:
 ---------------------------------------------------------------------
 Center     Atomic      Atomic             Coordinates (Angstroms)
 Number     Number       Type             X           Y           Z
 ---------------------------------------------------------------------
      1          7           0      -10.561700    5.341570    5.777068
      2          1           0      -10.949956    4.616781    5.112177
      3          1           0      -11.198086    6.131640    5.901152
      4          1           0      -10.398051    4.881257    6.688345
      5          6           0       -9.237058    5.703315    5.143808
      6          1           0       -9.395973    6.618236    4.564774
      7          6           0       -9.013444    4.527406    4.149143
      8          6           0       -8.148014    5.922047    6.218831
      9          1           0       -8.396773    6.833988    6.774444
     10          1           0       -7.203884    6.132567    5.705911
     11          8           0       -9.972448    3.777996    3.917141
     12          6           0       -8.014481    4.742223    7.158369
     13          6           0       -8.777441    4.699374    8.338345
     14          1           0       -9.362848    5.568972    8.638139
     15          6           0       -7.186564    3.654687    6.842218
     16          1           0       -6.560748    3.685916    5.954268
     17          6           0       -8.734664    3.579801    9.175055
     18          1           0       -9.320078    3.565358   10.089533
     19          6           0       -7.140558    2.543467    7.683947
     20          1           0       -6.486740    1.712097    7.436979
     21          6           0       -7.920131    2.497347    8.843269
     22          1           0       -7.878440    1.628857    9.493530
     23          7           0       -7.812897    4.436269    3.589997
     24          1           0       -7.013417    4.962978    3.941832
     25          6           0       -7.396451    3.303997    2.763528
     26          1           0       -7.924471    2.411860    3.119213
     27          6           0       -5.884970    3.150998    3.052242
     28          6           0       -7.713867    3.532224    1.279549
     29          1           0       -7.418039    2.667847    0.677363
     30          1           0       -7.186056    4.413429    0.902024
     31          1           0       -8.790099    3.680128    1.154505
     32          8           0       -5.315113    3.946614    3.813232
     33          7           0       -5.272050    2.132895    2.441433
     34          1           0       -5.743397    1.523965    1.775024
     35          6           0       -3.838987    1.887356    2.541632
     36          1           0       -3.313774    2.842441    2.421564
     37          6           0       -3.498653    0.955604    1.362142
     38          6           0       -3.455023    1.265647    3.894020
     39          1           0       -2.374393    1.104415    3.955456
     40          1           0       -3.958134    0.302454    4.026820
     41          1           0       -3.751156    1.942750    4.699404
     42          8           0       -4.391477    0.411370    0.707279
     43          7           0       -2.185804    0.769526    1.137533
     44          1           0       -1.474880    1.289677    1.642498
     45          6           0       -1.678909   -0.041734    0.040253
     46          1           0       -2.270512   -0.961164   -0.004799
     47          6           0       -0.218197   -0.357705    0.388391
     48          6           0       -1.813630    0.732191   -1.303595
     49          1           0       -2.889778    0.877155   -1.456188
     50          1           0       -1.365344    1.721930   -1.165355
     51          8           0        0.454851    0.444905    1.042958
     52          6           0       -1.179227    0.062793   -2.503228
     53          6           0       -0.274564    0.783472   -3.293557
     54          1           0       -0.075488    1.820597   -3.044129
     55          6           0       -1.454208   -1.263783   -2.864275
     56          1           0       -2.192247   -1.839117   -2.307676
     57          6           0        0.363750    0.199643   -4.384430
     58          1           0        1.058398    0.766516   -4.997123
     59          6           0       -0.799463   -1.873304   -3.936841
     60          1           0       -1.011242   -2.910123   -4.189592
     61          8           0        0.827581   -1.681017   -5.741293
     62          1           0        0.576881   -2.611227   -5.856865
     63          6           0        0.122349   -1.140184   -4.688646
     64          7           0        0.254282   -1.547055   -0.050841
     65          1           0       -0.291731   -2.047778   -0.741586
     66          6           0        1.676348   -1.911649    0.038693
     67          1           0        2.046114   -1.477825    0.970281
     68          6           0        2.381861   -1.240611   -1.155851
     69          6           0        1.853870   -3.428641    0.039019
     70          1           0        1.566445   -3.810563   -0.948426
     71          1           0        2.928177   -3.632584    0.136004
     72          8           0        2.572379   -1.865551   -2.208160
     73          6           0        1.084117   -4.173865    1.144775
     74          1           0        0.009412   -3.995224    0.991496
     75          6           0        1.335068   -5.683358    1.020695
     76          1           0        2.394625   -5.916605    1.185505
     77          1           0        0.752068   -6.242063    1.761423
     78          1           0        1.062805   -6.055295    0.025702
     79          6           0        1.447229   -3.672518    2.550052
     80          1           0        2.526656   -3.761040    2.728860
     81          1           0        1.164833   -2.624313    2.700238
     82          1           0        0.934569   -4.263887    3.317034
     83          7           0        2.631686    0.063242   -0.977695
     84          1           0        2.389427    0.459281   -0.076641
     85          6           0        2.999121    0.988390   -2.039932
     86          1           0        2.462513    0.676309   -2.940482
     87          6           0        4.514059    0.906099   -2.349529
     88          6           0        2.497425    2.388002   -1.617906
     89          1           0        1.535841    2.238285   -1.116145
     90          1           0        3.183234    2.811817   -0.873792
     91          8           0        5.253428    0.165509   -1.676815
     92          6           0        2.278335    3.396215   -2.758054
     93          1           0        1.991441    2.874595   -3.682931
     94          1           0        3.169811    3.966409   -3.029428
     95          6           0        1.113743    4.313845   -2.451505
     96          8           0        0.086238    3.980511   -1.882856
     97          8           0        1.303673    5.558448   -2.921325
     98          7           0        4.896959    1.626561   -3.405652
     99          1           0        4.248541    2.280058   -3.889655
    100          6           0        6.225527    2.186520   -3.676543
    101          1           0        6.695325    2.458473   -2.723228
    102          6           0        5.934688    3.527383   -4.496153
    103          6           0        7.208353    1.314077   -4.465635
    104          1           0        8.004876    2.004724   -4.755849
    105          1           0        6.725558    1.006968   -5.405654
    106          8           0        6.938263    4.157566   -4.845603
    107          6           0        7.798503    0.097591   -3.718730
    108          1           0        7.609659    0.196958   -2.644784
    109          1           0        8.887419    0.055210   -3.850109
    110          6           0        7.250772   -1.258488   -4.177426
    111          1           0        7.684142   -2.068651   -3.580421
    112          1           0        7.522921   -1.468311   -5.216291
    113          7           0        5.793371   -1.356865   -4.033482
    114          1           0        5.465271   -1.150772   -3.084234
    115          7           0        5.258650   -1.229408   -6.315459
    116          1           0        4.532453   -1.010848   -6.983843
    117          1           0        6.144378   -0.793206   -6.530972
    118          7           0        3.588167   -1.318121   -4.704973
    119          1           0        2.867604   -1.328219   -5.417671
    120          1           0        3.267913   -1.498039   -3.741310
    121          6           0        4.886503   -1.276855   -5.004748
    122          8           0        4.700144    3.756148   -4.696008
    123          1           0        0.490304    6.062809   -2.729265
 ---------------------------------------------------------------------

 SCF Done:  E(RB3LYP) =  -2974.18413034     A.U. after    1 cycles

 Alpha  occ. eigenvalues --  -19.26931 -19.26364 -19.24378 -19.22907 -19.20773
 Alpha  occ. eigenvalues --  -19.20460 -19.19051 -19.18967 -19.15203 -19.07355
 Alpha  occ. eigenvalues --  -19.06005 -14.59584 -14.49460 -14.46200 -14.44665
 Alpha  occ. eigenvalues --  -14.44531 -14.44479 -14.43134 -14.42261 -14.42199
 Alpha  occ. eigenvalues --  -14.37038 -10.43754 -10.41090 -10.40083 -10.39819
 Alpha  occ. eigenvalues --  -10.37813 -10.37327 -10.37005 -10.35521 -10.35236
 Alpha  occ. eigenvalues --  -10.34475 -10.32914 -10.32490 -10.32349 -10.32004
 Alpha  occ. eigenvalues --  -10.31850 -10.31234 -10.30488 -10.30263 -10.30206
 Alpha  occ. eigenvalues --  -10.30173 -10.30023 -10.28828 -10.28409 -10.28295
 Alpha  occ. eigenvalues --  -10.27027 -10.26778 -10.26712 -10.26548 -10.26354
 Alpha  occ. eigenvalues --  -10.25849 -10.25713 -10.25032 -10.25002 -10.24695
 Alpha  occ. eigenvalues --  -10.24616 -10.23870 -10.22973 -10.22793 -10.22368
 Alpha  occ. eigenvalues --  -10.21972 -10.20487  -1.19381  -1.15391  -1.14807
 Alpha  occ. eigenvalues --   -1.13898  -1.13725  -1.12857  -1.12073  -1.10404
 Alpha  occ. eigenvalues --   -1.08543  -1.06423  -1.06367  -1.06150  -1.02877
 Alpha  occ. eigenvalues --   -1.01344  -1.00940  -1.00251  -0.98942  -0.98012
 Alpha  occ. eigenvalues --   -0.97755  -0.96548  -0.94245  -0.93487  -0.92836
 Alpha  occ. eigenvalues --   -0.91346  -0.89566  -0.87955  -0.87006  -0.86190
 Alpha  occ. eigenvalues --   -0.85903  -0.85313  -0.84703  -0.82884  -0.82250
 Alpha  occ. eigenvalues --   -0.82149  -0.80231  -0.80102  -0.78560  -0.77418
 Alpha  occ. eigenvalues --   -0.76629  -0.75438  -0.74621  -0.74008  -0.73794
 Alpha  occ. eigenvalues --   -0.73135  -0.71988  -0.71707  -0.71410  -0.70987
 Alpha  occ. eigenvalues --   -0.70072  -0.69801  -0.69699  -0.69034  -0.68245
 Alpha  occ. eigenvalues --   -0.67541  -0.67243  -0.66791  -0.66074  -0.65758
 Alpha  occ. eigenvalues --   -0.65239  -0.63984  -0.63773  -0.63386  -0.62729
 Alpha  occ. eigenvalues --   -0.62069  -0.61975  -0.61656  -0.61287  -0.60476
 Alpha  occ. eigenvalues --   -0.59421  -0.58856  -0.58431  -0.57909  -0.57847
 Alpha  occ. eigenvalues --   -0.57596  -0.57485  -0.57282  -0.56870  -0.56734
 Alpha  occ. eigenvalues --   -0.56393  -0.55541  -0.55133  -0.55008  -0.54367
 Alpha  occ. eigenvalues --   -0.54185  -0.53863  -0.53576  -0.53473  -0.53187
 Alpha  occ. eigenvalues --   -0.52979  -0.52794  -0.52733  -0.52486  -0.52196
 Alpha  occ. eigenvalues --   -0.52074  -0.51795  -0.51772  -0.51348  -0.51039
 Alpha  occ. eigenvalues --   -0.50637  -0.50605  -0.49585  -0.49407  -0.49329
 Alpha  occ. eigenvalues --   -0.49202  -0.48951  -0.48536  -0.48438  -0.48181
 Alpha  occ. eigenvalues --   -0.48096  -0.47994  -0.47913  -0.47765  -0.47566
 Alpha  occ. eigenvalues --   -0.46894  -0.46809  -0.46689  -0.46530  -0.46373
 Alpha  occ. eigenvalues --   -0.46076  -0.45684  -0.45455  -0.45432  -0.45283
 Alpha  occ. eigenvalues --   -0.44873  -0.44813  -0.44286  -0.44039  -0.43628
 Alpha  occ. eigenvalues --   -0.43172  -0.43051  -0.42739  -0.42392  -0.42057
 Alpha  occ. eigenvalues --   -0.41465  -0.41462  -0.41179  -0.41053  -0.40161
 Alpha  occ. eigenvalues --   -0.39740  -0.39570  -0.39109  -0.38492  -0.38422
 Alpha  occ. eigenvalues --   -0.38349  -0.38229  -0.37654  -0.37020  -0.36754
 Alpha  occ. eigenvalues --   -0.36474  -0.36434  -0.36320  -0.36219  -0.36163
 Alpha  occ. eigenvalues --   -0.35900  -0.35411  -0.35112  -0.34339  -0.34289
 Alpha  occ. eigenvalues --   -0.33738  -0.32747  -0.32653  -0.32411  -0.32036
 Alpha  occ. eigenvalues --   -0.31626  -0.29256  -0.28980  -0.28200  -0.22352
 Alpha  occ. eigenvalues --   -0.22297  -0.20177
 Alpha virt. eigenvalues --   -0.13083  -0.12467  -0.12399  -0.08921  -0.08604
 Alpha virt. eigenvalues --   -0.08298  -0.07304  -0.06705  -0.05721  -0.04567
 Alpha virt. eigenvalues --   -0.04557  -0.04251  -0.03910  -0.03389  -0.02058

 Mulliken charges:
               1
     1  N   -0.754974
     2  H    0.432589
     3  H    0.410807
     4  H    0.404254
     5  C   -0.114856
     6  H    0.229271
     7  C    0.654550
     8  C   -0.395893
     9  H    0.190073
    10  H    0.209757
    11  O   -0.537946
    12  C    0.139833
    13  C   -0.240286
    14  H    0.142929
    15  C   -0.186611
    16  H    0.173431
    17  C   -0.118515
    18  H    0.165900
    19  C   -0.129706
    20  H    0.162512
    21  C   -0.121238
    22  H    0.167694
    23  N   -0.601859
    24  H    0.374565
    25  C   -0.066924
    26  H    0.202985
    27  C    0.635855
    28  C   -0.451548
    29  H    0.179002
    30  H    0.174319
    31  H    0.186213
    32  O   -0.552136
    33  N   -0.618182
    34  H    0.368403
    35  C   -0.044895
    36  H    0.190484
    37  C    0.629310
    38  C   -0.451113
    39  H    0.169187
    40  H    0.164348
    41  H    0.181548
    42  O   -0.546019
    43  N   -0.621842
    44  H    0.361169
    45  C   -0.044512
    46  H    0.175821
    47  C    0.633904
    48  C   -0.372966
    49  H    0.187321
    50  H    0.196402
    51  O   -0.558435
    52  C    0.164860
    53  C   -0.202713
    54  H    0.177393
    55  C   -0.236955
    56  H    0.139022
    57  C   -0.181115
    58  H    0.159691
    59  C   -0.173970
    60  H    0.135761
    61  O   -0.666402
    62  H    0.421460
    63  C    0.362780
    64  N   -0.593918
    65  H    0.344567
    66  C   -0.089461
    67  H    0.190288
    68  C    0.655578
    69  C   -0.278409
    70  H    0.153033
    71  H    0.159004
    72  O   -0.574103
    73  C   -0.069727
    74  H    0.117404
    75  C   -0.442919
    76  H    0.149821
    77  H    0.148600
    78  H    0.141309
    79  C   -0.455461
    80  H    0.149787
    81  H    0.147978
    82  H    0.149406
    83  N   -0.587289
    84  H    0.369343
    85  C   -0.065414
    86  H    0.173196
    87  C    0.585188
    88  C   -0.316716
    89  H    0.177935
    90  H    0.171250
    91  O   -0.569178
    92  C   -0.390781
    93  H    0.180008
    94  H    0.251529
    95  C    0.575860
    96  O   -0.487143
    97  O   -0.535324
    98  N   -0.609706
    99  H    0.374349
   100  C   -0.070960
   101  H    0.152187
   102  C    0.580713
   103  C   -0.274358
   104  H    0.194401
   105  H    0.092798
   106  O   -0.563182
   107  C   -0.272786
   108  H    0.181793
   109  H    0.146915
   110  C   -0.178195
   111  H    0.175093
   112  H    0.153423
   113  N   -0.589992
   114  H    0.392493
   115  N   -0.756729
   116  H    0.359177
   117  H    0.372216
   118  N   -0.842069
   119  H    0.373462
   120  H    0.436803
   121  C    0.788619
   122  O   -0.624179
   123  H    0.408689
 Sum of Mulliken charges =   1.00000

 Dipole moment (field-independent basis, Debye):
    X=            -42.7604    Y=              7.0238    Z=             21.6879  Tot=             48.4577
 Quadrupole moment (field-independent basis, Debye-Ang):
   XX=            -28.9577   YY=           -264.0195   ZZ=           -181.8456
   XY=           -276.9594   XZ=           -214.6752   YZ=            182.3384

 Normal termination of Gaussian 16 at Mon Jul 11 14:05:54 2022.
