 Gaussian 16, Revision C.01,
 Gaussian 16:  ES64L-G16RevC.01  3-Jul-2019

 ----------------------------------------------------------------------
 # B3LYP/6-31G* empiricaldispersion=gd3 guess=read geom=check nosymm in
 tegral(ultrafinegrid)
 ----------------------------------------------------------------------

 ------------------------------------------------------
 Candidate Structure: Conf:961 Charge calc in gas phase
 ------------------------------------------------------
 Structure from the checkpoint file:  "conf-961.chk"
 Charge =  1 Multiplicity = 1

                          Input orientation:
 ---------------------------------------------------------------------
 Center     Atomic      Atomic             Coordinates (Angstroms)
 Number     Number       Type             X           Y           Z
 ---------------------------------------------------------------------
      1          7           0       -9.205371    6.624458    0.737729
      2          1           0       -9.791317    6.362702   -0.057466
      3          1           0       -9.146179    7.645721    0.779949
      4          1           0       -9.604076    6.248918    1.664151
      5          6           0       -7.837785    5.961624    0.728863
      6          1           0       -7.860913    5.174506   -0.028247
      7          6           0       -7.813733    5.276117    2.129483
      8          6           0       -6.723864    6.990729    0.424314
      9          1           0       -6.543429    7.604506    1.314773
     10          1           0       -7.094500    7.659224   -0.364329
     11          8           0       -8.853072    5.351662    2.814948
     12          6           0       -5.440305    6.338253   -0.053191
     13          6           0       -4.391156    6.077140    0.834882
     14          1           0       -4.462403    6.372037    1.876252
     15          6           0       -5.315687    5.940578   -1.393035
     16          1           0       -6.119195    6.146497   -2.097640
     17          6           0       -3.257368    5.382319    0.406083
     18          1           0       -2.500025    5.114628    1.134954
     19          6           0       -4.163504    5.289767   -1.832239
     20          1           0       -4.070701    5.000146   -2.874624
     21          6           0       -3.134756    5.000331   -0.929744
     22          1           0       -2.239320    4.490111   -1.270983
     23          7           0       -6.707275    4.651534    2.486911
     24          1           0       -5.891309    4.684246    1.884098
     25          6           0       -6.536831    3.914224    3.749385
     26          1           0       -6.757767    4.607841    4.570284
     27          6           0       -5.019926    3.604493    3.797528
     28          6           0       -7.471724    2.704019    3.839059
     29          1           0       -7.422218    2.264021    4.840444
     30          1           0       -7.202718    1.942599    3.101421
     31          1           0       -8.503473    3.021714    3.673759
     32          8           0       -4.225842    4.434348    3.352169
     33          7           0       -4.657827    2.420387    4.324508
     34          1           0       -5.356663    1.703438    4.489349
     35          6           0       -3.321152    1.864633    4.107650
     36          1           0       -2.769657    2.571242    3.483247
     37          6           0       -3.552120    0.537947    3.366493
     38          6           0       -2.580464    1.621463    5.427396
     39          1           0       -1.588662    1.200540    5.232183
     40          1           0       -3.138514    0.917400    6.053239
     41          1           0       -2.462652    2.563597    5.970800
     42          8           0       -4.514537   -0.176597    3.657209
     43          7           0       -2.635173    0.238213    2.425822
     44          1           0       -1.922481    0.919988    2.176774
     45          6           0       -2.735370   -0.951323    1.612131
     46          1           0       -3.320339   -1.683961    2.175503
     47          6           0       -1.312691   -1.460969    1.334943
     48          6           0       -3.441977   -0.668982    0.240678
     49          1           0       -2.708858   -0.247382   -0.453752
     50          1           0       -3.743786   -1.628222   -0.196453
     51          8           0       -0.324670   -0.806676    1.657766
     52          6           0       -4.643271    0.242588    0.328082
     53          6           0       -4.509973    1.620793    0.114820
     54          1           0       -3.526422    2.046070   -0.060310
     55          6           0       -5.921603   -0.259191    0.595743
     56          1           0       -6.052650   -1.320118    0.790189
     57          6           0       -5.616554    2.468996    0.118491
     58          1           0       -5.499519    3.523047   -0.103016
     59          6           0       -7.039116    0.574481    0.610709
     60          1           0       -8.026496    0.160770    0.807776
     61          8           0       -7.966250    2.803009    0.318217
     62          1           0       -8.772445    2.288803    0.481585
     63          6           0       -6.885795    1.938617    0.350558
     64          7           0       -1.201355   -2.618744    0.615570
     65          1           0       -2.045073   -2.967782    0.178158
     66          6           0        0.021191   -2.805524   -0.175269
     67          1           0        0.864832   -2.795151    0.518626
     68          6           0        0.118354   -1.616064   -1.156196
     69          6           0       -0.031605   -4.126415   -0.951502
     70          1           0       -0.837446   -4.049240   -1.694277
     71          1           0        0.903591   -4.215045   -1.521874
     72          8           0       -0.855507   -1.300753   -1.840589
     73          6           0       -0.222397   -5.391476   -0.092980
     74          1           0       -1.177735   -5.299653    0.443399
     75          6           0       -0.306608   -6.624781   -1.003640
     76          1           0        0.634042   -6.770573   -1.550434
     77          1           0       -0.495347   -7.532231   -0.419503
     78          1           0       -1.110527   -6.525389   -1.742649
     79          6           0        0.888317   -5.556335    0.953264
     80          1           0        1.875260   -5.589274    0.472629
     81          1           0        0.890858   -4.738449    1.681849
     82          1           0        0.760138   -6.490977    1.510192
     83          7           0        1.300141   -0.956280   -1.191797
     84          1           0        2.037829   -1.191400   -0.540357
     85          6           0        1.483155    0.270931   -1.946653
     86          1           0        0.797648    0.234828   -2.797859
     87          6           0        2.932781    0.378739   -2.424678
     88          6           0        1.197241    1.545626   -1.103616
     89          1           0        1.877477    1.539786   -0.242284
     90          1           0        1.438148    2.432666   -1.700760
     91          8           0        3.838085   -0.227159   -1.795999
     92          6           0       -0.253589    1.606636   -0.609361
     93          1           0       -0.510986    0.709113   -0.054173
     94          1           0       -0.938612    1.676334   -1.465357
     95          6           0       -0.549667    2.766256    0.307255
     96          8           0       -1.268515    2.714115    1.293597
     97          8           0        0.031413    3.913055   -0.092040
     98          7           0        3.112402    1.224119   -3.438432
     99          1           0        2.325808    1.860312   -3.680180
    100          6           0        4.313564    2.030271   -3.649959
    101          1           0        4.901871    2.013922   -2.728306
    102          6           0        3.812183    3.519747   -3.858797
    103          6           0        5.186462    1.580111   -4.836470
    104          1           0        4.778872    2.002114   -5.760226
    105          1           0        5.104484    0.492036   -4.944732
    106          8           0        4.726474    4.324382   -4.092499
    107          6           0        6.661781    2.015877   -4.665870
    108          1           0        6.795703    2.460170   -3.675189
    109          1           0        6.895618    2.838839   -5.346224
    110          6           0        7.719160    0.915424   -4.914893
    111          1           0        8.688281    1.216574   -4.501245
    112          1           0        7.864351    0.772271   -5.989260
    113          7           0        7.369035   -0.442086   -4.411230
    114          1           0        7.450510   -1.193902   -5.082595
    115          7           0        6.546314    0.087124   -2.285711
    116          1           0        5.633135    0.145526   -1.809141
    117          1           0        7.151336    0.894441   -2.252764
    118          7           0        5.791641   -1.803279   -3.359031
    119          1           0        5.074328   -1.816908   -2.636278
    120          1           0        5.474994   -2.146358   -4.256666
    121          6           0        6.570458   -0.695024   -3.364173
    122          8           0        2.559688    3.663670   -3.771790
    123          1           0       -0.190400    4.605999    0.558208
 ---------------------------------------------------------------------

 SCF Done:  E(RB3LYP) =  -2974.17795019     A.U. after    2 cycles

 Alpha  occ. eigenvalues --  -19.27231 -19.27183 -19.25443 -19.21934 -19.19735
 Alpha  occ. eigenvalues --  -19.19633 -19.19074 -19.17768 -19.17749 -19.09649
 Alpha  occ. eigenvalues --  -19.08500 -14.58188 -14.47686 -14.47633 -14.46833
 Alpha  occ. eigenvalues --  -14.45988 -14.43475 -14.42866 -14.42619 -14.41875
 Alpha  occ. eigenvalues --  -14.40484 -10.43201 -10.41874 -10.39744 -10.38850
 Alpha  occ. eigenvalues --  -10.37111 -10.35842 -10.35604 -10.34994 -10.34780
 Alpha  occ. eigenvalues --  -10.33208 -10.32862 -10.32812 -10.31700 -10.30269
 Alpha  occ. eigenvalues --  -10.29877 -10.29860 -10.29799 -10.29532 -10.28339
 Alpha  occ. eigenvalues --  -10.27792 -10.27643 -10.27446 -10.27433 -10.27376
 Alpha  occ. eigenvalues --  -10.26677 -10.26654 -10.26427 -10.26301 -10.26236
 Alpha  occ. eigenvalues --  -10.26158 -10.26070 -10.26069 -10.25475 -10.25383
 Alpha  occ. eigenvalues --  -10.25350 -10.25312 -10.25102 -10.24218 -10.24101
 Alpha  occ. eigenvalues --  -10.22979 -10.22922  -1.18161  -1.17798  -1.14608
 Alpha  occ. eigenvalues --   -1.12204  -1.12061  -1.11701  -1.11382  -1.10294
 Alpha  occ. eigenvalues --   -1.09630  -1.09340  -1.08957  -1.04451  -1.02685
 Alpha  occ. eigenvalues --   -1.01379  -1.00079  -0.99784  -0.99419  -0.98993
 Alpha  occ. eigenvalues --   -0.98877  -0.97638  -0.95446  -0.93940  -0.92772
 Alpha  occ. eigenvalues --   -0.91274  -0.87746  -0.87266  -0.86690  -0.85890
 Alpha  occ. eigenvalues --   -0.85729  -0.84101  -0.83297  -0.82716  -0.82254
 Alpha  occ. eigenvalues --   -0.82223  -0.81070  -0.79647  -0.78636  -0.78484
 Alpha  occ. eigenvalues --   -0.75793  -0.74937  -0.73934  -0.73596  -0.72857
 Alpha  occ. eigenvalues --   -0.72165  -0.71892  -0.71521  -0.71043  -0.69806
 Alpha  occ. eigenvalues --   -0.69750  -0.69492  -0.68967  -0.68671  -0.67515
 Alpha  occ. eigenvalues --   -0.67161  -0.66977  -0.66714  -0.66060  -0.65298
 Alpha  occ. eigenvalues --   -0.64981  -0.64543  -0.64415  -0.63826  -0.62745
 Alpha  occ. eigenvalues --   -0.62561  -0.62166  -0.61673  -0.61302  -0.60586
 Alpha  occ. eigenvalues --   -0.59993  -0.59673  -0.59353  -0.58827  -0.57318
 Alpha  occ. eigenvalues --   -0.57060  -0.56489  -0.56310  -0.56157  -0.55966
 Alpha  occ. eigenvalues --   -0.55780  -0.55099  -0.54835  -0.54573  -0.54518
 Alpha  occ. eigenvalues --   -0.54076  -0.53950  -0.53665  -0.53357  -0.53230
 Alpha  occ. eigenvalues --   -0.53215  -0.52668  -0.52227  -0.51974  -0.51567
 Alpha  occ. eigenvalues --   -0.51428  -0.51280  -0.50965  -0.50867  -0.50488
 Alpha  occ. eigenvalues --   -0.50397  -0.50143  -0.50062  -0.49908  -0.49612
 Alpha  occ. eigenvalues --   -0.49245  -0.49075  -0.48892  -0.48645  -0.48454
 Alpha  occ. eigenvalues --   -0.48242  -0.48044  -0.47655  -0.47254  -0.47214
 Alpha  occ. eigenvalues --   -0.47039  -0.46661  -0.46331  -0.46173  -0.46072
 Alpha  occ. eigenvalues --   -0.45614  -0.45453  -0.44846  -0.44591  -0.44106
 Alpha  occ. eigenvalues --   -0.44030  -0.43884  -0.43787  -0.43741  -0.43366
 Alpha  occ. eigenvalues --   -0.43211  -0.42929  -0.42894  -0.42464  -0.42366
 Alpha  occ. eigenvalues --   -0.42153  -0.41891  -0.41467  -0.41367  -0.41197
 Alpha  occ. eigenvalues --   -0.40755  -0.40642  -0.40173  -0.40017  -0.39570
 Alpha  occ. eigenvalues --   -0.39281  -0.38916  -0.38654  -0.38593  -0.38355
 Alpha  occ. eigenvalues --   -0.38133  -0.37429  -0.36970  -0.36605  -0.35578
 Alpha  occ. eigenvalues --   -0.34512  -0.34227  -0.33921  -0.33864  -0.33691
 Alpha  occ. eigenvalues --   -0.33339  -0.32786  -0.32712  -0.32191  -0.31864
 Alpha  occ. eigenvalues --   -0.31659  -0.31099  -0.30702  -0.29476  -0.24676
 Alpha  occ. eigenvalues --   -0.24432  -0.22662
 Alpha virt. eigenvalues --   -0.11174  -0.10012  -0.09452  -0.09156  -0.09107
 Alpha virt. eigenvalues --   -0.07772  -0.07206  -0.06998  -0.06115  -0.05272
 Alpha virt. eigenvalues --   -0.05132  -0.04615  -0.03873  -0.03807  -0.03536

 Mulliken charges:
               1
     1  N   -0.768868
     2  H    0.410673
     3  H    0.408891
     4  H    0.434571
     5  C   -0.110974
     6  H    0.249714
     7  C    0.662203
     8  C   -0.388549
     9  H    0.189991
    10  H    0.173535
    11  O   -0.562301
    12  C    0.144609
    13  C   -0.213870
    14  H    0.175241
    15  C   -0.179876
    16  H    0.128010
    17  C   -0.124860
    18  H    0.163850
    19  C   -0.122013
    20  H    0.160994
    21  C   -0.142917
    22  H    0.165241
    23  N   -0.614926
    24  H    0.398182
    25  C   -0.014096
    26  H    0.201527
    27  C    0.584283
    28  C   -0.504313
    29  H    0.173569
    30  H    0.187963
    31  H    0.183873
    32  O   -0.530750
    33  N   -0.594939
    34  H    0.361142
    35  C   -0.087598
    36  H    0.206711
    37  C    0.629700
    38  C   -0.443328
    39  H    0.169198
    40  H    0.166336
    41  H    0.168588
    42  O   -0.555468
    43  N   -0.615479
    44  H    0.386897
    45  C   -0.067251
    46  H    0.195038
    47  C    0.625498
    48  C   -0.401438
    49  H    0.196226
    50  H    0.149961
    51  O   -0.525609
    52  C    0.189460
    53  C   -0.200249
    54  H    0.144568
    55  C   -0.158534
    56  H    0.142728
    57  C   -0.180944
    58  H    0.142686
    59  C   -0.198700
    60  H    0.132131
    61  O   -0.686371
    62  H    0.414144
    63  C    0.349306
    64  N   -0.586869
    65  H    0.338632
    66  C   -0.048061
    67  H    0.166724
    68  C    0.628431
    69  C   -0.293602
    70  H    0.156238
    71  H    0.141995
    72  O   -0.556665
    73  C   -0.069534
    74  H    0.129404
    75  C   -0.443090
    76  H    0.142289
    77  H    0.153280
    78  H    0.144684
    79  C   -0.453243
    80  H    0.137272
    81  H    0.155877
    82  H    0.155273
    83  N   -0.593659
    84  H    0.344050
    85  C   -0.071740
    86  H    0.192408
    87  C    0.600328
    88  C   -0.289812
    89  H    0.154771
    90  H    0.218641
    91  O   -0.618981
    92  C   -0.378928
    93  H    0.206191
    94  H    0.189155
    95  C    0.599629
    96  O   -0.488788
    97  O   -0.539244
    98  N   -0.573824
    99  H    0.363512
   100  C   -0.087343
   101  H    0.120945
   102  C    0.587273
   103  C   -0.257363
   104  H    0.177077
   105  H    0.103170
   106  O   -0.569213
   107  C   -0.290737
   108  H    0.157870
   109  H    0.199570
   110  C   -0.168027
   111  H    0.183657
   112  H    0.178801
   113  N   -0.583491
   114  H    0.353883
   115  N   -0.729413
   116  H    0.412266
   117  H    0.368518
   118  N   -0.735118
   119  H    0.387818
   120  H    0.355923
   121  C    0.727780
   122  O   -0.603210
   123  H    0.423604
 Sum of Mulliken charges =   1.00000

 Dipole moment (field-independent basis, Debye):
    X=            -20.1776    Y=              9.0385    Z=             -1.7062  Tot=             22.1753
 Quadrupole moment (field-independent basis, Debye-Ang):
   XX=              7.8522   YY=           -241.0039   ZZ=           -336.9454
   XY=           -221.5010   XZ=            -58.5547   YZ=             55.4425

 Normal termination of Gaussian 16 at Mon Jul 11 14:06:44 2022.
