 Gaussian 16, Revision C.01,
 Gaussian 16:  ES64L-G16RevC.01  3-Jul-2019

 ----------------------------------------------------------------------
 # B3LYP/6-31G* empiricaldispersion=gd3 guess=read geom=check nosymm in
 tegral(ultrafinegrid)
 ----------------------------------------------------------------------

 ------------------------------------------------------
 Candidate Structure: Conf:231 Charge calc in gas phase
 ------------------------------------------------------
 Structure from the checkpoint file:  "conf-231.chk"
 Charge =  1 Multiplicity = 1

                          Input orientation:
 ---------------------------------------------------------------------
 Center     Atomic      Atomic             Coordinates (Angstroms)
 Number     Number       Type             X           Y           Z
 ---------------------------------------------------------------------
      1          7           0      -10.768838   -0.312402    2.660703
      2          1           0      -11.130819    0.097825    1.795078
      3          1           0      -11.525720   -0.346305    3.348830
      4          1           0      -10.394294   -1.286417    2.444371
      5          6           0       -9.519036    0.387239    3.168038
      6          1           0       -9.454257    1.380746    2.721246
      7          6           0       -8.398996   -0.553266    2.644163
      8          6           0       -9.560307    0.476075    4.716758
      9          1           0       -9.395760   -0.524580    5.133831
     10          1           0      -10.570319    0.790594    5.011799
     11          8           0       -8.736561   -1.701731    2.304032
     12          6           0       -8.561794    1.472469    5.268432
     13          6           0       -7.249043    1.094539    5.568825
     14          1           0       -6.941637    0.060305    5.450268
     15          6           0       -8.939579    2.814314    5.431125
     16          1           0       -9.960906    3.120589    5.215620
     17          6           0       -6.316572    2.043279    5.991315
     18          1           0       -5.294235    1.737024    6.184156
     19          6           0       -8.013053    3.763465    5.868596
     20          1           0       -8.319684    4.796797    6.001667
     21          6           0       -6.695180    3.377988    6.141891
     22          1           0       -5.972939    4.115328    6.479779
     23          7           0       -7.163467   -0.078772    2.626084
     24          1           0       -6.974770    0.886359    2.898310
     25          6           0       -6.017796   -0.881520    2.199488
     26          1           0       -6.139786   -1.891190    2.606775
     27          6           0       -4.765983   -0.216949    2.801614
     28          6           0       -5.935108   -0.950643    0.663135
     29          1           0       -5.096452   -1.571601    0.334656
     30          1           0       -5.799719    0.053161    0.250657
     31          1           0       -6.856240   -1.387801    0.268838
     32          8           0       -4.838197    0.864530    3.380743
     33          7           0       -3.606732   -0.902909    2.623064
     34          1           0       -3.613761   -1.696405    1.991839
     35          6           0       -2.307069   -0.222330    2.706221
     36          1           0       -2.431136    0.593849    3.420890
     37          6           0       -2.033640    0.306699    1.286311
     38          6           0       -1.211447   -1.183938    3.158765
     39          1           0       -0.261923   -0.646124    3.256090
     40          1           0       -1.072776   -1.980920    2.422048
     41          1           0       -1.465202   -1.620235    4.129004
     42          8           0       -1.931547   -0.490844    0.346983
     43          7           0       -1.991783    1.646452    1.136910
     44          1           0       -2.174169    2.229208    1.943311
     45          6           0       -1.985097    2.291501   -0.184055
     46          1           0       -2.567493    1.640329   -0.845555
     47          6           0       -0.530533    2.372530   -0.706184
     48          6           0       -2.637670    3.681838   -0.109540
     49          1           0       -1.959203    4.357075    0.421656
     50          1           0       -2.709826    4.066274   -1.132694
     51          8           0        0.134341    3.400179   -0.637420
     52          6           0       -3.992547    3.617908    0.558219
     53          6           0       -5.078437    2.994563   -0.073823
     54          1           0       -4.975154    2.648987   -1.099812
     55          6           0       -4.170343    4.077162    1.868320
     56          1           0       -3.352429    4.586907    2.372919
     57          6           0       -6.286418    2.798226    0.591366
     58          1           0       -7.126247    2.314153    0.102068
     59          6           0       -5.369582    3.880824    2.552422
     60          1           0       -5.475442    4.201088    3.585203
     61          8           0       -7.591089    2.899804    2.573058
     62          1           0       -7.587844    3.299801    3.460704
     63          6           0       -6.416186    3.218774    1.915972
     64          7           0       -0.087484    1.197483   -1.212324
     65          1           0       -0.665974    0.367383   -1.105286
     66          6           0        1.301087    0.978141   -1.588054
     67          1           0        1.623199    1.820693   -2.206373
     68          6           0        1.332736   -0.330927   -2.380860
     69          6           0        2.208538    0.878941   -0.335529
     70          1           0        2.062726    1.808128    0.228289
     71          1           0        1.815675    0.062340    0.285840
     72          8           0        0.573899   -1.266001   -2.079762
     73          6           0        3.711218    0.656564   -0.587494
     74          1           0        3.852824   -0.250058   -1.188420
     75          6           0        4.351499    1.830239   -1.344275
     76          1           0        4.238335    2.767030   -0.784223
     77          1           0        5.420287    1.649919   -1.498115
     78          1           0        3.907506    1.992518   -2.334582
     79          6           0        4.425472    0.436950    0.753932
     80          1           0        4.339078    1.321792    1.397868
     81          1           0        4.000901   -0.417154    1.296510
     82          1           0        5.490708    0.234723    0.599602
     83          7           0        2.225309   -0.400920   -3.386385
     84          1           0        2.925753    0.327667   -3.449744
     85          6           0        2.548421   -1.658554   -4.061874
     86          1           0        1.613344   -2.217819   -4.147919
     87          6           0        3.585412   -2.426589   -3.207594
     88          6           0        3.125862   -1.358991   -5.450124
     89          1           0        2.419480   -0.722037   -5.995898
     90          1           0        4.061603   -0.801833   -5.330280
     91          8           0        4.621086   -1.851268   -2.860118
     92          6           0        3.400717   -2.644696   -6.248396
     93          1           0        2.497550   -3.252817   -6.346212
     94          1           0        4.160689   -3.243771   -5.732556
     95          6           0        3.899239   -2.354213   -7.647545
     96          8           0        3.381733   -2.729197   -8.674318
     97          8           0        5.026554   -1.597467   -7.623149
     98          7           0        3.230949   -3.686445   -2.922585
     99          1           0        2.325551   -4.056234   -3.216071
    100          6           0        3.941847   -4.705834   -2.150151
    101          1           0        4.681125   -5.196704   -2.799846
    102          6           0        2.857435   -5.775464   -1.779511
    103          6           0        4.712293   -4.172535   -0.926814
    104          1           0        5.546989   -3.576100   -1.302172
    105          1           0        5.120471   -5.051573   -0.418406
    106          8           0        3.107822   -6.525448   -0.812904
    107          6           0        3.952849   -3.292991    0.085848
    108          1           0        3.364231   -2.533569   -0.443229
    109          1           0        4.703612   -2.737699    0.662350
    110          6           0        3.060550   -4.011728    1.115850
    111          1           0        2.835342   -3.344188    1.958554
    112          1           0        3.583450   -4.873428    1.535856
    113          7           0        1.802551   -4.542860    0.568141
    114          1           0        1.917665   -5.488739    0.179594
    115          7           0        0.652213   -2.508441    0.477002
    116          1           0        0.305134   -1.836044   -0.206446
    117          1           0        1.326503   -2.135604    1.128540
    118          7           0        0.055090   -4.262093   -0.927868
    119          1           0       -0.552877   -3.596842   -1.389125
    120          1           0        0.488360   -4.990403   -1.536582
    121          6           0        0.862715   -3.767694    0.019574
    122          8           0        1.773896   -5.707829   -2.443534
    123          1           0        5.286351   -1.459641   -8.553608
 ---------------------------------------------------------------------

 SCF Done:  E(RB3LYP) =  -2974.21931133     A.U. after    3 cycles

 Alpha  occ. eigenvalues --  -19.28803 -19.27424 -19.23519 -19.23458 -19.21695
 Alpha  occ. eigenvalues --  -19.20153 -19.18529 -19.17729 -19.15471 -19.12740
 Alpha  occ. eigenvalues --  -19.11737 -14.60733 -14.49935 -14.47169 -14.46414
 Alpha  occ. eigenvalues --  -14.43788 -14.43614 -14.42534 -14.42457 -14.41785
 Alpha  occ. eigenvalues --  -14.39454 -10.44072 -10.41245 -10.40516 -10.39322
 Alpha  occ. eigenvalues --  -10.38638 -10.36794 -10.36012 -10.35858 -10.35706
 Alpha  occ. eigenvalues --  -10.35239 -10.34577 -10.33596 -10.32810 -10.32576
 Alpha  occ. eigenvalues --  -10.32103 -10.31243 -10.30849 -10.30815 -10.30557
 Alpha  occ. eigenvalues --  -10.30422 -10.30394 -10.30373 -10.29381 -10.29121
 Alpha  occ. eigenvalues --  -10.28741 -10.28535 -10.28503 -10.28463 -10.28446
 Alpha  occ. eigenvalues --  -10.28396 -10.27708 -10.27332 -10.25540 -10.25326
 Alpha  occ. eigenvalues --  -10.25132 -10.24737 -10.24484 -10.23796 -10.22947
 Alpha  occ. eigenvalues --  -10.22918 -10.21817  -1.19922  -1.16255  -1.15530
 Alpha  occ. eigenvalues --   -1.14446  -1.14235  -1.13499  -1.11773  -1.10274
 Alpha  occ. eigenvalues --   -1.08258  -1.07304  -1.06778  -1.05653  -1.05272
 Alpha  occ. eigenvalues --   -1.03683  -1.02510  -1.00057  -0.99365  -0.98280
 Alpha  occ. eigenvalues --   -0.97936  -0.97109  -0.96163  -0.95269  -0.94890
 Alpha  occ. eigenvalues --   -0.93958  -0.90226  -0.88409  -0.87436  -0.86855
 Alpha  occ. eigenvalues --   -0.86306  -0.85974  -0.85587  -0.84389  -0.83681
 Alpha  occ. eigenvalues --   -0.82985  -0.81096  -0.80918  -0.79188  -0.77870
 Alpha  occ. eigenvalues --   -0.77298  -0.75701  -0.74551  -0.74156  -0.74104
 Alpha  occ. eigenvalues --   -0.73839  -0.73068  -0.72523  -0.72295  -0.72115
 Alpha  occ. eigenvalues --   -0.70981  -0.70241  -0.69877  -0.69606  -0.68918
 Alpha  occ. eigenvalues --   -0.68287  -0.68084  -0.66973  -0.66682  -0.65491
 Alpha  occ. eigenvalues --   -0.65091  -0.64338  -0.64282  -0.64113  -0.63977
 Alpha  occ. eigenvalues --   -0.63072  -0.62656  -0.62168  -0.61641  -0.61022
 Alpha  occ. eigenvalues --   -0.60582  -0.59910  -0.59577  -0.59113  -0.58604
 Alpha  occ. eigenvalues --   -0.58033  -0.57831  -0.57571  -0.57202  -0.57057
 Alpha  occ. eigenvalues --   -0.56601  -0.56353  -0.55828  -0.55644  -0.55330
 Alpha  occ. eigenvalues --   -0.55040  -0.54654  -0.54264  -0.53818  -0.53775
 Alpha  occ. eigenvalues --   -0.53375  -0.53296  -0.53080  -0.53015  -0.52754
 Alpha  occ. eigenvalues --   -0.52345  -0.52053  -0.51962  -0.51867  -0.51617
 Alpha  occ. eigenvalues --   -0.51388  -0.51000  -0.50751  -0.50549  -0.50346
 Alpha  occ. eigenvalues --   -0.50338  -0.49687  -0.49600  -0.49548  -0.48997
 Alpha  occ. eigenvalues --   -0.48810  -0.48564  -0.48531  -0.48123  -0.47962
 Alpha  occ. eigenvalues --   -0.47767  -0.47716  -0.47491  -0.47396  -0.47036
 Alpha  occ. eigenvalues --   -0.46817  -0.46253  -0.46190  -0.45981  -0.45854
 Alpha  occ. eigenvalues --   -0.45519  -0.45164  -0.44955  -0.44584  -0.44530
 Alpha  occ. eigenvalues --   -0.43887  -0.43799  -0.43591  -0.43093  -0.43076
 Alpha  occ. eigenvalues --   -0.42871  -0.42661  -0.42319  -0.42133  -0.42068
 Alpha  occ. eigenvalues --   -0.41745  -0.41115  -0.40453  -0.40252  -0.39964
 Alpha  occ. eigenvalues --   -0.39738  -0.39329  -0.38672  -0.38564  -0.38204
 Alpha  occ. eigenvalues --   -0.37848  -0.37616  -0.37360  -0.36755  -0.36710
 Alpha  occ. eigenvalues --   -0.36469  -0.35665  -0.35600  -0.34930  -0.34453
 Alpha  occ. eigenvalues --   -0.34276  -0.33683  -0.32514  -0.32031  -0.31907
 Alpha  occ. eigenvalues --   -0.31267  -0.31129  -0.29840  -0.29086  -0.28009
 Alpha  occ. eigenvalues --   -0.27249  -0.25663
 Alpha virt. eigenvalues --   -0.13400  -0.12565  -0.12160  -0.11689  -0.10130
 Alpha virt. eigenvalues --   -0.09791  -0.08724  -0.07510  -0.07035  -0.06266
 Alpha virt. eigenvalues --   -0.05630  -0.04721  -0.03755  -0.03343  -0.03307

 Mulliken charges:
               1
     1  N   -0.757921
     2  H    0.418194
     3  H    0.411496
     4  H    0.433721
     5  C   -0.113447
     6  H    0.241217
     7  C    0.637747
     8  C   -0.388818
     9  H    0.198221
    10  H    0.174999
    11  O   -0.550137
    12  C    0.161237
    13  C   -0.177034
    14  H    0.148172
    15  C   -0.203861
    16  H    0.142875
    17  C   -0.098833
    18  H    0.168232
    19  C   -0.158430
    20  H    0.169087
    21  C   -0.139699
    22  H    0.166677
    23  N   -0.616191
    24  H    0.425822
    25  C   -0.070620
    26  H    0.201455
    27  C    0.624218
    28  C   -0.467588
    29  H    0.177323
    30  H    0.178793
    31  H    0.184546
    32  O   -0.528616
    33  N   -0.586297
    34  H    0.349930
    35  C   -0.065236
    36  H    0.176589
    37  C    0.630053
    38  C   -0.474346
    39  H    0.161406
    40  H    0.197178
    41  H    0.172674
    42  O   -0.557952
    43  N   -0.591906
    44  H    0.348745
    45  C   -0.060199
    46  H    0.175188
    47  C    0.641014
    48  C   -0.401482
    49  H    0.188653
    50  H    0.183242
    51  O   -0.525726
    52  C    0.177828
    53  C   -0.186497
    54  H    0.144942
    55  C   -0.217941
    56  H    0.145819
    57  C   -0.165723
    58  H    0.130362
    59  C   -0.154432
    60  H    0.138198
    61  O   -0.704014
    62  H    0.433967
    63  C    0.341127
    64  N   -0.641536
    65  H    0.379230
    66  C   -0.049073
    67  H    0.180409
    68  C    0.633695
    69  C   -0.260644
    70  H    0.171738
    71  H    0.100842
    72  O   -0.581305
    73  C   -0.118204
    74  H    0.179576
    75  C   -0.450452
    76  H    0.153823
    77  H    0.167446
    78  H    0.125220
    79  C   -0.443870
    80  H    0.142245
    81  H    0.123840
    82  H    0.162933
    83  N   -0.593983
    84  H    0.356902
    85  C   -0.054082
    86  H    0.168869
    87  C    0.631375
    88  C   -0.298917
    89  H    0.159682
    90  H    0.185091
    91  O   -0.559926
    92  C   -0.347847
    93  H    0.176825
    94  H    0.195773
    95  C    0.563964
    96  O   -0.450748
    97  O   -0.560137
    98  N   -0.623592
    99  H    0.353935
   100  C   -0.035727
   101  H    0.169885
   102  C    0.579272
   103  C   -0.271864
   104  H    0.171189
   105  H    0.165026
   106  O   -0.580594
   107  C   -0.281425
   108  H    0.144680
   109  H    0.151377
   110  C   -0.178756
   111  H    0.138427
   112  H    0.197163
   113  N   -0.584476
   114  H    0.395199
   115  N   -0.780712
   116  H    0.399573
   117  H    0.353907
   118  N   -0.763852
   119  H    0.353524
   120  H    0.411062
   121  C    0.727872
   122  O   -0.611782
   123  H    0.413933
 Sum of Mulliken charges =   1.00000

 Dipole moment (field-independent basis, Debye):
    X=            -41.5940    Y=              9.6803    Z=             17.8151  Tot=             46.2725
 Quadrupole moment (field-independent basis, Debye-Ang):
   XX=             58.7983   YY=           -408.9261   ZZ=           -302.6542
   XY=             -8.9369   XZ=           -130.8505   YZ=             -4.3597

 Normal termination of Gaussian 16 at Mon Jul 11 14:07:06 2022.
