 Gaussian 16, Revision C.01,
 Gaussian 16:  ES64L-G16RevC.01  3-Jul-2019

 ----------------------------------------------------------------------
 # B3LYP/6-31G* empiricaldispersion=gd3 guess=read geom=check nosymm in
 tegral(ultrafinegrid)
 ----------------------------------------------------------------------

 ------------------------------------------------------
 Candidate Structure: Conf:966 Charge calc in gas phase
 ------------------------------------------------------
 Structure from the checkpoint file:  "conf-966.chk"
 Charge =  1 Multiplicity = 1

                          Input orientation:
 ---------------------------------------------------------------------
 Center     Atomic      Atomic             Coordinates (Angstroms)
 Number     Number       Type             X           Y           Z
 ---------------------------------------------------------------------
      1          7           0      -11.673866    3.803062    6.487550
      2          1           0      -12.032572    4.583603    5.931285
      3          1           0      -12.075773    3.859048    7.435626
      4          1           0      -11.914978    2.904109    5.988236
      5          6           0      -10.164547    3.758578    6.530647
      6          1           0       -9.786314    4.761920    6.325239
      7          6           0       -9.806495    2.742696    5.418251
      8          6           0       -9.692614    3.269499    7.920813
      9          1           0       -8.599123    3.327960    7.925451
     10          1           0       -9.955183    2.209967    8.025464
     11          8           0      -10.713141    2.002177    5.006056
     12          6           0      -10.300748    4.088282    9.037577
     13          6           0       -9.817466    5.372474    9.327173
     14          1           0       -8.947466    5.754381    8.797040
     15          6           0      -11.415155    3.604766    9.741854
     16          1           0      -11.772388    2.591950    9.559960
     17          6           0      -10.432210    6.154239   10.304036
     18          1           0      -10.040654    7.141743   10.529535
     19          6           0      -12.035257    4.392377   10.717867
     20          1           0      -12.887670    4.001303   11.265307
     21          6           0      -11.545283    5.667713   10.997409
     22          1           0      -12.020185    6.278327   11.759275
     23          7           0       -8.538218    2.723113    5.040680
     24          1           0       -7.821447    3.331679    5.447736
     25          6           0       -7.960928    1.775383    4.087961
     26          1           0       -8.246850    0.759762    4.385830
     27          6           0       -6.434591    1.959340    4.254946
     28          6           0       -8.423865    2.048820    2.650068
     29          1           0       -7.969865    1.339322    1.953144
     30          1           0       -8.135699    3.052261    2.328772
     31          1           0       -9.510533    1.949752    2.586046
     32          8           0       -5.994573    2.867737    4.970227
     33          7           0       -5.675990    1.093313    3.574784
     34          1           0       -6.075894    0.445525    2.897495
     35          6           0       -4.234255    1.241879    3.424435
     36          1           0       -3.999810    2.311956    3.425299
     37          6           0       -3.913678    0.645269    2.040297
     38          6           0       -3.458154    0.545885    4.551608
     39          1           0       -2.378767    0.673087    4.417920
     40          1           0       -3.681907   -0.525589    4.563592
     41          1           0       -3.742667    0.980996    5.513806
     42          8           0       -4.732886   -0.072381    1.463810
     43          7           0       -2.709280    0.977523    1.538785
     44          1           0       -2.023080    1.490811    2.082590
     45          6           0       -2.276358    0.617446    0.202896
     46          1           0       -2.769730   -0.318410   -0.074266
     47          6           0       -0.748049    0.469052    0.251080
     48          6           0       -2.643942    1.728113   -0.832138
     49          1           0       -2.004045    2.595047   -0.627988
     50          1           0       -2.378515    1.361760   -1.830658
     51          8           0       -0.092900    1.047273    1.121116
     52          6           0       -4.097622    2.127703   -0.767766
     53          6           0       -4.515136    3.169785    0.071494
     54          1           0       -3.771706    3.740513    0.622600
     55          6           0       -5.076368    1.421064   -1.473770
     56          1           0       -4.782414    0.603569   -2.127468
     57          6           0       -5.862454    3.491855    0.217126
     58          1           0       -6.180970    4.309466    0.856546
     59          6           0       -6.427944    1.733924   -1.346627
     60          1           0       -7.174008    1.172152   -1.905594
     61          8           0       -8.138975    3.123269   -0.318249
     62          1           0       -8.689437    2.601503   -0.922804
     63          6           0       -6.823502    2.771274   -0.496765
     64          7           0       -0.206638   -0.249696   -0.749171
     65          1           0       -0.776025   -0.747359   -1.426191
     66          6           0        1.230186   -0.403407   -0.933818
     67          1           0        1.706464    0.543448   -0.664840
     68          6           0        1.437275   -0.746736   -2.415049
     69          6           0        1.774645   -1.547717   -0.041745
     70          1           0        1.523726   -1.289266    0.994961
     71          1           0        1.206652   -2.450668   -0.301016
     72          8           0        0.607601   -1.434674   -3.009114
     73          6           0        3.283437   -1.839871   -0.152234
     74          1           0        3.526227   -2.044430   -1.201864
     75          6           0        4.149801   -0.660224    0.310525
     76          1           0        3.967093   -0.438000    1.369674
     77          1           0        5.212367   -0.888290    0.180653
     78          1           0        3.954172    0.256723   -0.255670
     79          6           0        3.628835   -3.102618    0.650814
     80          1           0        3.410947   -2.964551    1.717730
     81          1           0        3.052552   -3.968370    0.301395
     82          1           0        4.694837   -3.342797    0.557851
     83          7           0        2.581674   -0.276223   -2.965163
     84          1           0        3.262560    0.170176   -2.358958
     85          6           0        3.177169   -0.844828   -4.171169
     86          1           0        2.510101   -1.625527   -4.535438
     87          6           0        4.529676   -1.437397   -3.732061
     88          6           0        3.337927    0.239317   -5.267286
     89          1           0        2.346792    0.407863   -5.699280
     90          1           0        3.650695    1.172970   -4.786670
     91          8           0        5.243235   -0.828745   -2.927603
     92          6           0        4.359551   -0.090989   -6.369415
     93          1           0        5.382225    0.029455   -5.998934
     94          1           0        4.245048    0.612761   -7.203480
     95          6           0        4.220601   -1.508788   -6.895723
     96          8           0        3.185141   -2.150470   -6.855019
     97          8           0        5.387759   -2.004184   -7.326771
     98          7           0        4.853346   -2.632495   -4.265285
     99          1           0        4.269979   -3.063309   -4.976552
    100          6           0        6.153005   -3.258106   -4.067966
    101          1           0        6.924022   -2.480599   -4.102530
    102          6           0        6.417848   -4.252356   -5.225228
    103          6           0        6.232855   -3.935829   -2.679848
    104          1           0        6.071270   -3.147186   -1.938915
    105          1           0        7.259488   -4.293298   -2.537573
    106          8           0        7.519629   -4.884614   -5.158301
    107          6           0        5.207116   -5.080365   -2.466584
    108          1           0        4.472209   -5.086158   -3.281248
    109          1           0        4.641047   -4.909795   -1.543157
    110          6           0        5.832113   -6.481775   -2.357444
    111          1           0        5.059248   -7.223411   -2.134584
    112          1           0        6.550766   -6.516208   -1.531807
    113          7           0        6.558599   -6.868861   -3.575324
    114          1           0        7.240208   -6.160291   -3.889279
    115          7           0        4.992606   -8.375922   -4.451912
    116          1           0        4.673624   -8.924075   -5.237046
    117          1           0        4.826615   -8.776777   -3.541072
    118          7           0        6.567148   -7.326210   -5.827734
    119          1           0        6.122474   -7.730602   -6.639580
    120          1           0        7.046757   -6.404937   -5.945342
    121          6           0        6.028730   -7.519008   -4.620975
    122          8           0        5.526018   -4.423202   -6.091509
    123          1           0        5.325852   -2.991390   -7.292138
 ---------------------------------------------------------------------

 SCF Done:  E(RB3LYP) =  -2974.20821509     A.U. after    2 cycles

 Alpha  occ. eigenvalues --  -19.25744 -19.24175 -19.20982 -19.19913 -19.18473
 Alpha  occ. eigenvalues --  -19.17079 -19.16070 -19.15532 -19.14948 -19.13499
 Alpha  occ. eigenvalues --  -19.13383 -14.59135 -14.48345 -14.45504 -14.44039
 Alpha  occ. eigenvalues --  -14.42931 -14.42399 -14.42396 -14.41278 -14.40107
 Alpha  occ. eigenvalues --  -14.38810 -10.42582 -10.40289 -10.40142 -10.37865
 Alpha  occ. eigenvalues --  -10.35589 -10.34261 -10.33864 -10.33743 -10.33595
 Alpha  occ. eigenvalues --  -10.33130 -10.32047 -10.31867 -10.31310 -10.30832
 Alpha  occ. eigenvalues --  -10.30787 -10.30766 -10.30458 -10.30202 -10.30076
 Alpha  occ. eigenvalues --  -10.29809 -10.29481 -10.29410 -10.27925 -10.26682
 Alpha  occ. eigenvalues --  -10.26422 -10.25479 -10.25298 -10.25183 -10.24772
 Alpha  occ. eigenvalues --  -10.24759 -10.24708 -10.24649 -10.24446 -10.23996
 Alpha  occ. eigenvalues --  -10.22967 -10.22854 -10.22765 -10.22709 -10.22688
 Alpha  occ. eigenvalues --  -10.21634 -10.20931  -1.18203  -1.13313  -1.12717
 Alpha  occ. eigenvalues --   -1.11971  -1.11564  -1.10514  -1.09058  -1.09050
 Alpha  occ. eigenvalues --   -1.07939  -1.06957  -1.06352  -1.05074  -1.02748
 Alpha  occ. eigenvalues --   -1.00898  -0.99158  -0.98771  -0.97766  -0.97694
 Alpha  occ. eigenvalues --   -0.97520  -0.96732  -0.96690  -0.95274  -0.92923
 Alpha  occ. eigenvalues --   -0.91074  -0.88325  -0.86240  -0.85793  -0.85557
 Alpha  occ. eigenvalues --   -0.84683  -0.84289  -0.83171  -0.82898  -0.80516
 Alpha  occ. eigenvalues --   -0.80329  -0.79271  -0.78929  -0.77962  -0.75999
 Alpha  occ. eigenvalues --   -0.75468  -0.73598  -0.73373  -0.72874  -0.72430
 Alpha  occ. eigenvalues --   -0.72121  -0.71959  -0.71491  -0.70539  -0.70173
 Alpha  occ. eigenvalues --   -0.69985  -0.69179  -0.67933  -0.67781  -0.66697
 Alpha  occ. eigenvalues --   -0.65823  -0.65706  -0.65534  -0.64921  -0.64453
 Alpha  occ. eigenvalues --   -0.63886  -0.62885  -0.62583  -0.62529  -0.62314
 Alpha  occ. eigenvalues --   -0.61242  -0.60742  -0.60331  -0.60215  -0.60075
 Alpha  occ. eigenvalues --   -0.58779  -0.58665  -0.57562  -0.57242  -0.57149
 Alpha  occ. eigenvalues --   -0.56852  -0.56247  -0.56126  -0.55487  -0.54945
 Alpha  occ. eigenvalues --   -0.54569  -0.54254  -0.53780  -0.53502  -0.53274
 Alpha  occ. eigenvalues --   -0.53163  -0.53046  -0.52464  -0.52378  -0.52178
 Alpha  occ. eigenvalues --   -0.51953  -0.51668  -0.51374  -0.51102  -0.50757
 Alpha  occ. eigenvalues --   -0.50672  -0.50518  -0.50328  -0.50082  -0.49823
 Alpha  occ. eigenvalues --   -0.49433  -0.49062  -0.48966  -0.48521  -0.48369
 Alpha  occ. eigenvalues --   -0.48096  -0.48066  -0.47927  -0.47813  -0.47283
 Alpha  occ. eigenvalues --   -0.47246  -0.46757  -0.46486  -0.46308  -0.46147
 Alpha  occ. eigenvalues --   -0.46059  -0.45884  -0.45657  -0.45529  -0.45331
 Alpha  occ. eigenvalues --   -0.45324  -0.45189  -0.44712  -0.44406  -0.44175
 Alpha  occ. eigenvalues --   -0.43762  -0.43591  -0.42932  -0.42853  -0.42484
 Alpha  occ. eigenvalues --   -0.42280  -0.41741  -0.41599  -0.41463  -0.41226
 Alpha  occ. eigenvalues --   -0.40953  -0.40689  -0.40356  -0.40188  -0.39785
 Alpha  occ. eigenvalues --   -0.39552  -0.39466  -0.38814  -0.38592  -0.38493
 Alpha  occ. eigenvalues --   -0.38137  -0.37859  -0.37404  -0.37271  -0.36648
 Alpha  occ. eigenvalues --   -0.36564  -0.36230  -0.36046  -0.35925  -0.35241
 Alpha  occ. eigenvalues --   -0.34253  -0.33136  -0.32906  -0.32761  -0.32135
 Alpha  occ. eigenvalues --   -0.31423  -0.30832  -0.30610  -0.30467  -0.29743
 Alpha  occ. eigenvalues --   -0.29502  -0.29003  -0.28877  -0.28372  -0.27707
 Alpha  occ. eigenvalues --   -0.27469  -0.27245
 Alpha virt. eigenvalues --   -0.12749  -0.12226  -0.10384  -0.09480  -0.06576
 Alpha virt. eigenvalues --   -0.06009  -0.05271  -0.05186  -0.04329  -0.03985
 Alpha virt. eigenvalues --   -0.02996  -0.02262  -0.02117  -0.01899  -0.01510

 Mulliken charges:
               1
     1  N   -0.750296
     2  H    0.415071
     3  H    0.404197
     4  H    0.425431
     5  C   -0.113522
     6  H    0.213055
     7  C    0.659801
     8  C   -0.385123
     9  H    0.210925
    10  H    0.193598
    11  O   -0.545576
    12  C    0.140621
    13  C   -0.181482
    14  H    0.148420
    15  C   -0.232124
    16  H    0.151547
    17  C   -0.122554
    18  H    0.168192
    19  C   -0.120157
    20  H    0.167321
    21  C   -0.124218
    22  H    0.169225
    23  N   -0.612920
    24  H    0.371614
    25  C   -0.055061
    26  H    0.192510
    27  C    0.625801
    28  C   -0.458826
    29  H    0.180458
    30  H    0.182811
    31  H    0.178511
    32  O   -0.552814
    33  N   -0.610848
    34  H    0.366950
    35  C   -0.052500
    36  H    0.182121
    37  C    0.640398
    38  C   -0.447317
    39  H    0.166887
    40  H    0.166465
    41  H    0.176750
    42  O   -0.544552
    43  N   -0.614675
    44  H    0.352694
    45  C   -0.052839
    46  H    0.182456
    47  C    0.631824
    48  C   -0.364944
    49  H    0.163152
    50  H    0.164006
    51  O   -0.550239
    52  C    0.183070
    53  C   -0.196983
    54  H    0.128741
    55  C   -0.163051
    56  H    0.136807
    57  C   -0.166946
    58  H    0.133601
    59  C   -0.188071
    60  H    0.127740
    61  O   -0.657032
    62  H    0.411146
    63  C    0.350548
    64  N   -0.618478
    65  H    0.351399
    66  C   -0.048461
    67  H    0.173461
    68  C    0.601509
    69  C   -0.252941
    70  H    0.158084
    71  H    0.141439
    72  O   -0.539244
    73  C   -0.100882
    74  H    0.148675
    75  C   -0.441527
    76  H    0.141814
    77  H    0.163371
    78  H    0.136674
    79  C   -0.448668
    80  H    0.143353
    81  H    0.137707
    82  H    0.145799
    83  N   -0.604821
    84  H    0.354824
    85  C   -0.073007
    86  H    0.207531
    87  C    0.611029
    88  C   -0.250138
    89  H    0.169012
    90  H    0.149846
    91  O   -0.563435
    92  C   -0.372666
    93  H    0.186137
    94  H    0.181732
    95  C    0.584129
    96  O   -0.486232
    97  O   -0.585980
    98  N   -0.615196
    99  H    0.368442
   100  C   -0.043657
   101  H    0.184690
   102  C    0.608354
   103  C   -0.295994
   104  H    0.179399
   105  H    0.152711
   106  O   -0.626682
   107  C   -0.276260
   108  H    0.163420
   109  H    0.157660
   110  C   -0.171566
   111  H    0.141950
   112  H    0.178651
   113  N   -0.597524
   114  H    0.400375
   115  N   -0.754399
   116  H    0.363477
   117  H    0.366561
   118  N   -0.745610
   119  H    0.347418
   120  H    0.413099
   121  C    0.762444
   122  O   -0.604674
   123  H    0.442072
 Sum of Mulliken charges =   1.00000

 Dipole moment (field-independent basis, Debye):
    X=            -40.1324    Y=              3.9507    Z=             25.6925  Tot=             47.8155
 Quadrupole moment (field-independent basis, Debye-Ang):
   XX=            125.9570   YY=           -160.3203   ZZ=           -151.7280
   XY=           -237.6695   XZ=           -304.0397   YZ=            158.8608

 Normal termination of Gaussian 16 at Mon Jul 11 14:05:57 2022.
