 Gaussian 16, Revision C.01,
 Gaussian 16:  ES64L-G16RevC.01  3-Jul-2019

 ----------------------------------------------------------------------
 # B3LYP/6-31G* empiricaldispersion=gd3 guess=read geom=check nosymm in
 tegral(ultrafinegrid)
 ----------------------------------------------------------------------

 ------------------------------------------------------
 Candidate Structure: Conf:304 Charge calc in gas phase
 ------------------------------------------------------
 Structure from the checkpoint file:  "conf-304.chk"
 Charge =  1 Multiplicity = 1

                          Input orientation:
 ---------------------------------------------------------------------
 Center     Atomic      Atomic             Coordinates (Angstroms)
 Number     Number       Type             X           Y           Z
 ---------------------------------------------------------------------
      1          7           0       -4.749444    4.545661   -0.430545
      2          1           0       -4.338059    3.631264   -0.772403
      3          1           0       -4.249231    5.331413   -0.864835
      4          1           0       -5.761878    4.586261   -0.647905
      5          6           0       -4.658440    4.609722    1.067337
      6          1           0       -3.757077    4.067739    1.356094
      7          6           0       -5.952966    3.932088    1.560767
      8          6           0       -4.590442    6.077986    1.541822
      9          1           0       -4.485216    6.059130    2.632003
     10          1           0       -5.550279    6.558452    1.319074
     11          8           0       -6.972979    4.081174    0.880483
     12          6           0       -3.445716    6.821672    0.890038
     13          6           0       -2.124967    6.601709    1.307511
     14          1           0       -1.929790    5.943123    2.151318
     15          6           0       -3.679973    7.679943   -0.194739
     16          1           0       -4.702073    7.883530   -0.509719
     17          6           0       -1.063417    7.230103    0.658893
     18          1           0       -0.046197    7.058541    0.998631
     19          6           0       -2.614975    8.307922   -0.848364
     20          1           0       -2.812130    8.978458   -1.679675
     21          6           0       -1.306227    8.082173   -0.422934
     22          1           0       -0.477938    8.572106   -0.926008
     23          7           0       -5.851074    3.282814    2.721578
     24          1           0       -4.941457    3.111198    3.150358
     25          6           0       -6.917301    2.534765    3.381177
     26          1           0       -7.673367    3.236509    3.755828
     27          6           0       -6.219972    1.841569    4.575616
     28          6           0       -7.582404    1.506782    2.447559
     29          1           0       -8.375761    0.961978    2.968550
     30          1           0       -6.842183    0.787467    2.089074
     31          1           0       -8.025015    2.019909    1.592798
     32          8           0       -4.999043    1.929568    4.727181
     33          7           0       -7.021403    1.133747    5.403506
     34          1           0       -7.982289    0.977319    5.124236
     35          6           0       -6.466296    0.133100    6.334373
     36          1           0       -5.548019    0.562341    6.741347
     37          6           0       -6.169085   -1.110694    5.466790
     38          6           0       -7.465372   -0.178971    7.440281
     39          1           0       -7.020871   -0.874377    8.158432
     40          1           0       -8.353727   -0.661246    7.020967
     41          1           0       -7.753671    0.734436    7.968642
     42          8           0       -7.068608   -1.886702    5.150333
     43          7           0       -4.903536   -1.187421    4.996002
     44          1           0       -4.183632   -0.547321    5.313962
     45          6           0       -4.490988   -2.160485    3.999065
     46          1           0       -4.746237   -3.164838    4.360736
     47          6           0       -2.958189   -2.044104    3.865198
     48          6           0       -5.219768   -1.968024    2.644942
     49          1           0       -5.131434   -2.899413    2.071003
     50          1           0       -6.286517   -1.879950    2.878663
     51          8           0       -2.316940   -1.276188    4.583692
     52          6           0       -4.771870   -0.820903    1.753404
     53          6           0       -3.947444    0.231232    2.172623
     54          1           0       -3.600299    0.295342    3.193791
     55          6           0       -5.201695   -0.818997    0.416543
     56          1           0       -5.839574   -1.624923    0.062202
     57          6           0       -3.523726    1.215206    1.277308
     58          1           0       -2.815578    1.976252    1.593639
     59          6           0       -4.826852    0.182708   -0.474459
     60          1           0       -5.163144    0.166502   -1.506213
     61          8           0       -3.514169    2.183537   -0.905030
     62          1           0       -3.439847    1.802674   -1.824709
     63          6           0       -3.960862    1.190805   -0.042400
     64          7           0       -2.404683   -2.789722    2.880844
     65          1           0       -3.011563   -3.266522    2.220740
     66          6           0       -1.109715   -2.453144    2.299750
     67          1           0       -0.789158   -1.505548    2.740486
     68          6           0       -1.337771   -2.289284    0.786117
     69          6           0       -0.047654   -3.542614    2.549958
     70          1           0       -0.396823   -4.466809    2.070136
     71          1           0        0.875733   -3.247740    2.031223
     72          8           0       -2.245613   -2.893462    0.210307
     73          6           0        0.263401   -3.811883    4.033037
     74          1           0       -0.683561   -4.064543    4.530157
     75          6           0        1.203667   -5.020183    4.151416
     76          1           0        2.167634   -4.813802    3.667801
     77          1           0        1.404413   -5.258822    5.201883
     78          1           0        0.776123   -5.912462    3.678643
     79          6           0        0.857916   -2.582090    4.735039
     80          1           0        1.765383   -2.239542    4.218769
     81          1           0        0.142004   -1.756217    4.777977
     82          1           0        1.138042   -2.827368    5.765891
     83          7           0       -0.451195   -1.494271    0.151862
     84          1           0        0.269535   -0.983740    0.653171
     85          6           0       -0.388657   -1.358163   -1.292675
     86          1           0       -0.469624   -2.355369   -1.743435
     87          6           0        0.980518   -0.726732   -1.602990
     88          6           0       -1.548291   -0.477145   -1.830674
     89          1           0       -2.460045   -0.858171   -1.364015
     90          1           0       -1.401393    0.550381   -1.480670
     91          8           0        1.581552   -0.077224   -0.743301
     92          6           0       -1.693003   -0.521200   -3.357202
     93          1           0       -1.753928   -1.555553   -3.716908
     94          1           0       -0.831918   -0.080010   -3.889836
     95          6           0       -2.895482    0.204581   -3.884644
     96          8           0       -3.515566    1.114124   -3.334183
     97          8           0       -3.245893   -0.216105   -5.102744
     98          7           0        1.427040   -0.891291   -2.865325
     99          1           0        0.799317   -1.299950   -3.549003
    100          6           0        2.391055    0.025435   -3.464264
    101          1           0        2.269543    1.004267   -2.983197
    102          6           0        2.030926    0.151495   -5.006894
    103          6           0        3.836539   -0.412298   -3.411158
    104          1           0        4.335969    0.413258   -3.915219
    105          1           0        3.910932   -1.292650   -4.061054
    106          8           0        3.009168    0.290200   -5.802801
    107          6           0        4.676201   -0.702917   -2.183232
    108          1           0        4.275077   -1.520788   -1.573754
    109          1           0        4.780621    0.171187   -1.530202
    110          6           0        6.042377   -1.142474   -2.749954
    111          1           0        5.919741   -2.054861   -3.342008
    112          1           0        6.767566   -1.356208   -1.958962
    113          7           0        6.702143   -0.139518   -3.628553
    114          1           0        7.365848    0.464667   -3.162162
    115          7           0        5.675756   -0.342639   -5.773361
    116          1           0        5.890418   -0.364510   -6.763308
    117          1           0        4.637430   -0.180963   -5.591853
    118          7           0        7.796471    0.554581   -5.522300
    119          1           0        7.769705    0.960850   -6.446356
    120          1           0        8.697677    0.472434   -5.074386
    121          6           0        6.682197    0.007708   -4.972093
    122          8           0        0.818217    0.074629   -5.285289
    123          1           0       -3.985613    0.341599   -5.410930
 ---------------------------------------------------------------------

 SCF Done:  E(RB3LYP) =  -2974.20650848     A.U. after    2 cycles

 Alpha  occ. eigenvalues --  -19.27663 -19.25996 -19.23353 -19.22677 -19.21217
 Alpha  occ. eigenvalues --  -19.18717 -19.17955 -19.17908 -19.17638 -19.12917
 Alpha  occ. eigenvalues --  -19.12290 -14.54061 -14.48788 -14.48585 -14.46179
 Alpha  occ. eigenvalues --  -14.45891 -14.44919 -14.42175 -14.42148 -14.42110
 Alpha  occ. eigenvalues --  -14.41124 -10.44456 -10.40975 -10.39859 -10.38022
 Alpha  occ. eigenvalues --  -10.36509 -10.35754 -10.34921 -10.34852 -10.34664
 Alpha  occ. eigenvalues --  -10.33002 -10.32475 -10.32266 -10.30927 -10.30869
 Alpha  occ. eigenvalues --  -10.30559 -10.30424 -10.30003 -10.29788 -10.29204
 Alpha  occ. eigenvalues --  -10.28688 -10.28416 -10.28228 -10.28146 -10.27926
 Alpha  occ. eigenvalues --  -10.26903 -10.26620 -10.26537 -10.26445 -10.26388
 Alpha  occ. eigenvalues --  -10.26229 -10.26226 -10.26092 -10.26082 -10.25906
 Alpha  occ. eigenvalues --  -10.25764 -10.24535 -10.24151 -10.23776 -10.23626
 Alpha  occ. eigenvalues --  -10.21810 -10.21291  -1.19214  -1.15004  -1.13495
 Alpha  occ. eigenvalues --   -1.13039  -1.12316  -1.10882  -1.10059  -1.09793
 Alpha  occ. eigenvalues --   -1.09498  -1.09211  -1.08988  -1.05755  -1.02952
 Alpha  occ. eigenvalues --   -1.02046  -1.01194  -0.99945  -0.99122  -0.98768
 Alpha  occ. eigenvalues --   -0.98687  -0.98056  -0.96829  -0.95293  -0.92913
 Alpha  occ. eigenvalues --   -0.90155  -0.87721  -0.87340  -0.87042  -0.86413
 Alpha  occ. eigenvalues --   -0.85311  -0.84020  -0.83712  -0.82493  -0.82321
 Alpha  occ. eigenvalues --   -0.82172  -0.81250  -0.80064  -0.78331  -0.76922
 Alpha  occ. eigenvalues --   -0.75828  -0.74695  -0.74115  -0.73204  -0.72518
 Alpha  occ. eigenvalues --   -0.72125  -0.71566  -0.70275  -0.69977  -0.69606
 Alpha  occ. eigenvalues --   -0.69436  -0.69085  -0.68491  -0.68178  -0.67452
 Alpha  occ. eigenvalues --   -0.67374  -0.67139  -0.66591  -0.66272  -0.66042
 Alpha  occ. eigenvalues --   -0.64990  -0.64134  -0.63658  -0.63447  -0.63383
 Alpha  occ. eigenvalues --   -0.62450  -0.62162  -0.61634  -0.60757  -0.60486
 Alpha  occ. eigenvalues --   -0.60341  -0.59724  -0.59250  -0.58413  -0.57696
 Alpha  occ. eigenvalues --   -0.57125  -0.56893  -0.56789  -0.56068  -0.55805
 Alpha  occ. eigenvalues --   -0.55747  -0.55243  -0.54819  -0.54659  -0.54287
 Alpha  occ. eigenvalues --   -0.54095  -0.53929  -0.53786  -0.53338  -0.53230
 Alpha  occ. eigenvalues --   -0.52830  -0.52548  -0.52447  -0.51830  -0.51668
 Alpha  occ. eigenvalues --   -0.51603  -0.51326  -0.51194  -0.50615  -0.50536
 Alpha  occ. eigenvalues --   -0.50285  -0.49918  -0.49513  -0.49267  -0.49244
 Alpha  occ. eigenvalues --   -0.48982  -0.48909  -0.48850  -0.48639  -0.48115
 Alpha  occ. eigenvalues --   -0.47968  -0.47890  -0.47758  -0.47450  -0.46960
 Alpha  occ. eigenvalues --   -0.46711  -0.46580  -0.45929  -0.45793  -0.45622
 Alpha  occ. eigenvalues --   -0.45479  -0.45258  -0.45092  -0.44808  -0.44650
 Alpha  occ. eigenvalues --   -0.44411  -0.44278  -0.43906  -0.43812  -0.43444
 Alpha  occ. eigenvalues --   -0.43389  -0.43319  -0.43213  -0.42980  -0.42835
 Alpha  occ. eigenvalues --   -0.42695  -0.42559  -0.41835  -0.41569  -0.41305
 Alpha  occ. eigenvalues --   -0.41040  -0.40810  -0.40495  -0.40421  -0.40329
 Alpha  occ. eigenvalues --   -0.39501  -0.39376  -0.38751  -0.37601  -0.37159
 Alpha  occ. eigenvalues --   -0.37115  -0.37063  -0.37001  -0.36929  -0.36388
 Alpha  occ. eigenvalues --   -0.35380  -0.34975  -0.34492  -0.33953  -0.33214
 Alpha  occ. eigenvalues --   -0.32867  -0.32755  -0.32365  -0.31806  -0.31426
 Alpha  occ. eigenvalues --   -0.31288  -0.30960  -0.30702  -0.29824  -0.28285
 Alpha  occ. eigenvalues --   -0.27357  -0.26453
 Alpha virt. eigenvalues --   -0.10569  -0.10172  -0.09852  -0.08409  -0.08312
 Alpha virt. eigenvalues --   -0.07448  -0.07314  -0.06637  -0.05088  -0.04829
 Alpha virt. eigenvalues --   -0.04449  -0.03698  -0.03166  -0.02905  -0.01765

 Mulliken charges:
               1
     1  N   -0.779247
     2  H    0.450993
     3  H    0.392321
     4  H    0.404640
     5  C   -0.106871
     6  H    0.197976
     7  C    0.660743
     8  C   -0.373183
     9  H    0.195932
    10  H    0.188417
    11  O   -0.542332
    12  C    0.139548
    13  C   -0.176512
    14  H    0.142169
    15  C   -0.221660
    16  H    0.145442
    17  C   -0.122785
    18  H    0.157822
    19  C   -0.121125
    20  H    0.158873
    21  C   -0.124873
    22  H    0.158562
    23  N   -0.624960
    24  H    0.371117
    25  C   -0.033070
    26  H    0.190823
    27  C    0.629223
    28  C   -0.485392
    29  H    0.157185
    30  H    0.187691
    31  H    0.203733
    32  O   -0.542161
    33  N   -0.594164
    34  H    0.345499
    35  C   -0.058841
    36  H    0.180620
    37  C    0.620156
    38  C   -0.466810
    39  H    0.175995
    40  H    0.179402
    41  H    0.163550
    42  O   -0.533863
    43  N   -0.608730
    44  H    0.369288
    45  C   -0.047437
    46  H    0.194932
    47  C    0.607607
    48  C   -0.385065
    49  H    0.164940
    50  H    0.206062
    51  O   -0.534435
    52  C    0.155818
    53  C   -0.197701
    54  H    0.172440
    55  C   -0.175017
    56  H    0.147276
    57  C   -0.198130
    58  H    0.139645
    59  C   -0.179778
    60  H    0.151413
    61  O   -0.760157
    62  H    0.478293
    63  C    0.333286
    64  N   -0.590276
    65  H    0.355505
    66  C   -0.082771
    67  H    0.177351
    68  C    0.634870
    69  C   -0.250836
    70  H    0.145874
    71  H    0.134985
    72  O   -0.555141
    73  C   -0.066318
    74  H    0.137556
    75  C   -0.443855
    76  H    0.137681
    77  H    0.149467
    78  H    0.143048
    79  C   -0.468720
    80  H    0.127881
    81  H    0.178111
    82  H    0.146798
    83  N   -0.625484
    84  H    0.354955
    85  C   -0.034785
    86  H    0.171593
    87  C    0.596683
    88  C   -0.290062
    89  H    0.196120
    90  H    0.155877
    91  O   -0.550126
    92  C   -0.414093
    93  H    0.185244
    94  H    0.260597
    95  C    0.613286
    96  O   -0.534588
    97  O   -0.527454
    98  N   -0.594033
    99  H    0.346089
   100  C   -0.069314
   101  H    0.156810
   102  C    0.588542
   103  C   -0.264802
   104  H    0.140734
   105  H    0.139724
   106  O   -0.604712
   107  C   -0.250178
   108  H    0.164109
   109  H    0.152386
   110  C   -0.164531
   111  H    0.187972
   112  H    0.171610
   113  N   -0.592073
   114  H    0.353655
   115  N   -0.763380
   116  H    0.354924
   117  H    0.449156
   118  N   -0.759743
   119  H    0.372768
   120  H    0.367553
   121  C    0.761675
   122  O   -0.559889
   123  H    0.420848
 Sum of Mulliken charges =   1.00000

 Dipole moment (field-independent basis, Debye):
    X=              2.9888    Y=             12.8552    Z=             -4.4613  Tot=             13.9317
 Quadrupole moment (field-independent basis, Debye-Ang):
   XX=           -112.8394   YY=           -273.8988   ZZ=           -302.6423
   XY=            -55.0775   XZ=           -105.2118   YZ=             -1.6355

 Normal termination of Gaussian 16 at Mon Jul 11 14:06:16 2022.
