 Gaussian 16, Revision C.01,
 Gaussian 16:  ES64L-G16RevC.01  3-Jul-2019

 ----------------------------------------------------------------------
 # B3LYP/6-31G* empiricaldispersion=gd3 guess=read geom=check nosymm in
 tegral(ultrafinegrid)
 ----------------------------------------------------------------------

 ------------------------------------------------------
 Candidate Structure: Conf:727 Charge calc in gas phase
 ------------------------------------------------------
 Structure from the checkpoint file:  "conf-727.chk"
 Charge =  1 Multiplicity = 1

                          Input orientation:
 ---------------------------------------------------------------------
 Center     Atomic      Atomic             Coordinates (Angstroms)
 Number     Number       Type             X           Y           Z
 ---------------------------------------------------------------------
      1          7           0       -9.208469   -0.835094    4.785100
      2          1           0      -10.195368   -0.787921    4.515009
      3          1           0       -9.106078   -1.524760    5.535302
      4          1           0       -8.636714   -1.107488    3.929740
      5          6           0       -8.615729    0.517935    5.132453
      6          1           0       -9.433069    1.214664    5.327884
      7          6           0       -7.834707    0.884518    3.842713
      8          6           0       -7.693327    0.400677    6.372420
      9          1           0       -6.923271   -0.352692    6.165990
     10          1           0       -8.300621    0.043179    7.214744
     11          8           0       -7.621400   -0.035396    3.030575
     12          6           0       -7.053197    1.735189    6.695878
     13          6           0       -5.709371    1.971268    6.381929
     14          1           0       -5.100317    1.167879    5.980265
     15          6           0       -7.836665    2.788211    7.190888
     16          1           0       -8.878091    2.615101    7.456741
     17          6           0       -5.159962    3.245256    6.530288
     18          1           0       -4.128147    3.420078    6.245023
     19          6           0       -7.286062    4.062062    7.347738
     20          1           0       -7.899023    4.870961    7.733955
     21          6           0       -5.949987    4.293514    7.007942
     22          1           0       -5.525995    5.286936    7.117883
     23          7           0       -7.420803    2.138812    3.725637
     24          1           0       -7.577451    2.763323    4.510102
     25          6           0       -6.466999    2.619564    2.701984
     26          1           0       -6.729429    2.136018    1.756902
     27          6           0       -5.023034    2.201723    3.091886
     28          6           0       -6.591696    4.131871    2.589159
     29          1           0       -5.837826    4.499932    1.893893
     30          1           0       -6.409946    4.608232    3.558742
     31          1           0       -7.584244    4.401022    2.217820
     32          8           0       -4.158010    3.035581    3.342067
     33          7           0       -4.818526    0.861391    3.178025
     34          1           0       -5.506519    0.238849    2.768473
     35          6           0       -3.521005    0.286975    3.552043
     36          1           0       -3.024236    1.038896    4.173052
     37          6           0       -2.669147    0.050293    2.285568
     38          6           0       -3.713188   -1.013613    4.325574
     39          1           0       -2.743090   -1.423488    4.616457
     40          1           0       -4.204308   -1.765123    3.700293
     41          1           0       -4.308773   -0.842389    5.229377
     42          8           0       -2.401987   -1.092982    1.906718
     43          7           0       -2.290707    1.168320    1.632404
     44          1           0       -2.549179    2.072618    2.013371
     45          6           0       -1.674015    1.107401    0.301729
     46          1           0       -2.063685    0.211721   -0.188257
     47          6           0       -0.144369    0.935888    0.424325
     48          6           0       -2.026123    2.332615   -0.542786
     49          1           0       -1.467614    3.199111   -0.173156
     50          1           0       -1.642614    2.132195   -1.549578
     51          8           0        0.648872    1.824351    0.119500
     52          6           0       -3.508293    2.638911   -0.602767
     53          6           0       -4.476192    1.627166   -0.712316
     54          1           0       -4.162972    0.591146   -0.787239
     55          6           0       -3.951836    3.965432   -0.575634
     56          1           0       -3.224435    4.769948   -0.501207
     57          6           0       -5.835991    1.928178   -0.761026
     58          1           0       -6.582962    1.144827   -0.852276
     59          6           0       -5.309240    4.284808   -0.646173
     60          1           0       -5.628804    5.325305   -0.623182
     61          8           0       -7.611297    3.498659   -0.699078
     62          1           0       -7.766218    4.444637   -0.847633
     63          6           0       -6.256875    3.261434   -0.719097
     64          7           0        0.222360   -0.281301    0.895976
     65          1           0       -0.510053   -0.962795    1.075675
     66          6           0        1.621370   -0.701177    1.012109
     67          1           0        2.202590    0.201327    1.220296
     68          6           0        2.007100   -1.264463   -0.377548
     69          6           0        1.790755   -1.736740    2.124070
     70          1           0        1.383151   -2.689905    1.767478
     71          1           0        2.867747   -1.902293    2.262483
     72          8           0        1.952650   -2.466243   -0.631404
     73          6           0        1.148920   -1.357942    3.472457
     74          1           0        0.059971   -1.308562    3.325906
     75          6           0        1.429671   -2.455222    4.508637
     76          1           0        2.505575   -2.536061    4.710343
     77          1           0        0.929390   -2.239401    5.460853
     78          1           0        1.082493   -3.434020    4.156982
     79          6           0        1.618433    0.012228    3.981581
     80          1           0        2.710958    0.036022    4.087181
     81          1           0        1.328195    0.820257    3.301318
     82          1           0        1.187187    0.232876    4.965999
     83          7           0        2.263792   -0.300211   -1.293524
     84          1           0        2.264367    0.677192   -1.015420
     85          6           0        2.237294   -0.534630   -2.723980
     86          1           0        2.556211   -1.564350   -2.908756
     87          6           0        3.184284    0.472270   -3.406651
     88          6           0        0.815600   -0.309270   -3.301113
     89          1           0        0.524856    0.721725   -3.058593
     90          1           0        0.843761   -0.392283   -4.393334
     91          8           0        3.525925    1.506798   -2.829840
     92          6           0       -0.233605   -1.288793   -2.733080
     93          1           0       -0.220276   -1.284144   -1.643564
     94          1           0       -0.017695   -2.304386   -3.078377
     95          6           0       -1.617470   -0.882176   -3.166249
     96          8           0       -2.435636   -0.298329   -2.474916
     97          8           0       -1.862422   -1.193617   -4.455536
     98          7           0        3.520539    0.141147   -4.668512
     99          1           0        3.011010   -0.597273   -5.173546
    100          6           0        3.966561    1.112460   -5.661733
    101          1           0        3.403484    2.045832   -5.528415
    102          6           0        3.604793    0.492686   -7.078177
    103          6           0        5.458042    1.447899   -5.551459
    104          1           0        5.685071    1.781768   -4.531300
    105          1           0        5.652701    2.270371   -6.247849
    106          8           0        4.209641    1.001153   -8.046358
    107          6           0        6.321139    0.251371   -5.956313
    108          1           0        6.021609   -0.009686   -6.979494
    109          1           0        6.122321   -0.603578   -5.298214
    110          6           0        7.809881    0.571149   -5.950723
    111          1           0        8.196403    0.696116   -4.931705
    112          1           0        8.000488    1.489232   -6.521901
    113          7           0        8.541340   -0.547963   -6.593409
    114          1           0        7.962535   -1.191876   -7.121643
    115          7           0       10.671662    0.267748   -6.185133
    116          1           0       11.626246    0.055170   -5.934167
    117          1           0       10.290575    1.142566   -5.854784
    118          7           0       10.409505   -1.831293   -7.126075
    119          1           0       11.343987   -1.807116   -7.509954
    120          1           0        9.816426   -2.584304   -7.446519
    121          6           0        9.853668   -0.697560   -6.641301
    122          8           0        2.779204   -0.457305   -7.035926
    123          1           0       -2.747547   -0.844354   -4.671283
 ---------------------------------------------------------------------

 SCF Done:  E(RB3LYP) =  -2974.13205831     A.U. after    1 cycles

 Alpha  occ. eigenvalues --  -19.28075 -19.24217 -19.22924 -19.21402 -19.18502
 Alpha  occ. eigenvalues --  -19.17579 -19.15408 -19.13111 -19.11539 -19.04891
 Alpha  occ. eigenvalues --  -19.04113 -14.61235 -14.50704 -14.49811 -14.49676
 Alpha  occ. eigenvalues --  -14.49137 -14.45302 -14.42280 -14.39283 -14.36878
 Alpha  occ. eigenvalues --  -14.33900 -10.45780 -10.44553 -10.42047 -10.38416
 Alpha  occ. eigenvalues --  -10.35481 -10.35359 -10.35271 -10.34117 -10.32315
 Alpha  occ. eigenvalues --  -10.32020 -10.31584 -10.30908 -10.30805 -10.30675
 Alpha  occ. eigenvalues --  -10.30262 -10.30054 -10.30043 -10.29615 -10.29510
 Alpha  occ. eigenvalues --  -10.28372 -10.27558 -10.26962 -10.26387 -10.25832
 Alpha  occ. eigenvalues --  -10.24827 -10.24659 -10.24506 -10.24488 -10.24400
 Alpha  occ. eigenvalues --  -10.24299 -10.23328 -10.22973 -10.22407 -10.22258
 Alpha  occ. eigenvalues --  -10.22236 -10.21756 -10.21228 -10.20870 -10.20809
 Alpha  occ. eigenvalues --  -10.19996 -10.19292  -1.20382  -1.15021  -1.14321
 Alpha  occ. eigenvalues --   -1.13887  -1.13231  -1.11975  -1.10202  -1.07290
 Alpha  occ. eigenvalues --   -1.07183  -1.04944  -1.04695  -1.03223  -1.03048
 Alpha  occ. eigenvalues --   -1.02706  -1.01684  -0.98578  -0.97969  -0.97868
 Alpha  occ. eigenvalues --   -0.95922  -0.93869  -0.93650  -0.91216  -0.90930
 Alpha  occ. eigenvalues --   -0.89117  -0.88757  -0.86236  -0.85537  -0.85286
 Alpha  occ. eigenvalues --   -0.85257  -0.84291  -0.83405  -0.82417  -0.80753
 Alpha  occ. eigenvalues --   -0.80478  -0.79391  -0.78304  -0.77340  -0.75887
 Alpha  occ. eigenvalues --   -0.75726  -0.75121  -0.74585  -0.74236  -0.73781
 Alpha  occ. eigenvalues --   -0.72512  -0.72092  -0.71722  -0.71644  -0.70381
 Alpha  occ. eigenvalues --   -0.69457  -0.69402  -0.68615  -0.68368  -0.67382
 Alpha  occ. eigenvalues --   -0.67152  -0.66332  -0.65634  -0.64943  -0.64408
 Alpha  occ. eigenvalues --   -0.63974  -0.63157  -0.62771  -0.62731  -0.62345
 Alpha  occ. eigenvalues --   -0.62030  -0.61603  -0.61269  -0.60160  -0.60019
 Alpha  occ. eigenvalues --   -0.59659  -0.59420  -0.59181  -0.58949  -0.57763
 Alpha  occ. eigenvalues --   -0.57039  -0.56774  -0.56459  -0.56133  -0.55589
 Alpha  occ. eigenvalues --   -0.54718  -0.54655  -0.54591  -0.54431  -0.53177
 Alpha  occ. eigenvalues --   -0.53028  -0.52788  -0.52571  -0.52490  -0.52308
 Alpha  occ. eigenvalues --   -0.52072  -0.51849  -0.51501  -0.51239  -0.51062
 Alpha  occ. eigenvalues --   -0.50260  -0.49735  -0.49355  -0.49037  -0.48957
 Alpha  occ. eigenvalues --   -0.48726  -0.48443  -0.48229  -0.47946  -0.47667
 Alpha  occ. eigenvalues --   -0.47515  -0.47374  -0.47053  -0.46684  -0.46515
 Alpha  occ. eigenvalues --   -0.46366  -0.46103  -0.45711  -0.45579  -0.45452
 Alpha  occ. eigenvalues --   -0.45363  -0.45098  -0.44834  -0.44667  -0.44376
 Alpha  occ. eigenvalues --   -0.44308  -0.44076  -0.43822  -0.43693  -0.43114
 Alpha  occ. eigenvalues --   -0.42684  -0.42491  -0.41973  -0.41901  -0.41741
 Alpha  occ. eigenvalues --   -0.41149  -0.41054  -0.40997  -0.40590  -0.40292
 Alpha  occ. eigenvalues --   -0.40184  -0.39524  -0.39120  -0.38985  -0.38799
 Alpha  occ. eigenvalues --   -0.38556  -0.38060  -0.37970  -0.37882  -0.37279
 Alpha  occ. eigenvalues --   -0.36497  -0.36207  -0.36133  -0.36056  -0.35875
 Alpha  occ. eigenvalues --   -0.35822  -0.35550  -0.35547  -0.35397  -0.35067
 Alpha  occ. eigenvalues --   -0.34495  -0.34116  -0.33268  -0.32240  -0.31548
 Alpha  occ. eigenvalues --   -0.31060  -0.30836  -0.30332  -0.28345  -0.27569
 Alpha  occ. eigenvalues --   -0.27124  -0.25981  -0.25338  -0.24853  -0.20329
 Alpha  occ. eigenvalues --   -0.19590  -0.18505
 Alpha virt. eigenvalues --   -0.13923  -0.12290  -0.12038  -0.11397  -0.09913
 Alpha virt. eigenvalues --   -0.08270  -0.06890  -0.06220  -0.05922  -0.05132
 Alpha virt. eigenvalues --   -0.04366  -0.04222  -0.03210  -0.02842  -0.02204

 Mulliken charges:
               1
     1  N   -0.757605
     2  H    0.421181
     3  H    0.417808
     4  H    0.436996
     5  C   -0.115015
     6  H    0.220207
     7  C    0.663108
     8  C   -0.381056
     9  H    0.189834
    10  H    0.188421
    11  O   -0.561749
    12  C    0.124306
    13  C   -0.185641
    14  H    0.165536
    15  C   -0.204295
    16  H    0.137419
    17  C   -0.122159
    18  H    0.181587
    19  C   -0.126994
    20  H    0.165648
    21  C   -0.131967
    22  H    0.170740
    23  N   -0.573331
    24  H    0.368592
    25  C   -0.090852
    26  H    0.223651
    27  C    0.645603
    28  C   -0.474549
    29  H    0.210893
    30  H    0.160601
    31  H    0.159665
    32  O   -0.525849
    33  N   -0.617439
    34  H    0.365106
    35  C   -0.073390
    36  H    0.187206
    37  C    0.644004
    38  C   -0.464946
    39  H    0.194098
    40  H    0.170777
    41  H    0.129711
    42  O   -0.542880
    43  N   -0.600987
    44  H    0.360956
    45  C   -0.099190
    46  H    0.214784
    47  C    0.645714
    48  C   -0.370640
    49  H    0.171029
    50  H    0.196182
    51  O   -0.538666
    52  C    0.148291
    53  C   -0.177149
    54  H    0.169004
    55  C   -0.191458
    56  H    0.144462
    57  C   -0.198502
    58  H    0.139070
    59  C   -0.210650
    60  H    0.127430
    61  O   -0.660104
    62  H    0.410954
    63  C    0.356261
    64  N   -0.626830
    65  H    0.374100
    66  C   -0.064752
    67  H    0.173012
    68  C    0.620047
    69  C   -0.281136
    70  H    0.165098
    71  H    0.142969
    72  O   -0.546557
    73  C   -0.076807
    74  H    0.121808
    75  C   -0.440745
    76  H    0.143919
    77  H    0.128577
    78  H    0.144775
    79  C   -0.453115
    80  H    0.143533
    81  H    0.158384
    82  H    0.128006
    83  N   -0.596996
    84  H    0.367155
    85  C   -0.070849
    86  H    0.175921
    87  C    0.601964
    88  C   -0.294558
    89  H    0.158776
    90  H    0.196056
    91  O   -0.550397
    92  C   -0.333656
    93  H    0.176308
    94  H    0.183698
    95  C    0.561434
    96  O   -0.484253
    97  O   -0.539469
    98  N   -0.614398
    99  H    0.350281
   100  C   -0.064803
   101  H    0.146782
   102  C    0.561901
   103  C   -0.252114
   104  H    0.142703
   105  H    0.148216
   106  O   -0.606896
   107  C   -0.325771
   108  H    0.193083
   109  H    0.158167
   110  C   -0.149517
   111  H    0.173700
   112  H    0.183946
   113  N   -0.595719
   114  H    0.373971
   115  N   -0.756107
   116  H    0.379345
   117  H    0.395091
   118  N   -0.759747
   119  H    0.377541
   120  H    0.381785
   121  C    0.818375
   122  O   -0.604691
   123  H    0.409683
 Sum of Mulliken charges =   1.00000

 Dipole moment (field-independent basis, Debye):
    X=            -14.9140    Y=              0.4677    Z=             19.6031  Tot=             24.6359
 Quadrupole moment (field-independent basis, Debye-Ang):
   XX=            347.2406   YY=           -327.9233   ZZ=           -223.8981
   XY=            -59.8054   XZ=           -375.3617   YZ=             44.4770

 Normal termination of Gaussian 16 at Mon Jul 11 14:05:42 2022.
