 Gaussian 16, Revision C.01,
 Gaussian 16:  ES64L-G16RevC.01  3-Jul-2019

 ----------------------------------------------------------------------
 # B3LYP/6-31G* empiricaldispersion=gd3 guess=read geom=check nosymm in
 tegral(ultrafinegrid)
 ----------------------------------------------------------------------

 ------------------------------------------------------
 Candidate Structure: Conf:448 Charge calc in gas phase
 ------------------------------------------------------
 Structure from the checkpoint file:  "conf-448.chk"
 Charge =  1 Multiplicity = 1

                          Input orientation:
 ---------------------------------------------------------------------
 Center     Atomic      Atomic             Coordinates (Angstroms)
 Number     Number       Type             X           Y           Z
 ---------------------------------------------------------------------
      1          7           0       -8.007826    0.919058    8.965702
      2          1           0       -8.780819    0.824824    9.627622
      3          1           0       -7.303356    1.573879    9.345278
      4          1           0       -7.526126   -0.003944    8.779962
      5          6           0       -8.424194    1.364811    7.582097
      6          1           0       -9.473219    1.080767    7.453850
      7          6           0       -7.554800    0.455590    6.665800
      8          6           0       -8.249392    2.891659    7.414084
      9          1           0       -8.989317    3.390733    8.051022
     10          1           0       -8.516847    3.151446    6.384634
     11          8           0       -6.974588   -0.505102    7.190681
     12          6           0       -6.849236    3.356899    7.754367
     13          6           0       -6.542802    3.745808    9.070114
     14          1           0       -7.339390    3.835695    9.809164
     15          6           0       -5.829129    3.347809    6.791380
     16          1           0       -6.054971    3.087498    5.760787
     17          6           0       -5.235792    4.094339    9.424623
     18          1           0       -5.015736    4.404321   10.441817
     19          6           0       -4.528494    3.704321    7.147295
     20          1           0       -3.748566    3.706348    6.391381
     21          6           0       -4.225903    4.066549    8.463019
     22          1           0       -3.211046    4.343097    8.732153
     23          7           0       -7.528554    0.757513    5.373164
     24          1           0       -7.874347    1.650636    5.022470
     25          6           0       -6.632346    0.108940    4.416671
     26          1           0       -5.733086   -0.208013    4.956758
     27          6           0       -6.260196    1.227055    3.415673
     28          6           0       -7.288623   -1.107736    3.750410
     29          1           0       -6.598527   -1.590756    3.052041
     30          1           0       -8.185752   -0.809693    3.199032
     31          1           0       -7.566262   -1.838821    4.514793
     32          8           0       -6.779624    2.348344    3.515841
     33          7           0       -5.370125    0.896524    2.476102
     34          1           0       -4.973864   -0.037933    2.393110
     35          6           0       -4.929565    1.810450    1.430248
     36          1           0       -5.809847    2.306429    1.005645
     37          6           0       -4.245889    0.926842    0.370780
     38          6           0       -3.954756    2.870005    1.973226
     39          1           0       -3.645685    3.561715    1.183257
     40          1           0       -3.058812    2.387685    2.376977
     41          1           0       -4.447364    3.444169    2.762167
     42          8           0       -3.920112   -0.232856    0.643211
     43          7           0       -4.021917    1.511077   -0.822580
     44          1           0       -4.218613    2.497912   -0.934616
     45          6           0       -3.193841    0.876932   -1.860979
     46          1           0       -3.387203   -0.196487   -1.796434
     47          6           0       -1.715973    1.172837   -1.523323
     48          6           0       -3.573283    1.389780   -3.254354
     49          1           0       -4.665086    1.327374   -3.348838
     50          1           0       -3.286344    2.444519   -3.326528
     51          8           0       -1.132571    2.155840   -1.971565
     52          6           0       -2.896195    0.590244   -4.347260
     53          6           0       -1.808457    1.107059   -5.062574
     54          1           0       -1.440089    2.104986   -4.850056
     55          6           0       -3.331704   -0.705419   -4.647892
     56          1           0       -4.180734   -1.128489   -4.113204
     57          6           0       -1.177172    0.362898   -6.053462
     58          1           0       -0.349930    0.787910   -6.610007
     59          6           0       -2.702264   -1.469039   -5.629416
     60          1           0       -3.055174   -2.474652   -5.851723
     61          8           0       -0.959479   -1.624573   -7.313894
     62          1           0       -1.359646   -2.502773   -7.407267
     63          6           0       -1.618753   -0.933246   -6.335195
     64          7           0       -1.166401    0.324249   -0.619762
     65          1           0       -1.683480   -0.505024   -0.359391
     66          6           0        0.244856    0.405864   -0.279748
     67          1           0        0.434279    1.401797    0.134620
     68          6           0        1.086459    0.219252   -1.560115
     69          6           0        0.588009   -0.687608    0.746966
     70          1           0       -0.116553   -0.605331    1.588015
     71          1           0        0.404084   -1.657764    0.265052
     72          8           0        0.747036   -0.562195   -2.440303
     73          6           0        2.029395   -0.657429    1.293659
     74          1           0        2.727222   -0.680003    0.447025
     75          6           0        2.322737    0.613117    2.105088
     76          1           0        1.649062    0.686516    2.969769
     77          1           0        3.352797    0.603133    2.475980
     78          1           0        2.207310    1.528274    1.514319
     79          6           0        2.283523   -1.907857    2.147597
     80          1           0        1.608912   -1.935445    3.013931
     81          1           0        2.124743   -2.825879    1.569734
     82          1           0        3.311806   -1.920745    2.526022
     83          7           0        2.212245    0.973131   -1.600366
     84          1           0        2.536719    1.462854   -0.774038
     85          6           0        3.209341    0.837890   -2.641938
     86          1           0        3.051785   -0.131708   -3.127746
     87          6           0        4.588571    0.872476   -1.955089
     88          6           0        3.080518    1.963229   -3.692732
     89          1           0        3.340979    2.919555   -3.226238
     90          1           0        3.811529    1.795731   -4.492324
     91          8           0        4.700657    1.204116   -0.769626
     92          6           0        1.662163    2.035308   -4.271196
     93          1           0        0.940172    2.248479   -3.471085
     94          1           0        1.346263    1.077549   -4.693827
     95          6           0        1.452521    3.092936   -5.326801
     96          8           0        0.584179    3.071037   -6.175921
     97          8           0        2.320760    4.130040   -5.221820
     98          7           0        5.631454    0.556275   -2.743144
     99          1           0        5.507950    0.235737   -3.698157
    100          6           0        7.020266    0.597398   -2.304480
    101          1           0        7.183090    1.500923   -1.712726
    102          6           0        7.937067    0.627999   -3.542160
    103          6           0        7.340550   -0.649624   -1.434192
    104          1           0        6.923939   -1.524336   -1.953297
    105          1           0        6.767742   -0.544270   -0.507887
    106          8           0        9.038322    1.194481   -3.428185
    107          6           0        8.840627   -0.876531   -1.124606
    108          1           0        8.972738   -1.114571   -0.061923
    109          1           0        9.407067    0.037628   -1.329946
    110          6           0        9.459375   -2.046661   -1.912243
    111          1           0        8.907610   -2.970000   -1.705998
    112          1           0       10.486953   -2.239092   -1.585595
    113          7           0        9.441020   -1.880673   -3.372256
    114          1           0        8.507941   -1.823963   -3.781529
    115          7           0       11.611075   -1.032060   -3.660637
    116          1           0       12.125391   -0.247109   -4.035027
    117          1           0       11.826100   -1.247913   -2.698922
    118          7           0        9.983939   -0.799326   -5.326231
    119          1           0       10.638133   -0.195373   -5.807216
    120          1           0        8.986391   -0.460507   -5.346950
    121          6           0       10.340247   -1.197309   -4.096865
    122          8           0        7.519112   -0.068180   -4.539008
    123          1           0        2.079133    4.756691   -5.929902
 ---------------------------------------------------------------------

 SCF Done:  E(RB3LYP) =  -2974.19059962     A.U. after    1 cycles

 Alpha  occ. eigenvalues --  -19.26823 -19.22759 -19.22390 -19.20605 -19.20240
 Alpha  occ. eigenvalues --  -19.16496 -19.16448 -19.14825 -19.14452 -19.12589
 Alpha  occ. eigenvalues --  -19.11354 -14.59468 -14.49353 -14.46085 -14.44531
 Alpha  occ. eigenvalues --  -14.44218 -14.43001 -14.40662 -14.40506 -14.38915
 Alpha  occ. eigenvalues --  -14.38630 -10.43650 -10.40986 -10.39677 -10.39204
 Alpha  occ. eigenvalues --  -10.37512 -10.35087 -10.34738 -10.34374 -10.33439
 Alpha  occ. eigenvalues --  -10.32789 -10.32234 -10.31828 -10.31709 -10.31123
 Alpha  occ. eigenvalues --  -10.30374 -10.30132 -10.30047 -10.29901 -10.29654
 Alpha  occ. eigenvalues --  -10.29163 -10.29146 -10.28675 -10.27576 -10.27272
 Alpha  occ. eigenvalues --  -10.26925 -10.26484 -10.24695 -10.23865 -10.23778
 Alpha  occ. eigenvalues --  -10.23447 -10.23386 -10.22499 -10.22462 -10.22065
 Alpha  occ. eigenvalues --  -10.21956 -10.21882 -10.21794 -10.21749 -10.21636
 Alpha  occ. eigenvalues --  -10.20909 -10.20157  -1.19276  -1.14658  -1.13608
 Alpha  occ. eigenvalues --   -1.13137  -1.12369  -1.08487  -1.08235  -1.08084
 Alpha  occ. eigenvalues --   -1.06911  -1.06252  -1.06078  -1.05001  -1.03891
 Alpha  occ. eigenvalues --   -1.02732  -1.00714  -0.97844  -0.97639  -0.97168
 Alpha  occ. eigenvalues --   -0.96588  -0.95795  -0.95559  -0.94725  -0.93372
 Alpha  occ. eigenvalues --   -0.89404  -0.88205  -0.86781  -0.85993  -0.85808
 Alpha  occ. eigenvalues --   -0.85337  -0.83982  -0.83034  -0.82880  -0.80110
 Alpha  occ. eigenvalues --   -0.79616  -0.78592  -0.77254  -0.77096  -0.76727
 Alpha  occ. eigenvalues --   -0.75726  -0.74922  -0.74512  -0.73037  -0.72662
 Alpha  occ. eigenvalues --   -0.71736  -0.71520  -0.70990  -0.70654  -0.69791
 Alpha  occ. eigenvalues --   -0.69602  -0.69172  -0.68558  -0.67382  -0.66311
 Alpha  occ. eigenvalues --   -0.66157  -0.64927  -0.64666  -0.64460  -0.63939
 Alpha  occ. eigenvalues --   -0.63735  -0.62780  -0.62115  -0.61877  -0.61341
 Alpha  occ. eigenvalues --   -0.61133  -0.60949  -0.60671  -0.60328  -0.60002
 Alpha  occ. eigenvalues --   -0.58835  -0.58123  -0.57708  -0.57515  -0.57273
 Alpha  occ. eigenvalues --   -0.56731  -0.56697  -0.56460  -0.55477  -0.55227
 Alpha  occ. eigenvalues --   -0.55043  -0.54398  -0.54181  -0.53475  -0.53306
 Alpha  occ. eigenvalues --   -0.53200  -0.53090  -0.52554  -0.52407  -0.51994
 Alpha  occ. eigenvalues --   -0.51935  -0.51690  -0.51528  -0.51434  -0.51096
 Alpha  occ. eigenvalues --   -0.50949  -0.50588  -0.50304  -0.49676  -0.49208
 Alpha  occ. eigenvalues --   -0.48952  -0.48933  -0.48682  -0.48372  -0.47944
 Alpha  occ. eigenvalues --   -0.47895  -0.47794  -0.47756  -0.47669  -0.47452
 Alpha  occ. eigenvalues --   -0.47143  -0.46829  -0.46367  -0.46173  -0.45583
 Alpha  occ. eigenvalues --   -0.45565  -0.45414  -0.45313  -0.45162  -0.45022
 Alpha  occ. eigenvalues --   -0.44666  -0.44415  -0.44216  -0.44199  -0.43802
 Alpha  occ. eigenvalues --   -0.43588  -0.42895  -0.42673  -0.42565  -0.42064
 Alpha  occ. eigenvalues --   -0.41935  -0.41606  -0.41453  -0.41365  -0.40796
 Alpha  occ. eigenvalues --   -0.40692  -0.40229  -0.39877  -0.39457  -0.39429
 Alpha  occ. eigenvalues --   -0.39265  -0.38737  -0.38700  -0.38426  -0.37577
 Alpha  occ. eigenvalues --   -0.37408  -0.37196  -0.36948  -0.36892  -0.36703
 Alpha  occ. eigenvalues --   -0.36636  -0.36225  -0.36168  -0.36060  -0.35279
 Alpha  occ. eigenvalues --   -0.34823  -0.34770  -0.34288  -0.34154  -0.32097
 Alpha  occ. eigenvalues --   -0.30969  -0.30273  -0.29671  -0.29233  -0.28973
 Alpha  occ. eigenvalues --   -0.28355  -0.27990  -0.27810  -0.27394  -0.27059
 Alpha  occ. eigenvalues --   -0.24906  -0.24265
 Alpha virt. eigenvalues --   -0.12972  -0.12353  -0.12288  -0.08814  -0.08455
 Alpha virt. eigenvalues --   -0.06441  -0.04792  -0.04458  -0.03304  -0.03044
 Alpha virt. eigenvalues --   -0.02766  -0.01869  -0.01618  -0.01461  -0.01014

 Mulliken charges:
               1
     1  N   -0.755131
     2  H    0.410594
     3  H    0.404180
     4  H    0.432678
     5  C   -0.114730
     6  H    0.229009
     7  C    0.654068
     8  C   -0.395747
     9  H    0.189752
    10  H    0.209486
    11  O   -0.537499
    12  C    0.139780
    13  C   -0.240539
    14  H    0.142641
    15  C   -0.187093
    16  H    0.174217
    17  C   -0.118517
    18  H    0.165685
    19  C   -0.130253
    20  H    0.163218
    21  C   -0.121274
    22  H    0.168086
    23  N   -0.600624
    24  H    0.373901
    25  C   -0.068939
    26  H    0.202689
    27  C    0.637661
    28  C   -0.449630
    29  H    0.179504
    30  H    0.173976
    31  H    0.185574
    32  O   -0.553223
    33  N   -0.617722
    34  H    0.368276
    35  C   -0.044490
    36  H    0.186756
    37  C    0.632171
    38  C   -0.453427
    39  H    0.167373
    40  H    0.169352
    41  H    0.181136
    42  O   -0.550687
    43  N   -0.605350
    44  H    0.343649
    45  C   -0.067242
    46  H    0.182022
    47  C    0.658392
    48  C   -0.370491
    49  H    0.147033
    50  H    0.165472
    51  O   -0.534770
    52  C    0.157055
    53  C   -0.180723
    54  H    0.153314
    55  C   -0.187638
    56  H    0.112976
    57  C   -0.167952
    58  H    0.165658
    59  C   -0.189564
    60  H    0.115149
    61  O   -0.640177
    62  H    0.405646
    63  C    0.355639
    64  N   -0.612890
    65  H    0.350018
    66  C   -0.023908
    67  H    0.155386
    68  C    0.632573
    69  C   -0.294707
    70  H    0.131363
    71  H    0.155701
    72  O   -0.537398
    73  C   -0.089809
    74  H    0.156631
    75  C   -0.442920
    76  H    0.126274
    77  H    0.161260
    78  H    0.141857
    79  C   -0.443654
    80  H    0.131835
    81  H    0.146463
    82  H    0.148819
    83  N   -0.602745
    84  H    0.352971
    85  C   -0.076317
    86  H    0.181883
    87  C    0.627024
    88  C   -0.259522
    89  H    0.164694
    90  H    0.153241
    91  O   -0.561307
    92  C   -0.386027
    93  H    0.224980
    94  H    0.198449
    95  C    0.583085
    96  O   -0.469879
    97  O   -0.562100
    98  N   -0.616278
    99  H    0.349548
   100  C   -0.004152
   101  H    0.170615
   102  C    0.579183
   103  C   -0.293327
   104  H    0.130662
   105  H    0.175043
   106  O   -0.583864
   107  C   -0.272890
   108  H    0.144281
   109  H    0.186046
   110  C   -0.178669
   111  H    0.177313
   112  H    0.146486
   113  N   -0.568616
   114  H    0.370147
   115  N   -0.750454
   116  H    0.366311
   117  H    0.363048
   118  N   -0.732540
   119  H    0.337057
   120  H    0.402028
   121  C    0.758423
   122  O   -0.645984
   123  H    0.408927
 Sum of Mulliken charges =   1.00000

 Dipole moment (field-independent basis, Debye):
    X=            -21.9848    Y=              2.8888    Z=             32.9719  Tot=             39.7344
 Quadrupole moment (field-independent basis, Debye-Ang):
   XX=             63.5826   YY=           -336.0157   ZZ=            -82.2448
   XY=            -71.7176   XZ=           -286.5408   YZ=             67.8137

 Normal termination of Gaussian 16 at Mon Jul 11 14:05:19 2022.
