 Gaussian 16, Revision C.01,
 Gaussian 16:  ES64L-G16RevC.01  3-Jul-2019

 ----------------------------------------------------------------------
 # B3LYP/6-31G* empiricaldispersion=gd3 guess=read geom=check nosymm in
 tegral(ultrafinegrid)
 ----------------------------------------------------------------------

 ------------------------------------------------------
 Candidate Structure: Conf:156 Charge calc in gas phase
 ------------------------------------------------------
 Structure from the checkpoint file:  "conf-156.chk"
 Charge =  1 Multiplicity = 1

                          Input orientation:
 ---------------------------------------------------------------------
 Center     Atomic      Atomic             Coordinates (Angstroms)
 Number     Number       Type             X           Y           Z
 ---------------------------------------------------------------------
      1          7           0       -3.882824    5.343210    4.993073
      2          1           0       -4.787762    4.805573    4.972372
      3          1           0       -3.959346    6.214143    5.522286
      4          1           0       -3.150684    4.750931    5.413645
      5          6           0       -3.564556    5.540523    3.523427
      6          1           0       -4.062628    6.468096    3.222795
      7          6           0       -4.375663    4.392157    2.855140
      8          6           0       -2.052356    5.678653    3.313288
      9          1           0       -1.756729    6.667586    3.683635
     10          1           0       -1.862254    5.697002    2.234387
     11          8           0       -5.340131    3.949399    3.500794
     12          6           0       -1.202902    4.614922    3.990601
     13          6           0       -0.017367    4.994262    4.638783
     14          1           0        0.267365    6.043455    4.668712
     15          6           0       -1.545942    3.253034    3.958856
     16          1           0       -2.432028    2.900562    3.442772
     17          6           0        0.814187    4.038346    5.222033
     18          1           0        1.733629    4.350850    5.708361
     19          6           0       -0.715875    2.296708    4.550792
     20          1           0       -0.995413    1.248350    4.489781
     21          6           0        0.466751    2.685450    5.180432
     22          1           0        1.116128    1.942299    5.634067
     23          7           0       -4.054091    4.010395    1.622522
     24          1           0       -3.143256    4.249969    1.199729
     25          6           0       -4.814753    2.941419    0.981026
     26          1           0       -5.873292    3.224800    0.995125
     27          6           0       -4.641794    1.625362    1.769063
     28          6           0       -4.330591    2.761082   -0.464536
     29          1           0       -4.890100    1.958531   -0.953379
     30          1           0       -3.266482    2.511588   -0.489173
     31          1           0       -4.472290    3.684205   -1.033054
     32          8           0       -3.619021    1.389979    2.419497
     33          7           0       -5.656218    0.742398    1.648983
     34          1           0       -6.442935    0.966508    1.053014
     35          6           0       -5.617624   -0.609827    2.231184
     36          1           0       -5.141350   -0.513260    3.211627
     37          6           0       -4.744861   -1.486706    1.304511
     38          6           0       -7.028311   -1.167984    2.361847
     39          1           0       -6.998584   -2.141897    2.858052
     40          1           0       -7.469261   -1.320016    1.372019
     41          1           0       -7.657128   -0.493760    2.951236
     42          8           0       -5.222283   -2.132294    0.377976
     43          7           0       -3.412434   -1.415428    1.571353
     44          1           0       -3.086734   -0.694315    2.211124
     45          6           0       -2.434529   -1.842796    0.583944
     46          1           0       -2.717867   -2.840018    0.235547
     47          6           0       -1.075192   -1.881950    1.297883
     48          6           0       -2.465519   -0.841418   -0.611223
     49          1           0       -3.498389   -0.871329   -0.978513
     50          1           0       -2.303974    0.157377   -0.191495
     51          8           0       -0.820754   -1.097305    2.216186
     52          6           0       -1.508488   -1.062090   -1.762111
     53          6           0       -0.920599    0.045130   -2.393369
     54          1           0       -1.168375    1.057877   -2.087958
     55          6           0       -1.212736   -2.333967   -2.269788
     56          1           0       -1.706658   -3.214615   -1.864519
     57          6           0       -0.019702   -0.103147   -3.444936
     58          1           0        0.426245    0.773430   -3.902916
     59          6           0       -0.298845   -2.503985   -3.311272
     60          1           0       -0.059319   -3.502481   -3.670711
     61          8           0        1.287327   -1.497974   -4.861110
     62          1           0        1.266133   -2.391271   -5.241318
     63          6           0        0.305124   -1.384410   -3.883322
     64          7           0       -0.196805   -2.820182    0.856480
     65          1           0       -0.411562   -3.289831   -0.013861
     66          6           0        1.218755   -2.869755    1.271490
     67          1           0        1.240419   -2.684844    2.348249
     68          6           0        1.875213   -1.702036    0.510920
     69          6           0        1.838570   -4.222941    0.932351
     70          1           0        1.891098   -4.309183   -0.160457
     71          1           0        2.879239   -4.202976    1.282527
     72          8           0        2.283087   -1.847474   -0.641982
     73          6           0        1.118931   -5.445458    1.532072
     74          1           0        0.094109   -5.470395    1.132975
     75          6           0        1.829899   -6.731258    1.086846
     76          1           0        2.854814   -6.765023    1.477521
     77          1           0        1.303720   -7.618704    1.455059
     78          1           0        1.886806   -6.801484   -0.005996
     79          6           0        1.023849   -5.373054    3.062697
     80          1           0        2.021418   -5.280027    3.511497
     81          1           0        0.418961   -4.523177    3.398658
     82          1           0        0.562654   -6.281468    3.465211
     83          7           0        1.775495   -0.501253    1.136685
     84          1           0        1.277509   -0.556665    2.017861
     85          6           0        1.386931    0.679041    0.360836
     86          1           0        0.618258    0.354127   -0.350497
     87          6           0        2.511271    1.335646   -0.447926
     88          6           0        0.774909    1.743529    1.325237
     89          1           0        0.532308    1.251650    2.269953
     90          1           0        1.525071    2.502879    1.556652
     91          8           0        3.686019    1.360445   -0.066126
     92          6           0       -0.518758    2.395570    0.797121
     93          1           0       -1.385276    2.111732    1.399253
     94          1           0       -0.729707    2.052754   -0.221819
     95          6           0       -0.522917    3.896986    0.608330
     96          8           0       -1.568606    4.535170    0.487184
     97          8           0        0.672136    4.452876    0.502677
     98          7           0        2.062402    1.960490   -1.568641
     99          1           0        1.078487    1.814741   -1.806584
    100          6           0        2.338881    3.376541   -1.873522
    101          1           0        2.736131    3.847310   -0.969906
    102          6           0        0.923448    4.018413   -2.133421
    103          6           0        3.298477    3.692025   -3.030164
    104          1           0        3.099156    4.737142   -3.289289
    105          1           0        3.019633    3.095220   -3.909611
    106          8           0        0.866758    5.262292   -1.937045
    107          6           0        4.799089    3.540309   -2.694038
    108          1           0        4.935036    3.598833   -1.607282
    109          1           0        5.371119    4.373176   -3.121255
    110          6           0        5.454832    2.250376   -3.194853
    111          1           0        6.493385    2.196057   -2.849740
    112          1           0        5.501210    2.230771   -4.287572
    113          7           0        4.771167    1.047958   -2.718045
    114          1           0        4.635389    1.010816   -1.700428
    115          7           0        3.819237    0.410883   -4.776362
    116          1           0        3.070103   -0.122986   -5.202584
    117          1           0        3.973773    1.324630   -5.173674
    118          7           0        3.437891   -0.833310   -2.878815
    119          1           0        2.733130   -1.327875   -3.410416
    120          1           0        3.354410   -0.953122   -1.869058
    121          6           0        3.995051    0.241296   -3.439968
    122          8           0       -0.008893    3.225456   -2.419849
    123          1           0        0.675692    5.128514   -0.259348
 ---------------------------------------------------------------------

 SCF Done:  E(RB3LYP) =  -2974.22328582     A.U. after    3 cycles

 Alpha  occ. eigenvalues --  -19.28423 -19.24572 -19.24019 -19.21752 -19.21349
 Alpha  occ. eigenvalues --  -19.21318 -19.20957 -19.19183 -19.19039 -19.14089
 Alpha  occ. eigenvalues --  -19.12913 -14.57816 -14.46644 -14.46127 -14.45847
 Alpha  occ. eigenvalues --  -14.45666 -14.45046 -14.43781 -14.43349 -14.43041
 Alpha  occ. eigenvalues --  -14.40552 -10.41683 -10.41329 -10.39374 -10.38764
 Alpha  occ. eigenvalues --  -10.38666 -10.38254 -10.37140 -10.36039 -10.35572
 Alpha  occ. eigenvalues --  -10.33740 -10.33612 -10.32034 -10.31814 -10.31789
 Alpha  occ. eigenvalues --  -10.31630 -10.31051 -10.30868 -10.30815 -10.29869
 Alpha  occ. eigenvalues --  -10.28350 -10.28074 -10.28045 -10.27979 -10.27946
 Alpha  occ. eigenvalues --  -10.27885 -10.27837 -10.27788 -10.27598 -10.27439
 Alpha  occ. eigenvalues --  -10.27102 -10.26979 -10.26897 -10.26807 -10.26730
 Alpha  occ. eigenvalues --  -10.26034 -10.25997 -10.25789 -10.25518 -10.24694
 Alpha  occ. eigenvalues --  -10.23808 -10.23600  -1.17115  -1.16381  -1.15588
 Alpha  occ. eigenvalues --   -1.13578  -1.13326  -1.12227  -1.11804  -1.10853
 Alpha  occ. eigenvalues --   -1.10544  -1.09991  -1.07988  -1.06628  -1.03725
 Alpha  occ. eigenvalues --   -1.02155  -1.01955  -1.00647  -1.00078  -1.00002
 Alpha  occ. eigenvalues --   -0.98826  -0.98081  -0.97159  -0.95234  -0.94081
 Alpha  occ. eigenvalues --   -0.91091  -0.88860  -0.87921  -0.87415  -0.86747
 Alpha  occ. eigenvalues --   -0.86095  -0.84892  -0.83858  -0.83502  -0.83456
 Alpha  occ. eigenvalues --   -0.83339  -0.81455  -0.80677  -0.79115  -0.77956
 Alpha  occ. eigenvalues --   -0.75536  -0.74873  -0.74667  -0.74446  -0.73128
 Alpha  occ. eigenvalues --   -0.72635  -0.72183  -0.71814  -0.71089  -0.71022
 Alpha  occ. eigenvalues --   -0.70354  -0.70043  -0.69250  -0.68721  -0.68289
 Alpha  occ. eigenvalues --   -0.67959  -0.67547  -0.67148  -0.66847  -0.66495
 Alpha  occ. eigenvalues --   -0.65432  -0.65280  -0.63953  -0.63697  -0.63401
 Alpha  occ. eigenvalues --   -0.63248  -0.62896  -0.62311  -0.61310  -0.60518
 Alpha  occ. eigenvalues --   -0.59873  -0.59616  -0.59129  -0.58528  -0.58379
 Alpha  occ. eigenvalues --   -0.58241  -0.57890  -0.57076  -0.56950  -0.56828
 Alpha  occ. eigenvalues --   -0.56452  -0.56017  -0.55653  -0.55461  -0.55208
 Alpha  occ. eigenvalues --   -0.54952  -0.54742  -0.54554  -0.54098  -0.53729
 Alpha  occ. eigenvalues --   -0.53445  -0.53076  -0.52834  -0.52779  -0.52575
 Alpha  occ. eigenvalues --   -0.52160  -0.51953  -0.51852  -0.51504  -0.51128
 Alpha  occ. eigenvalues --   -0.50809  -0.50679  -0.50518  -0.50076  -0.49957
 Alpha  occ. eigenvalues --   -0.49801  -0.49577  -0.49303  -0.49197  -0.49026
 Alpha  occ. eigenvalues --   -0.48916  -0.48658  -0.48228  -0.48101  -0.47993
 Alpha  occ. eigenvalues --   -0.47712  -0.47559  -0.47318  -0.46917  -0.46584
 Alpha  occ. eigenvalues --   -0.46504  -0.46420  -0.46123  -0.45982  -0.45454
 Alpha  occ. eigenvalues --   -0.45384  -0.45091  -0.44925  -0.44627  -0.44461
 Alpha  occ. eigenvalues --   -0.44116  -0.44016  -0.43646  -0.43522  -0.43293
 Alpha  occ. eigenvalues --   -0.43207  -0.43030  -0.42904  -0.42737  -0.42565
 Alpha  occ. eigenvalues --   -0.42253  -0.41421  -0.41272  -0.40784  -0.40725
 Alpha  occ. eigenvalues --   -0.39546  -0.39448  -0.39310  -0.39258  -0.39177
 Alpha  occ. eigenvalues --   -0.37924  -0.37539  -0.37071  -0.36767  -0.36648
 Alpha  occ. eigenvalues --   -0.35769  -0.35347  -0.34916  -0.34744  -0.34232
 Alpha  occ. eigenvalues --   -0.34178  -0.33967  -0.33742  -0.33415  -0.33199
 Alpha  occ. eigenvalues --   -0.32693  -0.31875  -0.31393  -0.30732  -0.29557
 Alpha  occ. eigenvalues --   -0.28219  -0.26695
 Alpha virt. eigenvalues --   -0.11450  -0.10140  -0.09377  -0.09232  -0.08542
 Alpha virt. eigenvalues --   -0.08220  -0.07799  -0.07262  -0.07135  -0.06598
 Alpha virt. eigenvalues --   -0.06236  -0.05870  -0.05127  -0.03256  -0.03041

 Mulliken charges:
               1
     1  N   -0.742459
     2  H    0.427385
     3  H    0.408399
     4  H    0.407048
     5  C   -0.127254
     6  H    0.229551
     7  C    0.646198
     8  C   -0.382956
     9  H    0.166395
    10  H    0.249605
    11  O   -0.555649
    12  C    0.093834
    13  C   -0.182142
    14  H    0.146356
    15  C   -0.242950
    16  H    0.207955
    17  C   -0.122440
    18  H    0.157742
    19  C   -0.152192
    20  H    0.169541
    21  C   -0.127637
    22  H    0.154459
    23  N   -0.629907
    24  H    0.432322
    25  C   -0.061773
    26  H    0.178158
    27  C    0.657322
    28  C   -0.485186
    29  H    0.168242
    30  H    0.191869
    31  H    0.196218
    32  O   -0.544636
    33  N   -0.594243
    34  H    0.346474
    35  C   -0.053525
    36  H    0.178336
    37  C    0.620991
    38  C   -0.474503
    39  H    0.180769
    40  H    0.182264
    41  H    0.161663
    42  O   -0.522324
    43  N   -0.611437
    44  H    0.376520
    45  C   -0.065964
    46  H    0.182952
    47  C    0.645226
    48  C   -0.381501
    49  H    0.201162
    50  H    0.162165
    51  O   -0.557497
    52  C    0.184961
    53  C   -0.252705
    54  H    0.201608
    55  C   -0.221610
    56  H    0.142900
    57  C   -0.150581
    58  H    0.170551
    59  C   -0.170200
    60  H    0.140096
    61  O   -0.678292
    62  H    0.426987
    63  C    0.325613
    64  N   -0.599848
    65  H    0.343469
    66  C   -0.071948
    67  H    0.180473
    68  C    0.618303
    69  C   -0.286830
    70  H    0.154789
    71  H    0.157411
    72  O   -0.550874
    73  C   -0.073219
    74  H    0.121999
    75  C   -0.443307
    76  H    0.149920
    77  H    0.154774
    78  H    0.141329
    79  C   -0.454633
    80  H    0.146934
    81  H    0.147867
    82  H    0.157280
    83  N   -0.576784
    84  H    0.358496
    85  C   -0.067186
    86  H    0.167585
    87  C    0.590692
    88  C   -0.313922
    89  H    0.171111
    90  H    0.203615
    91  O   -0.546785
    92  C   -0.412155
    93  H    0.196091
    94  H    0.203028
    95  C    0.635302
    96  O   -0.518430
    97  O   -0.590268
    98  N   -0.625418
    99  H    0.373653
   100  C   -0.043911
   101  H    0.161754
   102  C    0.579586
   103  C   -0.277374
   104  H    0.186729
   105  H    0.112727
   106  O   -0.614323
   107  C   -0.275837
   108  H    0.170581
   109  H    0.157684
   110  C   -0.173189
   111  H    0.184250
   112  H    0.154998
   113  N   -0.592494
   114  H    0.397266
   115  N   -0.777494
   116  H    0.380265
   117  H    0.364091
   118  N   -0.796705
   119  H    0.376406
   120  H    0.406910
   121  C    0.788525
   122  O   -0.593235
   123  H    0.451996
 Sum of Mulliken charges =   1.00000

 Dipole moment (field-independent basis, Debye):
    X=             -6.2032    Y=              7.3519    Z=              8.7663  Tot=             13.0145
 Quadrupole moment (field-independent basis, Debye-Ang):
   XX=           -274.7668   YY=           -267.3818   ZZ=           -241.6438
   XY=            -56.2673   XZ=            -78.8924   YZ=             94.8967

 Normal termination of Gaussian 16 at Mon Jul 11 14:09:34 2022.
