 Gaussian 16, Revision C.01,
 Gaussian 16:  ES64L-G16RevC.01  3-Jul-2019

 ----------------------------------------------------------------------
 # B3LYP/6-31G* empiricaldispersion=gd3 guess=read geom=check nosymm in
 tegral(ultrafinegrid)
 ----------------------------------------------------------------------

 ------------------------------------------------------
 Candidate Structure: Conf:399 Charge calc in gas phase
 ------------------------------------------------------
 Structure from the checkpoint file:  "conf-399.chk"
 Charge =  1 Multiplicity = 1

                          Input orientation:
 ---------------------------------------------------------------------
 Center     Atomic      Atomic             Coordinates (Angstroms)
 Number     Number       Type             X           Y           Z
 ---------------------------------------------------------------------
      1          7           0      -12.046548    1.947567    5.606355
      2          1           0      -12.649169    2.505517    4.995454
      3          1           0      -12.466651    1.917406    6.548295
      4          1           0      -11.936818    0.991925    5.175077
      5          6           0      -10.626060    2.459695    5.656399
      6          1           0      -10.634351    3.516869    5.383707
      7          6           0       -9.889394    1.578540    4.619036
      8          6           0      -10.048532    2.266920    7.079669
      9          1           0       -9.054099    2.725493    7.085810
     10          1           0       -9.905871    1.194086    7.256192
     11          8           0      -10.447882    0.534377    4.251037
     12          6           0      -10.949079    2.871369    8.133831
     13          6           0      -10.980701    4.258536    8.337119
     14          1           0      -10.295875    4.901027    7.787535
     15          6           0      -11.829323    2.055166    8.862544
     16          1           0      -11.783429    0.972818    8.748873
     17          6           0      -11.869785    4.817087    9.254156
     18          1           0      -11.875753    5.891227    9.413718
     19          6           0      -12.725441    2.617292    9.778256
     20          1           0      -13.391059    1.974098   10.346080
     21          6           0      -12.747161    3.998089    9.972423
     22          1           0      -13.436598    4.436296   10.687554
     23          7           0       -8.687958    1.999026    4.249225
     24          1           0       -8.250277    2.846586    4.621479
     25          6           0       -7.779622    1.254852    3.378352
     26          1           0       -7.706092    0.224529    3.745818
     27          6           0       -6.418656    1.969926    3.550048
     28          6           0       -8.258184    1.249370    1.918869
     29          1           0       -7.569913    0.678098    1.288937
     30          1           0       -8.313900    2.271390    1.531036
     31          1           0       -9.245626    0.784982    1.856441
     32          8           0       -6.349482    3.019678    4.200117
     33          7           0       -5.378683    1.384673    2.946366
     34          1           0       -5.474091    0.550411    2.370070
     35          6           0       -4.043392    1.965940    2.906906
     36          1           0       -4.135040    3.033787    2.674283
     37          6           0       -3.316210    1.244204    1.754853
     38          6           0       -3.304069    1.802543    4.244662
     39          1           0       -2.311956    2.262492    4.200236
     40          1           0       -3.184817    0.741612    4.486720
     41          1           0       -3.878274    2.290117    5.036565
     42          8           0       -3.808119    0.242422    1.226220
     43          7           0       -2.128746    1.766107    1.405271
     44          1           0       -1.756484    2.610972    1.829774
     45          6           0       -1.299840    1.210106    0.348736
     46          1           0       -1.280391    0.120504    0.454520
     47          6           0        0.099230    1.808994    0.541976
     48          6           0       -1.869586    1.572635   -1.053788
     49          1           0       -2.901866    1.205797   -1.065941
     50          1           0       -1.905759    2.665357   -1.126029
     51          8           0        0.243095    2.895524    1.105853
     52          6           0       -1.089100    0.993061   -2.211458
     53          6           0       -0.367836    1.815253   -3.088819
     54          1           0       -0.369537    2.891520   -2.934247
     55          6           0       -1.065780   -0.389694   -2.437061
     56          1           0       -1.629814   -1.052450   -1.783846
     57          6           0        0.337117    1.292537   -4.170625
     58          1           0        0.861805    1.936139   -4.870201
     59          6           0       -0.348771   -0.934562   -3.501988
     60          1           0       -0.346908   -2.010147   -3.667009
     61          8           0        1.035832   -0.569557   -5.460110
     62          1           0        1.009603   -1.538727   -5.469167
     63          6           0        0.343791   -0.089657   -4.373085
     64          7           0        1.113117    1.086064    0.023641
     65          1           0        0.917727    0.242308   -0.504033
     66          6           0        2.460453    1.626854   -0.133408
     67          1           0        2.375179    2.716380   -0.118134
     68          6           0        2.957984    1.113431   -1.486039
     69          6           0        3.403223    1.149673    0.988766
     70          1           0        2.955079    1.440694    1.947168
     71          1           0        3.415031    0.052369    0.958798
     72          8           0        2.849194   -0.087391   -1.766654
     73          6           0        4.842468    1.695825    0.894982
     74          1           0        5.224673    1.514840   -0.119381
     75          6           0        4.898533    3.210561    1.146401
     76          1           0        4.511651    3.456042    2.143467
     77          1           0        5.929267    3.576345    1.084997
     78          1           0        4.308181    3.779095    0.417363
     79          6           0        5.751620    0.947759    1.880551
     80          1           0        5.409492    1.087276    2.914052
     81          1           0        5.762267   -0.129270    1.673560
     82          1           0        6.782803    1.312921    1.817724
     83          7           0        3.502124    2.015464   -2.323643
     84          1           0        3.693575    2.949492   -1.988270
     85          6           0        4.066989    1.594352   -3.597181
     86          1           0        3.282077    1.036606   -4.112799
     87          6           0        5.254051    0.644328   -3.367881
     88          6           0        4.486917    2.829711   -4.424924
     89          1           0        3.704765    3.590927   -4.312270
     90          1           0        5.418732    3.238995   -4.017022
     91          8           0        5.926487    0.749497   -2.313190
     92          6           0        4.658238    2.540038   -5.936297
     93          1           0        5.474215    1.837409   -6.142593
     94          1           0        4.855415    3.484998   -6.449310
     95          6           0        3.334654    1.994672   -6.423405
     96          8           0        2.325490    2.654412   -6.578420
     97          8           0        3.347829    0.645882   -6.516870
     98          7           0        5.488417   -0.219837   -4.350877
     99          1           0        5.003771   -0.088093   -5.241377
    100          6           0        6.713627   -0.997537   -4.507571
    101          1           0        7.446499   -0.593493   -3.806287
    102          6           0        7.293896   -0.799305   -5.964585
    103          6           0        6.490114   -2.502509   -4.234404
    104          1           0        6.195812   -2.989470   -5.168944
    105          1           0        5.638388   -2.617059   -3.552025
    106          8           0        6.663914    0.006947   -6.691283
    107          6           0        7.748224   -3.196851   -3.663785
    108          1           0        8.526715   -2.448522   -3.490483
    109          1           0        8.190790   -3.861524   -4.410367
    110          6           0        7.509393   -4.042289   -2.390166
    111          1           0        8.458910   -4.258342   -1.886550
    112          1           0        7.069405   -5.007113   -2.657266
    113          7           0        6.552823   -3.464275   -1.407393
    114          1           0        5.759393   -4.043007   -1.167572
    115          7           0        7.395593   -1.287303   -1.259472
    116          1           0        7.134138   -0.350493   -1.614687
    117          1           0        8.314469   -1.637214   -1.488445
    118          7           0        5.166438   -1.680672   -0.824123
    119          1           0        5.078494   -0.668190   -0.840949
    120          1           0        4.347469   -2.116223   -1.231309
    121          6           0        6.382064   -2.151651   -1.186563
    122          8           0        8.293979   -1.511530   -6.173624
    123          1           0        2.419517    0.334798   -6.576528
 ---------------------------------------------------------------------

 SCF Done:  E(RB3LYP) =  -2974.17548670     A.U. after    2 cycles

 Alpha  occ. eigenvalues --  -19.26696 -19.24913 -19.22467 -19.22222 -19.20152
 Alpha  occ. eigenvalues --  -19.18740 -19.18700 -19.17385 -19.17060 -19.06275
 Alpha  occ. eigenvalues --  -19.05549 -14.59958 -14.49406 -14.45956 -14.45512
 Alpha  occ. eigenvalues --  -14.44369 -14.43988 -14.43901 -14.43100 -14.42872
 Alpha  occ. eigenvalues --  -14.39412 -10.43572 -10.41194 -10.40986 -10.39197
 Alpha  occ. eigenvalues --  -10.37170 -10.35794 -10.35536 -10.35172 -10.34980
 Alpha  occ. eigenvalues --  -10.34500 -10.33629 -10.32682 -10.32317 -10.31437
 Alpha  occ. eigenvalues --  -10.31149 -10.31066 -10.30864 -10.30772 -10.30650
 Alpha  occ. eigenvalues --  -10.30373 -10.30160 -10.29719 -10.28715 -10.28554
 Alpha  occ. eigenvalues --  -10.26359 -10.25977 -10.25444 -10.25394 -10.25330
 Alpha  occ. eigenvalues --  -10.25072 -10.24976 -10.24577 -10.24451 -10.24321
 Alpha  occ. eigenvalues --  -10.24118 -10.23574 -10.23036 -10.22752 -10.22530
 Alpha  occ. eigenvalues --  -10.22514 -10.22140  -1.19143  -1.14362  -1.13835
 Alpha  occ. eigenvalues --   -1.13497  -1.12438  -1.12074  -1.10983  -1.10325
 Alpha  occ. eigenvalues --   -1.10031  -1.08006  -1.06129  -1.04430  -1.02258
 Alpha  occ. eigenvalues --   -1.00552  -0.99701  -0.99558  -0.99459  -0.99216
 Alpha  occ. eigenvalues --   -0.98154  -0.97650  -0.95841  -0.93712  -0.91618
 Alpha  occ. eigenvalues --   -0.91002  -0.89470  -0.87554  -0.86880  -0.86346
 Alpha  occ. eigenvalues --   -0.85786  -0.85262  -0.84096  -0.84042  -0.81438
 Alpha  occ. eigenvalues --   -0.80823  -0.80079  -0.79251  -0.78720  -0.77311
 Alpha  occ. eigenvalues --   -0.76914  -0.74867  -0.74187  -0.73638  -0.73607
 Alpha  occ. eigenvalues --   -0.73233  -0.73123  -0.72137  -0.71485  -0.70629
 Alpha  occ. eigenvalues --   -0.70426  -0.70244  -0.68742  -0.68461  -0.67883
 Alpha  occ. eigenvalues --   -0.67111  -0.66783  -0.66379  -0.66168  -0.65187
 Alpha  occ. eigenvalues --   -0.64636  -0.64554  -0.63589  -0.63323  -0.62851
 Alpha  occ. eigenvalues --   -0.62137  -0.61841  -0.61392  -0.61329  -0.60695
 Alpha  occ. eigenvalues --   -0.59846  -0.59838  -0.59273  -0.57894  -0.57838
 Alpha  occ. eigenvalues --   -0.57442  -0.57164  -0.57096  -0.56814  -0.56502
 Alpha  occ. eigenvalues --   -0.55876  -0.55311  -0.55197  -0.54471  -0.54177
 Alpha  occ. eigenvalues --   -0.54039  -0.53839  -0.53729  -0.53255  -0.53090
 Alpha  occ. eigenvalues --   -0.52660  -0.52643  -0.52348  -0.52254  -0.51874
 Alpha  occ. eigenvalues --   -0.51855  -0.51349  -0.51230  -0.51054  -0.50660
 Alpha  occ. eigenvalues --   -0.50353  -0.50060  -0.49671  -0.49384  -0.49145
 Alpha  occ. eigenvalues --   -0.49101  -0.48693  -0.48479  -0.48094  -0.47989
 Alpha  occ. eigenvalues --   -0.47936  -0.47610  -0.47449  -0.47283  -0.47135
 Alpha  occ. eigenvalues --   -0.46831  -0.46727  -0.46649  -0.46210  -0.46066
 Alpha  occ. eigenvalues --   -0.45921  -0.45910  -0.45684  -0.45201  -0.44557
 Alpha  occ. eigenvalues --   -0.44518  -0.44315  -0.44100  -0.43735  -0.43508
 Alpha  occ. eigenvalues --   -0.42720  -0.42437  -0.41918  -0.41832  -0.41672
 Alpha  occ. eigenvalues --   -0.41398  -0.41278  -0.40905  -0.40051  -0.39678
 Alpha  occ. eigenvalues --   -0.39384  -0.39330  -0.39293  -0.39071  -0.38787
 Alpha  occ. eigenvalues --   -0.38370  -0.38196  -0.37782  -0.37583  -0.37157
 Alpha  occ. eigenvalues --   -0.36658  -0.36436  -0.36383  -0.36041  -0.35496
 Alpha  occ. eigenvalues --   -0.34950  -0.34833  -0.34408  -0.34094  -0.33634
 Alpha  occ. eigenvalues --   -0.33546  -0.33084  -0.32367  -0.31478  -0.31166
 Alpha  occ. eigenvalues --   -0.31142  -0.30581  -0.29976  -0.27953  -0.21638
 Alpha  occ. eigenvalues --   -0.20882  -0.19943
 Alpha virt. eigenvalues --   -0.13486  -0.12842  -0.11246  -0.10209  -0.07802
 Alpha virt. eigenvalues --   -0.07413  -0.06741  -0.06221  -0.05504  -0.05093
 Alpha virt. eigenvalues --   -0.04822  -0.03727  -0.03001  -0.02884  -0.02822

 Mulliken charges:
               1
     1  N   -0.749571
     2  H    0.416281
     3  H    0.405436
     4  H    0.426148
     5  C   -0.113639
     6  H    0.214090
     7  C    0.658046
     8  C   -0.385087
     9  H    0.210202
    10  H    0.194109
    11  O   -0.542206
    12  C    0.139559
    13  C   -0.181472
    14  H    0.148215
    15  C   -0.232615
    16  H    0.152260
    17  C   -0.122313
    18  H    0.169575
    19  C   -0.119779
    20  H    0.168959
    21  C   -0.123888
    22  H    0.171007
    23  N   -0.613280
    24  H    0.372831
    25  C   -0.051356
    26  H    0.195953
    27  C    0.630057
    28  C   -0.458690
    29  H    0.180580
    30  H    0.170593
    31  H    0.189885
    32  O   -0.550005
    33  N   -0.620839
    34  H    0.365590
    35  C   -0.043705
    36  H    0.185583
    37  C    0.627202
    38  C   -0.450635
    39  H    0.166991
    40  H    0.164486
    41  H    0.184976
    42  O   -0.550125
    43  N   -0.623130
    44  H    0.359087
    45  C   -0.041206
    46  H    0.174360
    47  C    0.617163
    48  C   -0.354309
    49  H    0.184022
    50  H    0.158543
    51  O   -0.546634
    52  C    0.157471
    53  C   -0.203645
    54  H    0.139288
    55  C   -0.215748
    56  H    0.140291
    57  C   -0.177699
    58  H    0.196194
    59  C   -0.177783
    60  H    0.128628
    61  O   -0.670671
    62  H    0.421260
    63  C    0.365102
    64  N   -0.612443
    65  H    0.356118
    66  C   -0.039629
    67  H    0.173056
    68  C    0.631584
    69  C   -0.262072
    70  H    0.155459
    71  H    0.139593
    72  O   -0.586471
    73  C   -0.121373
    74  H    0.163846
    75  C   -0.447321
    76  H    0.151348
    77  H    0.156769
    78  H    0.128578
    79  C   -0.449488
    80  H    0.144907
    81  H    0.140821
    82  H    0.151724
    83  N   -0.601010
    84  H    0.344328
    85  C   -0.048832
    86  H    0.197342
    87  C    0.631921
    88  C   -0.327161
    89  H    0.165500
    90  H    0.171495
    91  O   -0.612618
    92  C   -0.377388
    93  H    0.249562
    94  H    0.178404
    95  C    0.568754
    96  O   -0.470103
    97  O   -0.569748
    98  N   -0.586393
    99  H    0.389218
   100  C   -0.082435
   101  H    0.128852
   102  C    0.568785
   103  C   -0.260169
   104  H    0.173817
   105  H    0.095617
   106  O   -0.585742
   107  C   -0.282054
   108  H    0.157385
   109  H    0.193968
   110  C   -0.171039
   111  H    0.177665
   112  H    0.173072
   113  N   -0.580757
   114  H    0.349168
   115  N   -0.737930
   116  H    0.419405
   117  H    0.363681
   118  N   -0.761702
   119  H    0.408733
   120  H    0.364916
   121  C    0.726118
   122  O   -0.582189
   123  H    0.434570
 Sum of Mulliken charges =   1.00000

 Dipole moment (field-independent basis, Debye):
    X=            -47.2773    Y=              5.0952    Z=             34.8146  Tot=             58.9335
 Quadrupole moment (field-independent basis, Debye-Ang):
   XX=            148.9717   YY=           -295.5329   ZZ=           -292.3965
   XY=           -142.5529   XZ=           -204.2712   YZ=             76.8200

 Normal termination of Gaussian 16 at Mon Jul 11 14:05:58 2022.
