 Gaussian 16, Revision C.01,
 Gaussian 16:  ES64L-G16RevC.01  3-Jul-2019

 ----------------------------------------------------------------------
 # B3LYP/6-31G* empiricaldispersion=gd3 guess=read geom=check nosymm in
 tegral(ultrafinegrid)
 ----------------------------------------------------------------------

 ------------------------------------------------------
 Candidate Structure: Conf:950 Charge calc in gas phase
 ------------------------------------------------------
 Structure from the checkpoint file:  "conf-950.chk"
 Charge =  1 Multiplicity = 1

                          Input orientation:
 ---------------------------------------------------------------------
 Center     Atomic      Atomic             Coordinates (Angstroms)
 Number     Number       Type             X           Y           Z
 ---------------------------------------------------------------------
      1          7           0       -4.613305   -1.723351    7.049457
      2          1           0       -4.366403   -2.320854    6.214998
      3          1           0       -4.745118   -2.280258    7.896571
      4          1           0       -3.844758   -1.047308    7.196872
      5          6           0       -5.853931   -0.990562    6.591189
      6          1           0       -6.714033   -1.561568    6.955188
      7          6           0       -5.790835   -1.165731    5.045917
      8          6           0       -5.887910    0.447707    7.154692
      9          1           0       -6.057256    0.380580    8.236030
     10          1           0       -6.772281    0.949241    6.747905
     11          8           0       -5.011773   -2.020947    4.604595
     12          6           0       -4.627227    1.233790    6.861532
     13          6           0       -3.540692    1.172408    7.752364
     14          1           0       -3.648186    0.656529    8.706950
     15          6           0       -4.505535    1.995963    5.691277
     16          1           0       -5.339029    2.081501    5.000201
     17          6           0       -2.343950    1.835795    7.464922
     18          1           0       -1.516343    1.785998    8.166101
     19          6           0       -3.316870    2.673683    5.419361
     20          1           0       -3.244707    3.279346    4.521683
     21          6           0       -2.230409    2.584388    6.293451
     22          1           0       -1.307048    3.110189    6.070660
     23          7           0       -6.625970   -0.432513    4.310451
     24          1           0       -7.115164    0.358748    4.716024
     25          6           0       -6.581334   -0.404916    2.844276
     26          1           0       -5.790642   -1.092272    2.537319
     27          6           0       -6.241632    1.049357    2.458780
     28          6           0       -7.928015   -0.821659    2.241333
     29          1           0       -7.875441   -0.793529    1.148425
     30          1           0       -8.719461   -0.137325    2.563759
     31          1           0       -8.185867   -1.838320    2.551183
     32          8           0       -6.692112    1.978408    3.136233
     33          7           0       -5.457021    1.172125    1.377433
     34          1           0       -5.196480    0.350696    0.834835
     35          6           0       -5.043669    2.419164    0.737301
     36          1           0       -5.926259    2.915130    0.308766
     37          6           0       -4.137602    1.958135   -0.429785
     38          6           0       -4.348088    3.384971    1.708389
     39          1           0       -4.144055    4.348444    1.229102
     40          1           0       -3.403514    2.960826    2.061493
     41          1           0       -5.004293    3.572572    2.559339
     42          8           0       -4.176962    0.777993   -0.813495
     43          7           0       -3.312570    2.874419   -0.950883
     44          1           0       -3.263561    3.799580   -0.539357
     45          6           0       -2.343184    2.621888   -2.023787
     46          1           0       -2.818001    1.938828   -2.737557
     47          6           0       -1.081183    1.903022   -1.473170
     48          6           0       -1.995710    3.958601   -2.725102
     49          1           0       -1.091789    3.790969   -3.315563
     50          1           0       -2.809175    4.190069   -3.420536
     51          8           0        0.055780    2.354193   -1.621208
     52          6           0       -1.805710    5.118939   -1.765674
     53          6           0       -2.882462    5.973133   -1.468502
     54          1           0       -3.829652    5.839253   -1.987869
     55          6           0       -0.589704    5.342071   -1.103433
     56          1           0        0.251786    4.690568   -1.309833
     57          6           0       -2.764324    7.003759   -0.537754
     58          1           0       -3.593362    7.669970   -0.322002
     59          6           0       -0.454719    6.375966   -0.179436
     60          1           0        0.500652    6.538029    0.316184
     61          8           0       -1.477746    8.229882    1.013480
     62          1           0       -0.566062    8.325753    1.330841
     63          6           0       -1.542076    7.209387    0.111657
     64          7           0       -1.333949    0.743642   -0.822390
     65          1           0       -2.282345    0.375655   -0.842441
     66          6           0       -0.318628    0.035880   -0.044922
     67          1           0        0.400393    0.794002    0.284340
     68          6           0        0.471763   -0.957686   -0.922440
     69          6           0       -0.952003   -0.653778    1.167510
     70          1           0       -1.589434   -1.474580    0.816206
     71          1           0       -0.144012   -1.129144    1.736695
     72          8           0        0.464218   -2.177539   -0.684138
     73          6           0       -1.755976    0.282918    2.089907
     74          1           0       -2.618755    0.658274    1.523785
     75          6           0       -2.308768   -0.498870    3.290360
     76          1           0       -1.490866   -0.877922    3.917438
     77          1           0       -2.939754    0.143872    3.916272
     78          1           0       -2.912414   -1.357112    2.974474
     79          6           0       -0.930977    1.491837    2.554883
     80          1           0        0.005893    1.167740    3.025955
     81          1           0       -0.676552    2.160221    1.725110
     82          1           0       -1.483613    2.078932    3.296725
     83          7           0        1.147834   -0.390074   -1.935929
     84          1           0        1.210707    0.625654   -1.955863
     85          6           0        2.064243   -1.174966   -2.749576
     86          1           0        1.625462   -2.166464   -2.823754
     87          6           0        3.422111   -1.267943   -2.007789
     88          6           0        2.175984   -0.619385   -4.178834
     89          1           0        1.185949   -0.707310   -4.638505
     90          1           0        2.430196    0.446649   -4.140931
     91          8           0        3.969408   -0.276811   -1.532655
     92          6           0        3.239906   -1.335291   -5.046874
     93          1           0        4.228206   -0.902524   -4.874179
     94          1           0        3.001742   -1.182337   -6.106201
     95          6           0        3.341837   -2.832320   -4.769221
     96          8           0        2.365596   -3.530153   -4.498313
     97          8           0        4.592091   -3.259670   -4.748833
     98          7           0        3.863428   -2.538894   -1.918285
     99          1           0        3.348816   -3.246690   -2.422824
    100          6           0        5.113333   -3.024606   -1.337519
    101          1           0        5.953050   -2.562520   -1.875264
    102          6           0        5.143202   -4.561148   -1.638888
    103          6           0        5.253917   -2.693457    0.158045
    104          1           0        5.561924   -1.646553    0.245728
    105          1           0        6.063409   -3.320776    0.541491
    106          8           0        5.492070   -5.330287   -0.713965
    107          6           0        4.006602   -2.860778    1.050230
    108          1           0        3.276014   -2.077397    0.804080
    109          1           0        4.320441   -2.660187    2.082504
    110          6           0        3.281697   -4.223016    1.057888
    111          1           0        2.692476   -4.322148    1.978362
    112          1           0        4.002308   -5.037401    1.015780
    113          7           0        2.353585   -4.313536   -0.076577
    114          1           0        1.805151   -3.469528   -0.248239
    115          7           0        2.948566   -6.392572   -0.988992
    116          1           0        2.844873   -6.956115   -1.824171
    117          1           0        3.945542   -6.296612   -0.720590
    118          7           0        1.311558   -5.059800   -1.998472
    119          1           0        1.656847   -5.215806   -2.943882
    120          1           0        0.786218   -4.192722   -1.929754
    121          6           0        2.239037   -5.250812   -1.011072
    122          8           0        4.697054   -4.931885   -2.770202
    123          1           0        4.657376   -4.065703   -4.127453
 ---------------------------------------------------------------------

 SCF Done:  E(RB3LYP) =  -2974.22494286     A.U. after    3 cycles

 Alpha  occ. eigenvalues --  -19.27919 -19.24885 -19.23213 -19.23210 -19.20821
 Alpha  occ. eigenvalues --  -19.20016 -19.19973 -19.17087 -19.15251 -19.13542
 Alpha  occ. eigenvalues --  -19.12913 -14.60417 -14.51002 -14.47265 -14.46890
 Alpha  occ. eigenvalues --  -14.44228 -14.43369 -14.42725 -14.42092 -14.41113
 Alpha  occ. eigenvalues --  -14.39466 -10.44946 -10.42055 -10.40380 -10.40085
 Alpha  occ. eigenvalues --  -10.38811 -10.37604 -10.36467 -10.35786 -10.35408
 Alpha  occ. eigenvalues --  -10.35294 -10.34828 -10.33173 -10.33023 -10.32439
 Alpha  occ. eigenvalues --  -10.32295 -10.32058 -10.31301 -10.31278 -10.31182
 Alpha  occ. eigenvalues --  -10.30937 -10.30882 -10.30819 -10.29467 -10.28467
 Alpha  occ. eigenvalues --  -10.28092 -10.27955 -10.27774 -10.27394 -10.26776
 Alpha  occ. eigenvalues --  -10.26698 -10.26671 -10.26261 -10.26172 -10.26001
 Alpha  occ. eigenvalues --  -10.25979 -10.25952 -10.25739 -10.24919 -10.24107
 Alpha  occ. eigenvalues --  -10.23819 -10.21634  -1.20415  -1.15514  -1.14845
 Alpha  occ. eigenvalues --   -1.14485  -1.12998  -1.12520  -1.12370  -1.11083
 Alpha  occ. eigenvalues --   -1.07835  -1.07487  -1.07086  -1.06338  -1.03981
 Alpha  occ. eigenvalues --   -1.03548  -1.03477  -1.01090  -0.99175  -0.98572
 Alpha  occ. eigenvalues --   -0.97877  -0.97271  -0.95947  -0.95070  -0.94356
 Alpha  occ. eigenvalues --   -0.92800  -0.90594  -0.89696  -0.88457  -0.87152
 Alpha  occ. eigenvalues --   -0.86723  -0.85782  -0.85492  -0.83605  -0.83340
 Alpha  occ. eigenvalues --   -0.82053  -0.81102  -0.80697  -0.79162  -0.78162
 Alpha  occ. eigenvalues --   -0.77140  -0.77099  -0.76577  -0.75453  -0.74492
 Alpha  occ. eigenvalues --   -0.74143  -0.73267  -0.72704  -0.72252  -0.71959
 Alpha  occ. eigenvalues --   -0.71005  -0.70522  -0.69451  -0.68998  -0.68435
 Alpha  occ. eigenvalues --   -0.68096  -0.67862  -0.67391  -0.66111  -0.65745
 Alpha  occ. eigenvalues --   -0.64917  -0.64790  -0.64672  -0.63774  -0.63414
 Alpha  occ. eigenvalues --   -0.62284  -0.61875  -0.61612  -0.61229  -0.60835
 Alpha  occ. eigenvalues --   -0.60702  -0.60264  -0.59746  -0.59686  -0.58989
 Alpha  occ. eigenvalues --   -0.58514  -0.58324  -0.58032  -0.57498  -0.57125
 Alpha  occ. eigenvalues --   -0.56501  -0.56258  -0.56127  -0.55273  -0.54952
 Alpha  occ. eigenvalues --   -0.54737  -0.54613  -0.54393  -0.54299  -0.54195
 Alpha  occ. eigenvalues --   -0.53841  -0.53531  -0.53267  -0.53110  -0.53035
 Alpha  occ. eigenvalues --   -0.52708  -0.52414  -0.51998  -0.51788  -0.51521
 Alpha  occ. eigenvalues --   -0.50940  -0.50861  -0.50719  -0.50434  -0.50233
 Alpha  occ. eigenvalues --   -0.50180  -0.49592  -0.49479  -0.49337  -0.49106
 Alpha  occ. eigenvalues --   -0.48799  -0.48660  -0.48599  -0.48396  -0.48349
 Alpha  occ. eigenvalues --   -0.47937  -0.47821  -0.47540  -0.47372  -0.47320
 Alpha  occ. eigenvalues --   -0.47172  -0.46932  -0.46584  -0.46448  -0.46311
 Alpha  occ. eigenvalues --   -0.46038  -0.45856  -0.45656  -0.45124  -0.44574
 Alpha  occ. eigenvalues --   -0.44352  -0.44117  -0.43944  -0.43392  -0.42831
 Alpha  occ. eigenvalues --   -0.42459  -0.42349  -0.42195  -0.41923  -0.41409
 Alpha  occ. eigenvalues --   -0.41200  -0.41067  -0.40707  -0.40645  -0.40425
 Alpha  occ. eigenvalues --   -0.40133  -0.40086  -0.39368  -0.38309  -0.38226
 Alpha  occ. eigenvalues --   -0.37949  -0.37647  -0.37560  -0.37441  -0.37142
 Alpha  occ. eigenvalues --   -0.36812  -0.36518  -0.36181  -0.34737  -0.33821
 Alpha  occ. eigenvalues --   -0.33629  -0.33551  -0.32650  -0.32262  -0.32075
 Alpha  occ. eigenvalues --   -0.30700  -0.29293  -0.29202  -0.29159  -0.28658
 Alpha  occ. eigenvalues --   -0.27631  -0.26841
 Alpha virt. eigenvalues --   -0.14079  -0.13393  -0.13286  -0.10035  -0.09818
 Alpha virt. eigenvalues --   -0.09074  -0.07834  -0.07117  -0.06540  -0.05728
 Alpha virt. eigenvalues --   -0.05657  -0.04964  -0.04781  -0.03128  -0.02933

 Mulliken charges:
               1
     1  N   -0.754171
     2  H    0.435208
     3  H    0.412291
     4  H    0.405665
     5  C   -0.117879
     6  H    0.232645
     7  C    0.664902
     8  C   -0.394010
     9  H    0.193406
    10  H    0.202426
    11  O   -0.532814
    12  C    0.144522
    13  C   -0.240779
    14  H    0.143250
    15  C   -0.197920
    16  H    0.187165
    17  C   -0.118682
    18  H    0.167825
    19  C   -0.133868
    20  H    0.166004
    21  C   -0.119373
    22  H    0.168404
    23  N   -0.585812
    24  H    0.363182
    25  C   -0.094080
    26  H    0.203052
    27  C    0.648481
    28  C   -0.448078
    29  H    0.182381
    30  H    0.178520
    31  H    0.180512
    32  O   -0.544548
    33  N   -0.626708
    34  H    0.371714
    35  C   -0.019313
    36  H    0.202280
    37  C    0.626196
    38  C   -0.511452
    39  H    0.175144
    40  H    0.176485
    41  H    0.205657
    42  O   -0.567238
    43  N   -0.614505
    44  H    0.369791
    45  C   -0.074103
    46  H    0.199537
    47  C    0.634126
    48  C   -0.359991
    49  H    0.193135
    50  H    0.163621
    51  O   -0.533475
    52  C    0.102980
    53  C   -0.222717
    54  H    0.137246
    55  C   -0.183784
    56  H    0.182613
    57  C   -0.156846
    58  H    0.153809
    59  C   -0.194686
    60  H    0.135943
    61  O   -0.634547
    62  H    0.414974
    63  C    0.352247
    64  N   -0.620459
    65  H    0.382682
    66  C   -0.083249
    67  H    0.194817
    68  C    0.646165
    69  C   -0.276850
    70  H    0.155104
    71  H    0.154016
    72  O   -0.575917
    73  C   -0.078074
    74  H    0.116064
    75  C   -0.463746
    76  H    0.138646
    77  H    0.127422
    78  H    0.155696
    79  C   -0.467687
    80  H    0.151504
    81  H    0.162454
    82  H    0.134945
    83  N   -0.598349
    84  H    0.378039
    85  C   -0.083055
    86  H    0.176178
    87  C    0.614161
    88  C   -0.270166
    89  H    0.157664
    90  H    0.160602
    91  O   -0.547866
    92  C   -0.362599
    93  H    0.191112
    94  H    0.180785
    95  C    0.585037
    96  O   -0.522490
    97  O   -0.583994
    98  N   -0.640262
    99  H    0.355754
   100  C   -0.018692
   101  H    0.175076
   102  C    0.577954
   103  C   -0.262473
   104  H    0.158638
   105  H    0.169048
   106  O   -0.572493
   107  C   -0.292731
   108  H    0.141104
   109  H    0.143673
   110  C   -0.147409
   111  H    0.148169
   112  H    0.212263
   113  N   -0.591524
   114  H    0.400377
   115  N   -0.722735
   116  H    0.354374
   117  H    0.398626
   118  N   -0.770836
   119  H    0.382160
   120  H    0.368698
   121  C    0.678504
   122  O   -0.626674
   123  H    0.456858
 Sum of Mulliken charges =   1.00000

 Dipole moment (field-independent basis, Debye):
    X=            -28.4311    Y=              3.6580    Z=             28.1409  Tot=             40.1699
 Quadrupole moment (field-independent basis, Debye-Ang):
   XX=           -267.4886   YY=           -340.0365   ZZ=           -154.2552
   XY=             39.8024   XZ=           -110.6975   YZ=            -39.2364

 Normal termination of Gaussian 16 at Mon Jul 11 14:07:31 2022.
