 Gaussian 16, Revision C.01,
 Gaussian 16:  ES64L-G16RevC.01  3-Jul-2019

 -------------------------------------------------------------------
 # B3LYP/6-31G* guess=read geom=check nosymm integral(ultrafinegrid)
 -------------------------------------------------------------------

 ------------------------------------------------------
 Candidate Structure: Conf:472 Charge calc in gas phase
 ------------------------------------------------------
 Structure from the checkpoint file:  "conf-472.chk"
 Charge =  1 Multiplicity = 1

                          Input orientation:
 ---------------------------------------------------------------------
 Center     Atomic      Atomic             Coordinates (Angstroms)
 Number     Number       Type             X           Y           Z
 ---------------------------------------------------------------------
      1          7           0       -0.028807   -1.821301    3.355712
      2          1           0        0.447830   -2.668023    2.882437
      3          1           0        0.653572   -1.043448    3.345572
      4          6           0       -1.337776   -1.532669    2.666949
      5          1           0       -1.695424   -0.573669    3.056056
      6          6           0       -1.048265   -1.459971    1.159353
      7          6           0       -2.220142   -2.689342    3.173514
      8          1           0       -1.984603   -3.595705    2.608041
      9          1           0       -3.281109   -2.467650    3.044507
     10          8           0       -0.439142   -2.377183    0.609793
     11          6           0       -1.814616   -2.844308    4.653597
     12          1           0       -1.839389   -3.875854    5.018589
     13          1           0       -2.445565   -2.253557    5.329774
     14          6           0       -0.402969   -2.310741    4.761042
     15          8           0        0.369821   -2.218795    5.657597
     16          8           0        0.816088   -4.118368    2.270975
     17          7           0       -1.363049   -0.299139    0.552410
     18          1           0       -2.017277    0.331913    0.996086
     19          6           0       -0.857158    0.036773   -0.792464
     20          1           0       -1.131963    1.087950   -0.941593
     21          6           0        0.695176   -0.040734   -0.777002
     22          6           0       -1.476099   -0.797795   -1.931941
     23          1           0       -1.044082   -0.421471   -2.864556
     24          1           0       -1.140671   -1.832201   -1.830385
     25          8           0        1.328778   -0.524714   -1.696151
     26          6           0       -2.986492   -0.712713   -1.952137
     27          6           0       -3.773820   -1.723677   -1.380628
     28          1           0       -3.288951   -2.602957   -0.961087
     29          6           0       -3.644836    0.385752   -2.519918
     30          1           0       -3.066922    1.176946   -2.993861
     31          6           0       -5.163111   -1.644934   -1.365618
     32          1           0       -5.770776   -2.437588   -0.940530
     33          6           0       -5.035639    0.482529   -2.512217
     34          1           0       -5.524844    1.340249   -2.969448
     35          8           0       -7.162976   -0.508962   -1.886850
     36          1           0       -7.491340    0.272296   -2.359327
     37          6           0       -5.802118   -0.535144   -1.931814
     38          7           0        1.278016    0.491106    0.350858
     39          1           0        0.706005    1.034181    0.982764
     40          6           0        2.720173    0.574646    0.510184
     41          1           0        3.149003   -0.128781   -0.209055
     42          6           0        3.189692    0.137342    1.891680
     43          6           0        3.304281    1.986198    0.229184
     44          1           0        2.886364    2.698453    0.955610
     45          1           0        4.381863    1.936808    0.422658
     46          8           0        4.329649   -0.115134    2.175955
     47          6           0        3.049094    2.480772   -1.199246
     48          1           0        1.967514    2.561543   -1.376603
     49          1           0        3.422123    1.732931   -1.910575
     50          6           0        3.705788    3.839545   -1.476452
     51          1           0        3.341951    4.577973   -0.746487
     52          1           0        4.791725    3.760598   -1.320224
     53          6           0        3.435889    4.376271   -2.897920
     54          1           0        2.352107    4.485843   -3.041943
     55          1           0        3.856950    5.385790   -2.975563
     56          7           0        3.953271    3.596302   -4.020079
     57          1           0        3.556784    2.659044   -4.033711
     58          1           0        4.963701    3.489410   -3.947684
     59          8           0        2.204953    0.139960    2.876554
     60          1           0        0.528359   -3.901706    1.361211
     61          1           0        1.714775   -4.480530    2.209094
     62          1           0        2.710976    0.032182    3.708051
 ---------------------------------------------------------------------

 SCF Done:  E(RB3LYP) =  -1526.17560783     A.U. after    3 cycles

 Alpha  occ. eigenvalues --  -19.33450 -19.33342 -19.30447 -19.27857 -19.26634
 Alpha  occ. eigenvalues --  -19.25697 -19.23085 -14.58358 -14.51828 -14.47912
 Alpha  occ. eigenvalues --  -14.37174 -10.48799 -10.45177 -10.44601 -10.41792
 Alpha  occ. eigenvalues --  -10.40567 -10.36492 -10.36247 -10.35882 -10.35397
 Alpha  occ. eigenvalues --  -10.33257 -10.29248 -10.28709 -10.27865 -10.27777
 Alpha  occ. eigenvalues --  -10.27718 -10.27341 -10.27074 -10.27041 -10.26874
 Alpha  occ. eigenvalues --  -10.25487  -1.24819  -1.23175  -1.20031  -1.16145
 Alpha  occ. eigenvalues --   -1.15141  -1.14423  -1.13854  -1.13709  -1.07926
 Alpha  occ. eigenvalues --   -1.04231  -0.96704  -0.94124  -0.94063  -0.91802
 Alpha  occ. eigenvalues --   -0.89963  -0.88122  -0.85048  -0.83219  -0.82810
 Alpha  occ. eigenvalues --   -0.79519  -0.78315  -0.76854  -0.75819  -0.74665
 Alpha  occ. eigenvalues --   -0.73857  -0.72859  -0.70685  -0.70588  -0.69757
 Alpha  occ. eigenvalues --   -0.69014  -0.68294  -0.67036  -0.65936  -0.64647
 Alpha  occ. eigenvalues --   -0.64326  -0.63444  -0.62675  -0.61805  -0.61451
 Alpha  occ. eigenvalues --   -0.61160  -0.60279  -0.59003  -0.58387  -0.57558
 Alpha  occ. eigenvalues --   -0.57373  -0.56951  -0.56006  -0.55821  -0.55602
 Alpha  occ. eigenvalues --   -0.55407  -0.55143  -0.54693  -0.53527  -0.53049
 Alpha  occ. eigenvalues --   -0.52635  -0.52396  -0.51655  -0.51435  -0.50768
 Alpha  occ. eigenvalues --   -0.50620  -0.50497  -0.49287  -0.48657  -0.48501
 Alpha  occ. eigenvalues --   -0.48204  -0.47652  -0.46551  -0.46423  -0.45575
 Alpha  occ. eigenvalues --   -0.44946  -0.44730  -0.44106  -0.43812  -0.42979
 Alpha  occ. eigenvalues --   -0.42153  -0.41738  -0.41256  -0.41138  -0.40988
 Alpha  occ. eigenvalues --   -0.40685  -0.40247  -0.37049  -0.35969  -0.33715
 Alpha  occ. eigenvalues --   -0.30119  -0.29130
 Alpha virt. eigenvalues --   -0.19209  -0.15061  -0.11943  -0.10252  -0.09017
 Alpha virt. eigenvalues --   -0.08488  -0.07458  -0.06832  -0.06001  -0.04239
 Alpha virt. eigenvalues --   -0.03228  -0.02186  -0.01335  -0.00508  -0.00305

 Mulliken charges:
               1
     1  N   -0.733829
     2  H    0.449849
     3  H    0.423133
     4  C   -0.107088
     5  H    0.192377
     6  C    0.672914
     7  C   -0.298884
     8  H    0.215839
     9  H    0.211266
    10  O   -0.536327
    11  C   -0.379839
    12  H    0.248495
    13  H    0.234957
    14  C    0.577287
    15  O   -0.347228
    16  O   -0.798949
    17  N   -0.618539
    18  H    0.355855
    19  C   -0.071608
    20  H    0.185233
    21  C    0.638472
    22  C   -0.358198
    23  H    0.188803
    24  H    0.190802
    25  O   -0.486648
    26  C    0.158093
    27  C   -0.207461
    28  H    0.125923
    29  C   -0.199139
    30  H    0.136152
    31  C   -0.160105
    32  H    0.150572
    33  C   -0.190232
    34  H    0.139043
    35  O   -0.631605
    36  H    0.417283
    37  C    0.354450
    38  N   -0.617595
    39  H    0.322172
    40  C   -0.060889
    41  H    0.225271
    42  C    0.594775
    43  C   -0.274389
    44  H    0.139482
    45  H    0.184302
    46  O   -0.413675
    47  C   -0.258722
    48  H    0.125160
    49  H    0.150547
    50  C   -0.265139
    51  H    0.130035
    52  H    0.137668
    53  C   -0.144076
    54  H    0.137319
    55  H    0.156378
    56  N   -0.702297
    57  H    0.299382
    58  H    0.299656
    59  O   -0.627014
    60  H    0.454257
    61  H    0.437226
    62  H    0.429050
 Sum of Mulliken charges =   1.00000

 Dipole moment (field-independent basis, Debye):
    X=             -4.9975    Y=             -3.4294    Z=             12.1869  Tot=             13.6109
 Quadrupole moment (field-independent basis, Debye-Ang):
   XX=           -144.3925   YY=           -149.2587   ZZ=           -146.0896
   XY=             -1.6848   XZ=             -2.5664   YZ=            -23.6581

 Normal termination of Gaussian 16 at Tue May 24 03:30:41 2022.
