 Gaussian 16, Revision C.01,
 Gaussian 16:  ES64L-G16RevC.01  3-Jul-2019

 -------------------------------------------------------------------
 # B3LYP/6-31G* guess=read geom=check nosymm integral(ultrafinegrid)
 -------------------------------------------------------------------

 ----------------------------------------------------
 Candidate Structure: Conf:3 Charge calc in gas phase
 ----------------------------------------------------
 Structure from the checkpoint file:  "conf-3.chk"
 Charge =  1 Multiplicity = 1

                          Input orientation:
 ---------------------------------------------------------------------
 Center     Atomic      Atomic             Coordinates (Angstroms)
 Number     Number       Type             X           Y           Z
 ---------------------------------------------------------------------
      1          7           0       -2.124703   -0.935820    4.488870
      2          1           0       -2.902305   -1.518675    4.785903
      3          1           0       -1.558864   -0.699661    5.303899
      4          6           0       -1.319422   -1.570930    3.432283
      5          1           0       -1.861441   -2.447773    3.058983
      6          6           0       -1.324800   -0.544054    2.280484
      7          6           0        0.098975   -2.045546    3.848501
      8          1           0        0.444437   -2.767294    3.098803
      9          1           0       -0.018656   -2.616792    4.774690
     10          8           0       -2.065752    0.496505    2.470265
     11          6           0        1.218640   -0.997667    4.001475
     12          1           0        1.429638   -0.479289    3.062638
     13          1           0        2.142205   -1.544632    4.237552
     14          6           0        1.105346    0.062560    5.077480
     15          8           0        1.682043    1.128027    5.056751
     16          8           0        0.323854   -0.306342    6.125667
     17          7           0       -0.633075   -0.697427    1.189854
     18          1           0        0.057361   -1.449308    1.136294
     19          6           0       -0.406173    0.311312    0.136397
     20          1           0       -0.877849    1.240894    0.460967
     21          6           0        1.135328    0.419437    0.109192
     22          6           0       -0.993277   -0.152152   -1.220298
     23          1           0       -0.745526    0.624490   -1.953947
     24          1           0       -0.458022   -1.056886   -1.531503
     25          8           0        1.796009   -0.590578    0.362639
     26          6           0       -2.484496   -0.399128   -1.173139
     27          6           0       -2.994879   -1.695594   -1.007999
     28          1           0       -2.310648   -2.540322   -0.958893
     29          6           0       -3.396440    0.658966   -1.273856
     30          1           0       -3.035234    1.674728   -1.421909
     31          6           0       -4.363686   -1.933196   -0.937168
     32          1           0       -4.757935   -2.938507   -0.828863
     33          6           0       -4.770478    0.438947   -1.205018
     34          1           0       -5.461114    1.274630   -1.295907
     35          8           0       -6.586934   -1.152592   -0.956531
     36          1           0       -7.110331   -0.347443   -1.095948
     37          6           0       -5.260689   -0.861834   -1.034085
     38          7           0        1.666265    1.625618   -0.166553
     39          1           0        1.044239    2.424686   -0.190619
     40          6           0        3.071406    1.900851    0.147914
     41          1           0        3.667833    1.079624   -0.257890
     42          6           0        3.323184    1.897492    1.665550
     43          6           0        3.538806    3.226576   -0.477659
     44          1           0        2.920843    4.049706   -0.086637
     45          1           0        4.554947    3.405450   -0.109764
     46          8           0        4.428234    1.886618    2.148821
     47          6           0        3.526647    3.220673   -2.011027
     48          1           0        2.504016    3.055470   -2.379901
     49          1           0        4.125713    2.383251   -2.386192
     50          6           0        4.073594    4.522179   -2.610461
     51          1           0        3.452346    5.374491   -2.301425
     52          1           0        5.078684    4.715250   -2.206380
     53          6           0        4.148112    4.496216   -4.142414
     54          1           0        3.147250    4.300467   -4.549415
     55          1           0        4.440517    5.499267   -4.498899
     56          7           0        5.031051    3.418114   -4.603930
     57          1           0        6.000646    3.659283   -4.399882
     58          1           0        4.972713    3.330994   -5.616881
     59          8           0        2.177549    1.928162    2.388247
     60          1           0       -2.435114    0.315085    3.421260
     61          1           0        0.393403    0.401374    6.798049
     62          1           0        2.397923    1.874365    3.344999
 ---------------------------------------------------------------------

 SCF Done:  E(RB3LYP) =  -1526.20407491     A.U. after    2 cycles

 Alpha  occ. eigenvalues --  -19.35527 -19.33720 -19.28231 -19.27810 -19.26624
 Alpha  occ. eigenvalues --  -19.24453 -19.22406 -14.54638 -14.49828 -14.48261
 Alpha  occ. eigenvalues --  -14.37115 -10.48141 -10.46054 -10.41505 -10.40714
 Alpha  occ. eigenvalues --  -10.40518 -10.37846 -10.35005 -10.34302 -10.33804
 Alpha  occ. eigenvalues --  -10.33513 -10.31509 -10.29197 -10.28969 -10.28887
 Alpha  occ. eigenvalues --  -10.28346 -10.27833 -10.27829 -10.26884 -10.25474
 Alpha  occ. eigenvalues --  -10.24879  -1.26661  -1.24292  -1.18981  -1.16637
 Alpha  occ. eigenvalues --   -1.15247  -1.14828  -1.11599  -1.10192  -1.06431
 Alpha  occ. eigenvalues --   -1.04709  -0.95662  -0.94298  -0.93898  -0.92173
 Alpha  occ. eigenvalues --   -0.88772  -0.87325  -0.84660  -0.84300  -0.83108
 Alpha  occ. eigenvalues --   -0.80368  -0.78906  -0.77322  -0.76695  -0.74343
 Alpha  occ. eigenvalues --   -0.72272  -0.71759  -0.70452  -0.69825  -0.69205
 Alpha  occ. eigenvalues --   -0.68879  -0.68541  -0.66053  -0.65006  -0.64698
 Alpha  occ. eigenvalues --   -0.63726  -0.62746  -0.62192  -0.61423  -0.60918
 Alpha  occ. eigenvalues --   -0.60297  -0.60102  -0.59214  -0.58180  -0.57403
 Alpha  occ. eigenvalues --   -0.56743  -0.56151  -0.55857  -0.54998  -0.54872
 Alpha  occ. eigenvalues --   -0.54761  -0.53897  -0.53549  -0.53218  -0.53042
 Alpha  occ. eigenvalues --   -0.52549  -0.52072  -0.51690  -0.50987  -0.50230
 Alpha  occ. eigenvalues --   -0.49942  -0.49640  -0.49173  -0.49078  -0.48265
 Alpha  occ. eigenvalues --   -0.47854  -0.47529  -0.46967  -0.45818  -0.45565
 Alpha  occ. eigenvalues --   -0.44798  -0.44320  -0.43713  -0.43219  -0.43073
 Alpha  occ. eigenvalues --   -0.42238  -0.41335  -0.41138  -0.40405  -0.40245
 Alpha  occ. eigenvalues --   -0.39857  -0.39381  -0.38187  -0.34898  -0.34747
 Alpha  occ. eigenvalues --   -0.31221  -0.29359
 Alpha virt. eigenvalues --   -0.17234  -0.12843  -0.11029  -0.09788  -0.08559
 Alpha virt. eigenvalues --   -0.07994  -0.07662  -0.05093  -0.04808  -0.03933
 Alpha virt. eigenvalues --   -0.01414  -0.01262  -0.00754  -0.00224   0.00217

 Mulliken charges:
               1
     1  N   -0.821121
     2  H    0.366413
     3  H    0.382873
     4  C   -0.071274
     5  H    0.223738
     6  C    0.646931
     7  C   -0.312850
     8  H    0.187366
     9  H    0.204599
    10  O   -0.534047
    11  C   -0.397698
    12  H    0.211408
    13  H    0.233392
    14  C    0.601938
    15  O   -0.448553
    16  O   -0.573366
    17  N   -0.549617
    18  H    0.387925
    19  C   -0.103277
    20  H    0.199560
    21  C    0.665284
    22  C   -0.372897
    23  H    0.184827
    24  H    0.182528
    25  O   -0.540650
    26  C    0.171276
    27  C   -0.205021
    28  H    0.129183
    29  C   -0.187515
    30  H    0.133503
    31  C   -0.160401
    32  H    0.158976
    33  C   -0.189236
    34  H    0.142230
    35  O   -0.627840
    36  H    0.419017
    37  C    0.355586
    38  N   -0.590808
    39  H    0.343303
    40  C   -0.049712
    41  H    0.216889
    42  C    0.596794
    43  C   -0.305872
    44  H    0.138774
    45  H    0.189705
    46  O   -0.443184
    47  C   -0.250262
    48  H    0.120368
    49  H    0.177720
    50  C   -0.258860
    51  H    0.132411
    52  H    0.138528
    53  C   -0.140398
    54  H    0.136740
    55  H    0.129550
    56  N   -0.718021
    57  H    0.299921
    58  H    0.306625
    59  O   -0.616429
    60  H    0.469746
    61  H    0.438836
    62  H    0.444445
 Sum of Mulliken charges =   1.00000

 Dipole moment (field-independent basis, Debye):
    X=             -6.2287    Y=              0.5864    Z=              9.9817  Tot=             11.7803
 Quadrupole moment (field-independent basis, Debye-Ang):
   XX=           -147.8305   YY=           -150.2592   ZZ=            -97.6746
   XY=              9.3019   XZ=            -27.9236   YZ=            -33.3278

 Normal termination of Gaussian 16 at Tue May 24 03:30:54 2022.
