 Gaussian 16, Revision C.01,
 Gaussian 16:  ES64L-G16RevC.01  3-Jul-2019

 -------------------------------------------------------------------
 # B3LYP/6-31G* guess=read geom=check nosymm integral(ultrafinegrid)
 -------------------------------------------------------------------

 ------------------------------------------------------
 Candidate Structure: Conf:156 Charge calc in gas phase
 ------------------------------------------------------
 Structure from the checkpoint file:  "conf-156.chk"
 Charge =  1 Multiplicity = 1

                          Input orientation:
 ---------------------------------------------------------------------
 Center     Atomic      Atomic             Coordinates (Angstroms)
 Number     Number       Type             X           Y           Z
 ---------------------------------------------------------------------
      1          7           0        0.164064   -1.849508    3.907626
      2          1           0        0.563636   -2.374501    3.134587
      3          1           0        0.864464   -1.219965    4.286337
      4          6           0       -1.087686   -1.197576    3.581533
      5          1           0       -1.300195   -0.484215    4.389400
      6          6           0       -1.155018   -0.371252    2.269473
      7          6           0       -2.201413   -2.279736    3.609149
      8          1           0       -2.117928   -2.833634    4.545986
      9          1           0       -2.041787   -2.984291    2.784723
     10          8           0       -2.255161    0.019863    1.816478
     11          6           0       -3.605648   -1.612341    3.482112
     12          1           0       -3.465630   -0.827136    2.666191
     13          1           0       -3.955331   -1.096929    4.381420
     14          6           0       -4.607982   -2.509411    3.047474
     15          8           0       -5.220666   -3.348380    2.585407
     16          8           0       -6.340885   -0.965183    3.688732
     17          7           0        0.006792   -0.088181    1.686542
     18          1           0        0.896513   -0.346186    2.113794
     19          6           0        0.166543    0.770806    0.518344
     20          1           0       -0.480733    1.646526    0.635894
     21          6           0        1.652443    1.195263    0.558326
     22          6           0       -0.226858    0.031542   -0.794588
     23          1           0        0.521040   -0.743005   -0.999798
     24          1           0       -1.173241   -0.479322   -0.584727
     25          8           0        2.436223    0.619385    1.320973
     26          6           0       -0.396018    0.942638   -1.991341
     27          6           0       -1.466702    1.851883   -2.047145
     28          1           0       -2.179031    1.892041   -1.225192
     29          6           0        0.485659    0.901376   -3.077587
     30          1           0        1.318094    0.201637   -3.069060
     31          6           0       -1.648072    2.693636   -3.137717
     32          1           0       -2.476131    3.393681   -3.180047
     33          6           0        0.314441    1.735947   -4.182323
     34          1           0        1.008828    1.681947   -5.018267
     35          8           0       -0.984006    3.482515   -5.257534
     36          1           0       -0.302792    3.356875   -5.936814
     37          6           0       -0.753554    2.638741   -4.215211
     38          7           0        2.010342    2.197073   -0.261930
     39          1           0        1.340122    2.627162   -0.891626
     40          6           0        3.378633    2.704052   -0.327703
     41          1           0        3.786446    2.733413    0.687284
     42          6           0        3.275492    4.122459   -0.874052
     43          6           0        4.283819    1.798757   -1.205694
     44          1           0        4.118166    0.775868   -0.848683
     45          1           0        3.920311    1.841128   -2.241126
     46          8           0        2.336291    4.530739   -1.523694
     47          6           0        5.783488    2.114660   -1.144902
     48          1           0        6.112109    2.103114   -0.095438
     49          1           0        5.969379    3.129734   -1.514056
     50          6           0        6.622589    1.112459   -1.949088
     51          1           0        6.431570    0.095229   -1.576443
     52          1           0        6.297174    1.121617   -3.000802
     53          6           0        8.140015    1.381742   -1.890153
     54          1           0        8.474684    1.339894   -0.845053
     55          1           0        8.661179    0.568908   -2.410653
     56          7           0        8.618866    2.643730   -2.454812
     57          1           0        8.222249    3.438226   -1.957280
     58          1           0        8.327899    2.731247   -3.427498
     59          8           0        4.353500    4.867863   -0.573570
     60          1           0       -6.568266   -0.186486    3.154922
     61          1           0       -7.195383   -1.358110    3.931222
     62          1           0        4.218896    5.743359   -0.986317
 ---------------------------------------------------------------------

 SCF Done:  E(RB3LYP) =  -1526.13260337     A.U. after    1 cycles

 Alpha  occ. eigenvalues --  -19.44130 -19.31082 -19.28381 -19.24971 -19.24876
 Alpha  occ. eigenvalues --  -19.22760 -19.21535 -14.47722 -14.45313 -14.44571
 Alpha  occ. eigenvalues --  -14.36037 -10.54330 -10.41247 -10.40774 -10.39086
 Alpha  occ. eigenvalues --  -10.38609 -10.36692 -10.35615 -10.33878 -10.32442
 Alpha  occ. eigenvalues --  -10.32430 -10.28784 -10.27218 -10.27043 -10.26915
 Alpha  occ. eigenvalues --  -10.26724 -10.26487 -10.26020 -10.25635 -10.24953
 Alpha  occ. eigenvalues --  -10.23929  -1.34584  -1.19377  -1.16481  -1.16059
 Alpha  occ. eigenvalues --   -1.13412  -1.13057  -1.10426  -1.04662  -1.02137
 Alpha  occ. eigenvalues --   -1.01900  -0.98720  -0.93289  -0.92816  -0.88967
 Alpha  occ. eigenvalues --   -0.87352  -0.86714  -0.82915  -0.82424  -0.81650
 Alpha  occ. eigenvalues --   -0.77396  -0.76094  -0.74888  -0.73483  -0.71618
 Alpha  occ. eigenvalues --   -0.70518  -0.69636  -0.68879  -0.68529  -0.68182
 Alpha  occ. eigenvalues --   -0.67385  -0.66693  -0.66537  -0.66210  -0.65362
 Alpha  occ. eigenvalues --   -0.63995  -0.62647  -0.61925  -0.61261  -0.60048
 Alpha  occ. eigenvalues --   -0.58855  -0.57438  -0.56831  -0.56521  -0.55879
 Alpha  occ. eigenvalues --   -0.55360  -0.54879  -0.54687  -0.54352  -0.54071
 Alpha  occ. eigenvalues --   -0.53558  -0.52958  -0.52573  -0.52274  -0.52067
 Alpha  occ. eigenvalues --   -0.51322  -0.50820  -0.49862  -0.49538  -0.49248
 Alpha  occ. eigenvalues --   -0.48601  -0.48498  -0.47857  -0.47480  -0.46974
 Alpha  occ. eigenvalues --   -0.46523  -0.46272  -0.45152  -0.44620  -0.44350
 Alpha  occ. eigenvalues --   -0.43676  -0.41909  -0.41303  -0.41130  -0.40818
 Alpha  occ. eigenvalues --   -0.40598  -0.40302  -0.39078  -0.38624  -0.37857
 Alpha  occ. eigenvalues --   -0.36623  -0.35535  -0.35307  -0.34557  -0.32820
 Alpha  occ. eigenvalues --   -0.29293  -0.27978
 Alpha virt. eigenvalues --   -0.21349  -0.20830  -0.10600  -0.08455  -0.08112
 Alpha virt. eigenvalues --   -0.07913  -0.07161  -0.06344  -0.04427  -0.03885
 Alpha virt. eigenvalues --   -0.01451  -0.00401   0.00319   0.00661   0.01125

 Mulliken charges:
               1
     1  N   -0.724924
     2  H    0.326393
     3  H    0.343569
     4  C   -0.078119
     5  H    0.193448
     6  C    0.632222
     7  C   -0.281883
     8  H    0.219598
     9  H    0.186292
    10  O   -0.562100
    11  C   -0.435291
    12  H    0.334175
    13  H    0.277758
    14  C    0.627053
    15  O   -0.208685
    16  O   -0.786064
    17  N   -0.601346
    18  H    0.354569
    19  C   -0.052603
    20  H    0.191551
    21  C    0.626031
    22  C   -0.351436
    23  H    0.159517
    24  H    0.173033
    25  O   -0.548952
    26  C    0.134679
    27  C   -0.196692
    28  H    0.136061
    29  C   -0.194953
    30  H    0.136984
    31  C   -0.150701
    32  H    0.155146
    33  C   -0.187119
    34  H    0.135248
    35  O   -0.629667
    36  H    0.416175
    37  C    0.359777
    38  N   -0.621498
    39  H    0.371089
    40  C   -0.029667
    41  H    0.197768
    42  C    0.581849
    43  C   -0.272377
    44  H    0.169181
    45  H    0.146806
    46  O   -0.460611
    47  C   -0.264553
    48  H    0.143406
    49  H    0.138987
    50  C   -0.263241
    51  H    0.130819
    52  H    0.124745
    53  C   -0.145624
    54  H    0.144826
    55  H    0.150273
    56  N   -0.702019
    57  H    0.297631
    58  H    0.293753
    59  O   -0.554024
    60  H    0.434013
    61  H    0.434534
    62  H    0.425193
 Sum of Mulliken charges =   1.00000

 Dipole moment (field-independent basis, Debye):
    X=            -12.5275    Y=             -2.9526    Z=              9.2146  Tot=             15.8292
 Quadrupole moment (field-independent basis, Debye-Ang):
   XX=            -94.2146   YY=           -148.5764   ZZ=           -114.5097
   XY=             37.7301   XZ=            -66.2886   YZ=            -27.7055

 Normal termination of Gaussian 16 at Tue May 24 03:30:32 2022.
