 Gaussian 16, Revision C.01,
 Gaussian 16:  ES64L-G16RevC.01  3-Jul-2019

 -------------------------------------------------------------------
 # B3LYP/6-31G* guess=read geom=check nosymm integral(ultrafinegrid)
 -------------------------------------------------------------------

 ------------------------------------------------------
 Candidate Structure: Conf:217 Charge calc in gas phase
 ------------------------------------------------------
 Structure from the checkpoint file:  "conf-217.chk"
 Charge =  1 Multiplicity = 1

                          Input orientation:
 ---------------------------------------------------------------------
 Center     Atomic      Atomic             Coordinates (Angstroms)
 Number     Number       Type             X           Y           Z
 ---------------------------------------------------------------------
      1          7           0       -2.898704    0.167090    4.022729
      2          1           0       -2.038616    0.685836    4.178015
      3          1           0       -3.677279    0.809097    3.911469
      4          6           0       -2.822145   -0.832531    2.977393
      5          1           0       -3.755435   -1.406389    2.986820
      6          6           0       -2.618555   -0.399244    1.508202
      7          6           0       -1.646399   -1.781810    3.343560
      8          1           0       -1.819818   -2.185771    4.343430
      9          1           0       -0.725982   -1.190409    3.368148
     10          8           0       -2.910273   -1.194891    0.608829
     11          6           0       -1.505784   -2.952714    2.320701
     12          1           0       -2.009253   -2.666718    1.369555
     13          1           0       -1.932630   -3.905095    2.655541
     14          6           0       -0.144705   -3.216032    1.984739
     15          8           0        0.966769   -3.369096    1.843422
     16          8           0       -0.934127   -5.207779    0.700604
     17          7           0       -2.042886    0.812030    1.303524
     18          1           0       -1.830502    1.330669    2.146930
     19          6           0       -1.191334    1.110967    0.152584
     20          1           0       -0.884914    2.154569    0.278609
     21          6           0        0.088221    0.235183    0.251032
     22          6           0       -1.938930    0.999304   -1.204273
     23          1           0       -2.198153   -0.045509   -1.381722
     24          1           0       -2.885314    1.538551   -1.073270
     25          8           0        0.110604   -0.842301    0.859262
     26          6           0       -1.167485    1.565910   -2.378748
     27          6           0       -0.832864    2.929541   -2.450141
     28          1           0       -1.143422    3.607211   -1.656713
     29          6           0       -0.790362    0.746222   -3.448232
     30          1           0       -1.046409   -0.310246   -3.429580
     31          6           0       -0.135180    3.453071   -3.535447
     32          1           0        0.109024    4.509147   -3.593327
     33          6           0       -0.100182    1.254790   -4.549061
     34          1           0        0.176017    0.596826   -5.370526
     35          8           0        0.929703    3.173720   -5.624386
     36          1           0        1.050974    2.521024   -6.332431
     37          6           0        0.235660    2.611370   -4.593011
     38          7           0        1.188972    0.743336   -0.337224
     39          1           0        1.126177    1.639742   -0.802231
     40          6           0        2.504494    0.147721   -0.154911
     41          1           0        2.471699   -0.901323   -0.468264
     42          6           0        2.876821    0.173539    1.333842
     43          6           0        3.572599    0.896382   -0.979153
     44          1           0        3.600491    1.941767   -0.643218
     45          1           0        4.545606    0.463934   -0.722008
     46          8           0        2.362423    0.865744    2.180954
     47          6           0        3.358349    0.812448   -2.498178
     48          1           0        2.398310    1.267020   -2.774574
     49          1           0        3.281519   -0.245398   -2.783927
     50          6           0        4.483549    1.470736   -3.315352
     51          1           0        5.439670    0.983092   -3.075423
     52          1           0        4.296385    1.268972   -4.379383
     53          6           0        4.642150    2.995093   -3.123037
     54          1           0        4.933413    3.214460   -2.087531
     55          1           0        5.481675    3.332286   -3.742651
     56          7           0        3.490363    3.836787   -3.444561
     57          1           0        2.688792    3.601571   -2.863306
     58          1           0        3.188421    3.696981   -4.407722
     59          8           0        3.901541   -0.671722    1.576778
     60          1           0       -1.545639   -5.222881   -0.052419
     61          1           0       -0.302721   -5.922361    0.521471
     62          1           0        4.148197   -0.559875    2.514742
 ---------------------------------------------------------------------

 SCF Done:  E(RB3LYP) =  -1526.12859171     A.U. after    1 cycles

 Alpha  occ. eigenvalues --  -19.43626 -19.29506 -19.29442 -19.26674 -19.23903
 Alpha  occ. eigenvalues --  -19.23760 -19.23666 -14.47972 -14.47537 -14.44249
 Alpha  occ. eigenvalues --  -14.37249 -10.53949 -10.41810 -10.40628 -10.40430
 Alpha  occ. eigenvalues --  -10.38856 -10.35454 -10.35410 -10.34903 -10.34320
 Alpha  occ. eigenvalues --  -10.34018 -10.29168 -10.28882 -10.28575 -10.28444
 Alpha  occ. eigenvalues --  -10.28366 -10.28039 -10.27622 -10.27069 -10.27048
 Alpha  occ. eigenvalues --  -10.25446  -1.34206  -1.20354  -1.15952  -1.15033
 Alpha  occ. eigenvalues --   -1.14758  -1.14701  -1.11387  -1.04720  -1.04048
 Alpha  occ. eigenvalues --   -1.01649  -0.98124  -0.94670  -0.94158  -0.90448
 Alpha  occ. eigenvalues --   -0.88370  -0.86370  -0.84358  -0.83912  -0.82633
 Alpha  occ. eigenvalues --   -0.77430  -0.77284  -0.75773  -0.72904  -0.72785
 Alpha  occ. eigenvalues --   -0.71435  -0.71209  -0.69515  -0.69207  -0.67798
 Alpha  occ. eigenvalues --   -0.67493  -0.67203  -0.66850  -0.65548  -0.65033
 Alpha  occ. eigenvalues --   -0.64624  -0.63480  -0.62066  -0.61688  -0.60772
 Alpha  occ. eigenvalues --   -0.60655  -0.58826  -0.57978  -0.57155  -0.56960
 Alpha  occ. eigenvalues --   -0.56062  -0.55879  -0.55519  -0.54625  -0.54383
 Alpha  occ. eigenvalues --   -0.53939  -0.53626  -0.53300  -0.52658  -0.52297
 Alpha  occ. eigenvalues --   -0.52050  -0.51272  -0.50948  -0.50593  -0.50366
 Alpha  occ. eigenvalues --   -0.49794  -0.49759  -0.49256  -0.48461  -0.47744
 Alpha  occ. eigenvalues --   -0.47163  -0.46469  -0.46270  -0.45786  -0.44796
 Alpha  occ. eigenvalues --   -0.44754  -0.44546  -0.42711  -0.42368  -0.41840
 Alpha  occ. eigenvalues --   -0.41547  -0.40929  -0.40100  -0.39741  -0.39153
 Alpha  occ. eigenvalues --   -0.38158  -0.36980  -0.36252  -0.34449  -0.34133
 Alpha  occ. eigenvalues --   -0.30918  -0.29273
 Alpha virt. eigenvalues --   -0.20109  -0.19750  -0.11401  -0.09793  -0.09065
 Alpha virt. eigenvalues --   -0.08687  -0.08082  -0.07559  -0.05461  -0.03634
 Alpha virt. eigenvalues --   -0.02985  -0.01786  -0.01734  -0.01311  -0.00399

 Mulliken charges:
               1
     1  N   -0.723443
     2  H    0.316738
     3  H    0.338065
     4  C   -0.070496
     5  H    0.192464
     6  C    0.621158
     7  C   -0.299480
     8  H    0.217685
     9  H    0.197951
    10  O   -0.526983
    11  C   -0.400436
    12  H    0.317057
    13  H    0.275239
    14  C    0.667544
    15  O   -0.203924
    16  O   -0.796764
    17  N   -0.580182
    18  H    0.326492
    19  C   -0.092037
    20  H    0.171703
    21  C    0.666726
    22  C   -0.352598
    23  H    0.194274
    24  H    0.181287
    25  O   -0.587887
    26  C    0.155751
    27  C   -0.220916
    28  H    0.140561
    29  C   -0.190197
    30  H    0.137981
    31  C   -0.168070
    32  H    0.173185
    33  C   -0.186781
    34  H    0.139329
    35  O   -0.633719
    36  H    0.419025
    37  C    0.353210
    38  N   -0.594258
    39  H    0.354112
    40  C   -0.013603
    41  H    0.182249
    42  C    0.590406
    43  C   -0.316336
    44  H    0.160138
    45  H    0.181818
    46  O   -0.467949
    47  C   -0.273732
    48  H    0.138765
    49  H    0.140077
    50  C   -0.263609
    51  H    0.137588
    52  H    0.132227
    53  C   -0.151865
    54  H    0.142367
    55  H    0.158096
    56  N   -0.715061
    57  H    0.285740
    58  H    0.308502
    59  O   -0.564998
    60  H    0.428980
    61  H    0.428383
    62  H    0.422453
 Sum of Mulliken charges =   1.00000

 Dipole moment (field-independent basis, Debye):
    X=             -1.2135    Y=             -9.2158    Z=              2.9297  Tot=              9.7461
 Quadrupole moment (field-independent basis, Debye-Ang):
   XX=           -158.7088   YY=           -128.8079   ZZ=           -128.5740
   XY=             -2.4747   XZ=            -14.0878   YZ=             -9.6945

 Normal termination of Gaussian 16 at Tue May 24 03:30:38 2022.
