 Gaussian 16, Revision C.01,
 Gaussian 16:  ES64L-G16RevC.01  3-Jul-2019

 -------------------------------------------------------------------
 # B3LYP/6-31G* guess=read geom=check nosymm integral(ultrafinegrid)
 -------------------------------------------------------------------

 ------------------------------------------------------
 Candidate Structure: Conf:879 Charge calc in gas phase
 ------------------------------------------------------
 Structure from the checkpoint file:  "conf-879.chk"
 Charge =  1 Multiplicity = 1

                          Input orientation:
 ---------------------------------------------------------------------
 Center     Atomic      Atomic             Coordinates (Angstroms)
 Number     Number       Type             X           Y           Z
 ---------------------------------------------------------------------
      1          7           0        0.612044   -1.482934    3.460509
      2          1           0        0.454452   -1.411855    4.465740
      3          1           0        1.062384   -2.383585    3.291582
      4          6           0       -0.676541   -1.406515    2.748390
      5          1           0       -1.100249   -0.422937    2.976270
      6          6           0       -0.362466   -1.479261    1.246916
      7          6           0       -1.704230   -2.500773    3.111479
      8          1           0       -1.920225   -2.411813    4.182196
      9          1           0       -1.245988   -3.481974    2.946825
     10          8           0       -0.012366   -2.442270    0.649173
     11          6           0       -3.028372   -2.449613    2.311076
     12          1           0       -3.688255   -3.237386    2.681393
     13          1           0       -2.842523   -2.642886    1.249008
     14          6           0       -3.776839   -1.143343    2.467416
     15          8           0       -4.642323   -0.898696    3.261286
     16          8           0       -3.333401   -0.171974    1.574846
     17          7           0       -0.586812   -0.130178    0.533292
     18          1           0       -0.026516    0.532653    1.106040
     19          6           0       -0.159028    0.075001   -0.942489
     20          1           0       -0.573636    1.060282   -1.182318
     21          6           0        1.384985    0.128472   -0.863568
     22          6           0       -0.719143   -0.969331   -1.911377
     23          1           0       -0.203387   -1.916466   -1.748498
     24          1           0       -1.785531   -1.120590   -1.696812
     25          8           0        2.052061   -0.889887   -0.932845
     26          6           0       -0.534532   -0.490896   -3.338702
     27          6           0       -1.492283    0.332622   -3.951048
     28          1           0       -2.398431    0.603824   -3.411579
     29          6           0        0.606592   -0.842069   -4.070650
     30          1           0        1.362255   -1.478124   -3.618048
     31          6           0       -1.323545    0.794020   -5.250685
     32          1           0       -2.069149    1.419490   -5.730426
     33          6           0        0.788528   -0.387453   -5.375316
     34          1           0        1.677380   -0.676837   -5.931804
     35          8           0       -0.065946    0.911681   -7.238145
     36          1           0        0.747808    0.577237   -7.647699
     37          6           0       -0.176294    0.433614   -5.971222
     38          7           0        1.893806    1.347876   -0.524202
     39          1           0        1.280398    2.151039   -0.480399
     40          6           0        3.146866    1.419545    0.224090
     41          1           0        3.890049    0.818224   -0.305531
     42          6           0        3.003282    0.749960    1.602902
     43          6           0        3.675242    2.861363    0.350654
     44          1           0        4.629257    2.798221    0.885248
     45          1           0        3.901737    3.225799   -0.658602
     46          8           0        3.931655    0.396904    2.279066
     47          6           0        2.749977    3.851556    1.074713
     48          1           0        2.481184    3.455806    2.064513
     49          1           0        1.803497    3.973862    0.522454
     50          6           0        3.400490    5.231356    1.240355
     51          1           0        4.325249    5.141524    1.822662
     52          1           0        3.691493    5.616880    0.252014
     53          6           0        2.492452    6.252196    1.932656
     54          1           0        1.548614    6.345516    1.359727
     55          1           0        2.216514    5.872075    2.925139
     56          7           0        3.208472    7.512548    2.126670
     57          1           0        2.649254    8.154922    2.684255
     58          1           0        3.360564    7.971772    1.229760
     59          8           0        1.697732    0.591503    1.999171
     60          1           0       -1.594629    0.075497    0.668265
     61          1           0       -3.896639    0.611338    1.738481
     62          1           0        1.647605   -0.037586    2.773586
 ---------------------------------------------------------------------

 SCF Done:  E(RB3LYP) =  -1526.15849249     A.U. after    3 cycles

 Alpha  occ. eigenvalues --  -19.34754 -19.34351 -19.30997 -19.28129 -19.26077
 Alpha  occ. eigenvalues --  -19.25015 -19.24984 -14.59962 -14.49450 -14.49094
 Alpha  occ. eigenvalues --  -14.37870 -10.49524 -10.46207 -10.43125 -10.42366
 Alpha  occ. eigenvalues --  -10.40362 -10.39927 -10.35245 -10.34864 -10.34417
 Alpha  occ. eigenvalues --  -10.33798 -10.31746 -10.29609 -10.28965 -10.28692
 Alpha  occ. eigenvalues --  -10.28564 -10.28271 -10.28239 -10.27669 -10.27332
 Alpha  occ. eigenvalues --  -10.26276  -1.25832  -1.24463  -1.21180  -1.17258
 Alpha  occ. eigenvalues --   -1.15866  -1.14310  -1.13807  -1.12617  -1.06259
 Alpha  occ. eigenvalues --   -1.05577  -0.95578  -0.94899  -0.94688  -0.92398
 Alpha  occ. eigenvalues --   -0.90352  -0.87410  -0.85700  -0.83787  -0.83637
 Alpha  occ. eigenvalues --   -0.80795  -0.78853  -0.77881  -0.75409  -0.74158
 Alpha  occ. eigenvalues --   -0.73566  -0.72893  -0.71873  -0.71092  -0.70191
 Alpha  occ. eigenvalues --   -0.69708  -0.67922  -0.66832  -0.66261  -0.64100
 Alpha  occ. eigenvalues --   -0.63851  -0.63188  -0.62887  -0.62795  -0.62220
 Alpha  occ. eigenvalues --   -0.61648  -0.60023  -0.59601  -0.58866  -0.57564
 Alpha  occ. eigenvalues --   -0.57424  -0.57000  -0.56618  -0.56534  -0.55842
 Alpha  occ. eigenvalues --   -0.55798  -0.55260  -0.54541  -0.53970  -0.53840
 Alpha  occ. eigenvalues --   -0.53123  -0.52679  -0.52372  -0.51770  -0.51309
 Alpha  occ. eigenvalues --   -0.51191  -0.50919  -0.50549  -0.49819  -0.49604
 Alpha  occ. eigenvalues --   -0.48953  -0.48574  -0.47147  -0.46558  -0.46420
 Alpha  occ. eigenvalues --   -0.45376  -0.44856  -0.44646  -0.43665  -0.42950
 Alpha  occ. eigenvalues --   -0.42468  -0.41962  -0.41854  -0.41785  -0.41352
 Alpha  occ. eigenvalues --   -0.41258  -0.40650  -0.38508  -0.36814  -0.34183
 Alpha  occ. eigenvalues --   -0.30804  -0.30099
 Alpha virt. eigenvalues --   -0.20142  -0.13676  -0.13385  -0.10233  -0.09252
 Alpha virt. eigenvalues --   -0.09237  -0.08427  -0.06787  -0.05948  -0.05435
 Alpha virt. eigenvalues --   -0.03597  -0.03169  -0.01445  -0.00795  -0.00544

 Mulliken charges:
               1
     1  N   -0.752750
     2  H    0.356962
     3  H    0.357837
     4  C   -0.072222
     5  H    0.175115
     6  C    0.600666
     7  C   -0.288201
     8  H    0.193723
     9  H    0.198737
    10  O   -0.331401
    11  C   -0.371108
    12  H    0.227453
    13  H    0.188347
    14  C    0.582825
    15  O   -0.395817
    16  O   -0.621062
    17  N   -0.757072
    18  H    0.424980
    19  C   -0.078053
    20  H    0.188505
    21  C    0.631069
    22  C   -0.373188
    23  H    0.221305
    24  H    0.152728
    25  O   -0.477782
    26  C    0.134405
    27  C   -0.189862
    28  H    0.121728
    29  C   -0.186653
    30  H    0.163742
    31  C   -0.153707
    32  H    0.161156
    33  C   -0.192019
    34  H    0.144188
    35  O   -0.625864
    36  H    0.419530
    37  C    0.359588
    38  N   -0.604858
    39  H    0.339415
    40  C   -0.048393
    41  H    0.226215
    42  C    0.618697
    43  C   -0.297415
    44  H    0.192606
    45  H    0.172138
    46  O   -0.426659
    47  C   -0.288221
    48  H    0.147643
    49  H    0.111608
    50  C   -0.249506
    51  H    0.169332
    52  H    0.138069
    53  C   -0.133019
    54  H    0.105894
    55  H    0.139923
    56  N   -0.711654
    57  H    0.306840
    58  H    0.300035
    59  O   -0.668162
    60  H    0.430257
    61  H    0.434832
    62  H    0.456558
 Sum of Mulliken charges =   1.00000

 Dipole moment (field-independent basis, Debye):
    X=             -3.9958    Y=              1.7567    Z=              3.1812  Tot=              5.4011
 Quadrupole moment (field-independent basis, Debye-Ang):
   XX=           -178.8039   YY=           -143.3761   ZZ=           -135.3175
   XY=              7.4894   XZ=            -19.2837   YZ=            -14.2942

 Normal termination of Gaussian 16 at Tue May 24 03:31:00 2022.
