 Gaussian 16, Revision C.01,
 Gaussian 16:  ES64L-G16RevC.01  3-Jul-2019

 -------------------------------------------------------------------
 # B3LYP/6-31G* guess=read geom=check nosymm integral(ultrafinegrid)
 -------------------------------------------------------------------

 ------------------------------------------------------
 Candidate Structure: Conf:234 Charge calc in gas phase
 ------------------------------------------------------
 Structure from the checkpoint file:  "conf-234.chk"
 Charge =  1 Multiplicity = 1

                          Input orientation:
 ---------------------------------------------------------------------
 Center     Atomic      Atomic             Coordinates (Angstroms)
 Number     Number       Type             X           Y           Z
 ---------------------------------------------------------------------
      1          7           0       -2.039774   -1.015447    4.263698
      2          1           0       -2.831364   -1.267130    3.675779
      3          1           0       -2.204695   -1.430170    5.178874
      4          6           0       -0.782036   -1.514397    3.704338
      5          1           0       -0.841728   -2.553642    3.325884
      6          6           0       -0.411826   -0.608694    2.526933
      7          6           0        0.317144   -1.453898    4.779839
      8          1           0        0.052289   -2.179193    5.556650
      9          1           0        0.303786   -0.462768    5.241043
     10          8           0        0.275441    0.408186    2.650787
     11          6           0        1.739785   -1.764227    4.256091
     12          1           0        1.723035   -2.361893    3.339022
     13          1           0        2.281484   -2.362119    4.999764
     14          6           0        2.585485   -0.524612    4.059473
     15          8           0        2.707597    0.391972    4.826138
     16          8           0        3.333711   -0.552702    2.881712
     17          7           0       -0.842682   -0.975705    1.283308
     18          1           0       -1.134151   -1.930722    1.102960
     19          6           0       -0.351351   -0.205721    0.155944
     20          1           0       -0.840274    0.776284    0.151116
     21          6           0        1.132581    0.063549    0.375955
     22          6           0       -0.675451   -0.897356   -1.208065
     23          1           0       -1.741543   -0.716774   -1.382849
     24          1           0       -0.138577   -0.347810   -1.990081
     25          8           0        1.860113   -0.956922    0.726725
     26          6           0       -0.391449   -2.380238   -1.293640
     27          6           0        0.874117   -2.872617   -1.653856
     28          1           0        1.678133   -2.179630   -1.888713
     29          6           0       -1.408198   -3.310450   -1.033353
     30          1           0       -2.413438   -2.962642   -0.800790
     31          6           0        1.122284   -4.235928   -1.735453
     32          1           0        2.096949   -4.614737   -2.025052
     33          6           0       -1.173487   -4.683924   -1.106683
     34          1           0       -1.981685   -5.385672   -0.912818
     35          8           0        0.405157   -6.471099   -1.555257
     36          1           0       -0.383037   -7.011202   -1.385137
     37          6           0        0.097367   -5.152601   -1.457360
     38          7           0        1.638586    1.242081    0.087609
     39          1           0        0.975156    2.000646   -0.053397
     40          6           0        3.035797    1.678388    0.266907
     41          1           0        3.654403    0.789870    0.397610
     42          6           0        3.053586    2.558338    1.523000
     43          6           0        3.531466    2.470979   -0.958145
     44          1           0        2.911560    3.370521   -1.067206
     45          1           0        4.543458    2.822359   -0.719251
     46          8           0        2.306152    3.487315    1.684710
     47          6           0        3.554808    1.645403   -2.249669
     48          1           0        2.532047    1.340321   -2.514344
     49          1           0        4.127013    0.721766   -2.102844
     50          6           0        4.169330    2.410002   -3.429311
     51          1           0        3.584369    3.314223   -3.644575
     52          1           0        5.177499    2.753773   -3.154380
     53          6           0        4.259439    1.560049   -4.703559
     54          1           0        3.252438    1.227947   -4.987757
     55          1           0        4.622880    2.197241   -5.527063
     56          7           0        5.073482    0.359452   -4.472361
     57          1           0        6.057837    0.620255   -4.415425
     58          1           0        5.000215   -0.266565   -5.272369
     59          8           0        4.005306    2.168978    2.406353
     60          1           0        2.569559   -0.769263    1.416170
     61          1           0        3.867048    0.274502    2.890111
     62          1           0        3.941743    2.745319    3.196375
 ---------------------------------------------------------------------

 SCF Done:  E(RB3LYP) =  -1526.18067862     A.U. after    1 cycles

 Alpha  occ. eigenvalues --  -19.34565 -19.33938 -19.32120 -19.27672 -19.27165
 Alpha  occ. eigenvalues --  -19.25400 -19.25025 -14.55214 -14.49308 -14.42199
 Alpha  occ. eigenvalues --  -14.39360 -10.48616 -10.45929 -10.43681 -10.41255
 Alpha  occ. eigenvalues --  -10.39223 -10.38750 -10.34973 -10.33983 -10.32833
 Alpha  occ. eigenvalues --  -10.31732 -10.31359 -10.30095 -10.29841 -10.29753
 Alpha  occ. eigenvalues --  -10.29449 -10.29103 -10.29020 -10.28815 -10.28403
 Alpha  occ. eigenvalues --  -10.27453  -1.25602  -1.24244  -1.21755  -1.16938
 Alpha  occ. eigenvalues --   -1.15759  -1.15425  -1.13159  -1.11932  -1.05966
 Alpha  occ. eigenvalues --   -0.99815  -0.96214  -0.95939  -0.94818  -0.91045
 Alpha  occ. eigenvalues --   -0.90105  -0.87638  -0.85398  -0.84940  -0.82195
 Alpha  occ. eigenvalues --   -0.80986  -0.80533  -0.77728  -0.76315  -0.75669
 Alpha  occ. eigenvalues --   -0.73604  -0.72727  -0.72309  -0.71621  -0.69745
 Alpha  occ. eigenvalues --   -0.68792  -0.67621  -0.65705  -0.64704  -0.64210
 Alpha  occ. eigenvalues --   -0.63235  -0.62539  -0.61932  -0.61040  -0.60535
 Alpha  occ. eigenvalues --   -0.60114  -0.59781  -0.58718  -0.58542  -0.58149
 Alpha  occ. eigenvalues --   -0.57613  -0.57451  -0.56771  -0.56040  -0.55679
 Alpha  occ. eigenvalues --   -0.54741  -0.54438  -0.53964  -0.53552  -0.53020
 Alpha  occ. eigenvalues --   -0.52669  -0.52463  -0.52069  -0.51819  -0.51391
 Alpha  occ. eigenvalues --   -0.50917  -0.50074  -0.49623  -0.49450  -0.47914
 Alpha  occ. eigenvalues --   -0.47642  -0.47337  -0.46751  -0.46203  -0.46133
 Alpha  occ. eigenvalues --   -0.45954  -0.45699  -0.45261  -0.44013  -0.43676
 Alpha  occ. eigenvalues --   -0.43578  -0.42995  -0.42923  -0.42416  -0.40995
 Alpha  occ. eigenvalues --   -0.39813  -0.38929  -0.38665  -0.35409  -0.34122
 Alpha  occ. eigenvalues --   -0.31933  -0.31710
 Alpha virt. eigenvalues --   -0.17693  -0.12960  -0.11385  -0.10783  -0.10290
 Alpha virt. eigenvalues --   -0.09591  -0.06247  -0.05048  -0.03630  -0.02989
 Alpha virt. eigenvalues --   -0.02099  -0.01569  -0.01117  -0.00041   0.00185

 Mulliken charges:
               1
     1  N   -0.708786
     2  H    0.312753
     3  H    0.324961
     4  C   -0.074905
     5  H    0.128558
     6  C    0.665896
     7  C   -0.281555
     8  H    0.162021
     9  H    0.216781
    10  O   -0.533159
    11  C   -0.374235
    12  H    0.168054
    13  H    0.213657
    14  C    0.619469
    15  O   -0.425822
    16  O   -0.666679
    17  N   -0.605244
    18  H    0.356163
    19  C   -0.010975
    20  H    0.192768
    21  C    0.648058
    22  C   -0.405710
    23  H    0.196898
    24  H    0.180768
    25  O   -0.586040
    26  C    0.157868
    27  C   -0.177382
    28  H    0.135978
    29  C   -0.220749
    30  H    0.143737
    31  C   -0.154671
    32  H    0.165856
    33  C   -0.187446
    34  H    0.145734
    35  O   -0.623005
    36  H    0.420632
    37  C    0.358589
    38  N   -0.531930
    39  H    0.388034
    40  C   -0.106804
    41  H    0.183913
    42  C    0.634873
    43  C   -0.288492
    44  H    0.174484
    45  H    0.182705
    46  O   -0.420203
    47  C   -0.259649
    48  H    0.125489
    49  H    0.174100
    50  C   -0.261215
    51  H    0.145241
    52  H    0.142242
    53  C   -0.144354
    54  H    0.140728
    55  H    0.140658
    56  N   -0.724574
    57  H    0.303158
    58  H    0.311548
    59  O   -0.586956
    60  H    0.494478
    61  H    0.451717
    62  H    0.451976
 Sum of Mulliken charges =   1.00000

 Dipole moment (field-independent basis, Debye):
    X=              5.9506    Y=             -4.2894    Z=              0.5179  Tot=              7.3536
 Quadrupole moment (field-independent basis, Debye-Ang):
   XX=           -126.7245   YY=           -140.9677   ZZ=           -142.7213
   XY=             30.9272   XZ=            -11.1416   YZ=            -21.6026

 Normal termination of Gaussian 16 at Tue May 24 03:29:54 2022.
