 Gaussian 16, Revision C.01,
 Gaussian 16:  ES64L-G16RevC.01  3-Jul-2019

 -------------------------------------------------------------------
 # B3LYP/6-31G* guess=read geom=check nosymm integral(ultrafinegrid)
 -------------------------------------------------------------------

 ------------------------------------------------------
 Candidate Structure: Conf:746 Charge calc in gas phase
 ------------------------------------------------------
 Structure from the checkpoint file:  "conf-746.chk"
 Charge =  1 Multiplicity = 1

                          Input orientation:
 ---------------------------------------------------------------------
 Center     Atomic      Atomic             Coordinates (Angstroms)
 Number     Number       Type             X           Y           Z
 ---------------------------------------------------------------------
      1          7           0       -0.054673   -0.927355    3.514307
      2          1           0        0.660841   -1.596176    3.234401
      3          1           0        0.322763    0.000053    3.321832
      4          6           0       -1.312965   -1.174689    2.815928
      5          1           0       -2.087081   -0.535216    3.259554
      6          6           0       -1.122533   -0.702388    1.374864
      7          6           0       -1.716855   -2.643916    3.028691
      8          1           0       -1.820000   -2.745618    4.112757
      9          1           0       -0.887107   -3.303943    2.749998
     10          8           0       -0.553314   -1.435449    0.457379
     11          6           0       -3.013046   -3.122038    2.355288
     12          1           0       -3.819080   -2.383537    2.421083
     13          1           0       -3.380519   -4.002416    2.899339
     14          6           0       -2.933152   -3.570032    0.908753
     15          8           0       -3.858237   -3.687991    0.153882
     16          8           0       -1.639924   -3.895124    0.521692
     17          7           0       -1.398167    0.546902    1.074760
     18          1           0       -1.765203    1.095808    1.844607
     19          6           0       -0.825161    1.334525   -0.039176
     20          1           0       -1.309631    2.312290    0.039612
     21          6           0        0.690071    1.517150    0.295150
     22          6           0       -1.153405    0.756750   -1.444764
     23          1           0       -0.468076   -0.061799   -1.676947
     24          1           0       -2.159552    0.323312   -1.384337
     25          8           0        1.161463    1.026444    1.322699
     26          6           0       -1.112455    1.803558   -2.541491
     27          6           0       -2.060139    2.841472   -2.582510
     28          1           0       -2.837072    2.897859   -1.821802
     29          6           0       -0.153991    1.749195   -3.560771
     30          1           0        0.582966    0.949320   -3.567051
     31          6           0       -2.045741    3.795848   -3.590120
     32          1           0       -2.780572    4.593414   -3.623198
     33          6           0       -0.126201    2.700330   -4.580454
     34          1           0        0.629689    2.639085   -5.359913
     35          8           0       -1.107418    4.693993   -5.553428
     36          1           0       -0.390180    4.554266   -6.192027
     37          6           0       -1.071114    3.731369   -4.597218
     38          7           0        1.393682    2.252484   -0.579002
     39          1           0        0.966370    2.636759   -1.418532
     40          6           0        2.811881    2.554960   -0.374196
     41          1           0        2.973248    2.763570    0.687564
     42          6           0        3.096121    3.810088   -1.189986
     43          6           0        3.714341    1.365480   -0.797073
     44          1           0        3.283619    0.476734   -0.321875
     45          1           0        3.624214    1.226171   -1.882805
     46          8           0        2.427930    4.162427   -2.139035
     47          6           0        5.187520    1.483779   -0.385850
     48          1           0        5.238876    1.656781    0.697342
     49          1           0        5.650363    2.353621   -0.868271
     50          6           0        5.981075    0.216356   -0.732320
     51          1           0        5.522285   -0.647292   -0.233343
     52          1           0        5.927168    0.034712   -1.815403
     53          6           0        7.456057    0.280862   -0.317247
     54          1           0        7.938989   -0.656234   -0.616533
     55          1           0        7.958725    1.086354   -0.883202
     56          7           0        7.594092    0.406185    1.140030
     57          1           0        7.472585    1.377211    1.421786
     58          1           0        8.541360    0.157627    1.418144
     59          8           0        4.182514    4.467029   -0.753281
     60          1           0       -0.669457   -2.407868    0.622555
     61          1           0       -1.707739   -4.262932   -0.382771
     62          1           0        4.316838    5.231300   -1.347508
 ---------------------------------------------------------------------

 SCF Done:  E(RB3LYP) =  -1526.18022383     A.U. after    1 cycles

 Alpha  occ. eigenvalues --  -19.36562 -19.34137 -19.29720 -19.27308 -19.26241
 Alpha  occ. eigenvalues --  -19.24159 -19.23903 -14.55148 -14.47470 -14.46093
 Alpha  occ. eigenvalues --  -14.37224 -10.48573 -10.45569 -10.42210 -10.41356
 Alpha  occ. eigenvalues --  -10.39002 -10.38214 -10.34064 -10.34026 -10.33800
 Alpha  occ. eigenvalues --  -10.33604 -10.31768 -10.29257 -10.28830 -10.28757
 Alpha  occ. eigenvalues --  -10.28128 -10.28009 -10.27604 -10.26940 -10.25960
 Alpha  occ. eigenvalues --  -10.24819  -1.27016  -1.23832  -1.20757  -1.16058
 Alpha  occ. eigenvalues --   -1.15221  -1.14505  -1.12008  -1.11772  -1.04158
 Alpha  occ. eigenvalues --   -1.03961  -0.95469  -0.93978  -0.93401  -0.92231
 Alpha  occ. eigenvalues --   -0.88959  -0.86443  -0.84500  -0.84114  -0.83649
 Alpha  occ. eigenvalues --   -0.81669  -0.78374  -0.77645  -0.76883  -0.74095
 Alpha  occ. eigenvalues --   -0.73095  -0.71589  -0.70980  -0.70075  -0.68757
 Alpha  occ. eigenvalues --   -0.68121  -0.67893  -0.65571  -0.64430  -0.64211
 Alpha  occ. eigenvalues --   -0.63443  -0.62643  -0.61910  -0.61611  -0.59858
 Alpha  occ. eigenvalues --   -0.59639  -0.58912  -0.58366  -0.58194  -0.57254
 Alpha  occ. eigenvalues --   -0.56887  -0.56774  -0.56185  -0.55577  -0.54970
 Alpha  occ. eigenvalues --   -0.54843  -0.54390  -0.53616  -0.53191  -0.52834
 Alpha  occ. eigenvalues --   -0.52367  -0.51505  -0.51428  -0.51015  -0.50787
 Alpha  occ. eigenvalues --   -0.49915  -0.49645  -0.49212  -0.49127  -0.48669
 Alpha  occ. eigenvalues --   -0.47966  -0.47057  -0.46667  -0.46418  -0.45587
 Alpha  occ. eigenvalues --   -0.45017  -0.44815  -0.44158  -0.42784  -0.42077
 Alpha  occ. eigenvalues --   -0.41936  -0.41085  -0.40567  -0.40459  -0.39846
 Alpha  occ. eigenvalues --   -0.38941  -0.38023  -0.37331  -0.36577  -0.34475
 Alpha  occ. eigenvalues --   -0.30995  -0.29557
 Alpha virt. eigenvalues --   -0.18290  -0.12473  -0.10675  -0.09460  -0.09192
 Alpha virt. eigenvalues --   -0.08717  -0.08193  -0.06368  -0.03241  -0.02355
 Alpha virt. eigenvalues --   -0.01523  -0.01147  -0.00739  -0.00596   0.00004

 Mulliken charges:
               1
     1  N   -0.676766
     2  H    0.330600
     3  H    0.352646
     4  C   -0.074733
     5  H    0.178530
     6  C    0.618541
     7  C   -0.320015
     8  H    0.216034
     9  H    0.178885
    10  O   -0.571570
    11  C   -0.374233
    12  H    0.202859
    13  H    0.233232
    14  C    0.577447
    15  O   -0.399939
    16  O   -0.614146
    17  N   -0.535164
    18  H    0.381184
    19  C   -0.105835
    20  H    0.204632
    21  C    0.641669
    22  C   -0.355348
    23  H    0.180803
    24  H    0.178205
    25  O   -0.545393
    26  C    0.124563
    27  C   -0.186255
    28  H    0.129320
    29  C   -0.204556
    30  H    0.140046
    31  C   -0.149730
    32  H    0.165253
    33  C   -0.170880
    34  H    0.143806
    35  O   -0.623993
    36  H    0.420063
    37  C    0.361094
    38  N   -0.626318
    39  H    0.384166
    40  C   -0.030549
    41  H    0.198864
    42  C    0.582879
    43  C   -0.271627
    44  H    0.165154
    45  H    0.147065
    46  O   -0.460917
    47  C   -0.273891
    48  H    0.150832
    49  H    0.147752
    50  C   -0.236444
    51  H    0.139976
    52  H    0.127590
    53  C   -0.149299
    54  H    0.147995
    55  H    0.121394
    56  N   -0.719740
    57  H    0.298259
    58  H    0.307636
    59  O   -0.550796
    60  H    0.479623
    61  H    0.441240
    62  H    0.428301
 Sum of Mulliken charges =   1.00000

 Dipole moment (field-independent basis, Debye):
    X=              0.3813    Y=              0.4690    Z=              1.1294  Tot=              1.2810
 Quadrupole moment (field-independent basis, Debye-Ang):
   XX=           -134.2909   YY=           -134.9514   ZZ=           -145.7658
   XY=             22.5027   XZ=            -26.6553   YZ=            -19.9052

 Normal termination of Gaussian 16 at Tue May 24 03:31:21 2022.
