 Gaussian 16, Revision C.01,
 Gaussian 16:  ES64L-G16RevC.01  3-Jul-2019

 -------------------------------------------------------------------
 # B3LYP/6-31G* guess=read geom=check nosymm integral(ultrafinegrid)
 -------------------------------------------------------------------

 ------------------------------------------------------
 Candidate Structure: Conf:684 Charge calc in gas phase
 ------------------------------------------------------
 Structure from the checkpoint file:  "conf-684.chk"
 Charge =  1 Multiplicity = 1

                          Input orientation:
 ---------------------------------------------------------------------
 Center     Atomic      Atomic             Coordinates (Angstroms)
 Number     Number       Type             X           Y           Z
 ---------------------------------------------------------------------
      1          7           0       -0.919048    0.094736    3.120344
      2          1           0       -1.371209    0.101563    4.029824
      3          1           0        0.040424    0.426246    3.210903
      4          6           0       -0.970473   -1.187674    2.431311
      5          1           0       -2.005411   -1.557217    2.504154
      6          6           0       -0.688563   -0.999794    0.912553
      7          6           0        0.011574   -2.266043    2.935873
      8          1           0        1.019256   -1.837693    2.989045
      9          1           0        0.055257   -3.092960    2.222991
     10          8           0       -0.124738   -1.880005    0.269684
     11          6           0       -0.305017   -2.772855    4.372024
     12          1           0       -0.541331   -1.962983    5.075379
     13          1           0        0.519404   -3.347464    4.816230
     14          6           0       -1.446351   -3.661977    4.340375
     15          8           0       -2.309146   -4.299210    3.974475
     16          8           0       -1.535886   -3.873286    6.617690
     17          7           0       -1.108400    0.181298    0.408938
     18          1           0       -1.559751    0.813250    1.059067
     19          6           0       -0.821084    0.614570   -0.964946
     20          1           0       -1.233295    1.628069   -1.037777
     21          6           0        0.712812    0.726788   -1.181060
     22          6           0       -1.477343   -0.260399   -2.054756
     23          1           0       -1.221783    0.195353   -3.016198
     24          1           0       -1.004232   -1.244420   -2.040166
     25          8           0        1.248606    0.450936   -2.240169
     26          6           0       -2.975450   -0.381304   -1.888330
     27          6           0       -3.542114   -1.501791   -1.263007
     28          1           0       -2.890098   -2.307095   -0.931372
     29          6           0       -3.842614    0.623971   -2.333682
     30          1           0       -3.439322    1.497928   -2.841465
     31          6           0       -4.917133   -1.617560   -1.078864
     32          1           0       -5.354641   -2.494482   -0.611337
     33          6           0       -5.222407    0.526448   -2.155482
     34          1           0       -5.876656    1.317332   -2.517756
     35          8           0       -7.105426   -0.759345   -1.314879
     36          1           0       -7.584461   -0.017297   -1.716015
     37          6           0       -5.765310   -0.597578   -1.523810
     38          7           0        1.389271    1.219959   -0.092602
     39          1           0        0.879204    1.277999    0.777738
     40          6           0        2.828819    1.097672    0.045810
     41          1           0        3.200644    0.584337   -0.846110
     42          6           0        3.101555    0.224885    1.267288
     43          6           0        3.511498    2.487343    0.156789
     44          1           0        3.115919    3.070448   -0.682959
     45          1           0        3.159797    2.983961    1.072041
     46          8           0        2.323479    0.063291    2.197668
     47          6           0        5.044399    2.488878    0.104670
     48          1           0        5.371655    1.934425   -0.785688
     49          1           0        5.457979    1.952937    0.968582
     50          6           0        5.624134    3.909552    0.068355
     51          1           0        5.228018    4.445213   -0.807305
     52          1           0        5.278470    4.466418    0.952121
     53          6           0        7.165430    3.951695    0.031712
     54          1           0        7.489748    4.996625    0.108527
     55          1           0        7.562476    3.442549    0.920577
     56          7           0        7.824509    3.372464   -1.138618
     57          1           0        7.496356    3.823985   -1.991125
     58          1           0        7.604304    2.382763   -1.229183
     59          8           0        4.313832   -0.342709    1.236463
     60          1           0       -2.440692   -3.962962    6.963764
     61          1           0       -1.024117   -4.559705    7.079133
     62          1           0        4.432367   -0.841159    2.067731
 ---------------------------------------------------------------------

 SCF Done:  E(RB3LYP) =  -1526.11371192     A.U. after    1 cycles

 Alpha  occ. eigenvalues --  -19.47623 -19.35039 -19.30330 -19.25230 -19.23948
 Alpha  occ. eigenvalues --  -19.21918 -19.19365 -14.45954 -14.45467 -14.43761
 Alpha  occ. eigenvalues --  -14.36037 -10.58006 -10.43211 -10.42784 -10.39209
 Alpha  occ. eigenvalues --  -10.36646 -10.36378 -10.35348 -10.32425 -10.32188
 Alpha  occ. eigenvalues --  -10.31199 -10.26973 -10.25753 -10.25508 -10.25450
 Alpha  occ. eigenvalues --  -10.25425 -10.25375 -10.25282 -10.25257 -10.24878
 Alpha  occ. eigenvalues --  -10.24021  -1.38178  -1.21414  -1.20247  -1.13960
 Alpha  occ. eigenvalues --   -1.12276  -1.11995  -1.11257  -1.03899  -1.02570
 Alpha  occ. eigenvalues --   -1.00785  -1.00077  -0.92853  -0.91661  -0.88112
 Alpha  occ. eigenvalues --   -0.87601  -0.85808  -0.82716  -0.81067  -0.80598
 Alpha  occ. eigenvalues --   -0.78296  -0.76384  -0.75815  -0.73542  -0.72315
 Alpha  occ. eigenvalues --   -0.71830  -0.71375  -0.70599  -0.68954  -0.68458
 Alpha  occ. eigenvalues --   -0.68124  -0.67152  -0.66384  -0.65556  -0.64607
 Alpha  occ. eigenvalues --   -0.64154  -0.63367  -0.61376  -0.60878  -0.60610
 Alpha  occ. eigenvalues --   -0.59681  -0.59231  -0.58411  -0.57028  -0.56625
 Alpha  occ. eigenvalues --   -0.55935  -0.55356  -0.54392  -0.54255  -0.53834
 Alpha  occ. eigenvalues --   -0.52791  -0.52595  -0.52415  -0.52026  -0.50530
 Alpha  occ. eigenvalues --   -0.50094  -0.50041  -0.49886  -0.49699  -0.49053
 Alpha  occ. eigenvalues --   -0.48538  -0.47888  -0.47299  -0.46987  -0.46521
 Alpha  occ. eigenvalues --   -0.46372  -0.45744  -0.44840  -0.43378  -0.43080
 Alpha  occ. eigenvalues --   -0.42961  -0.41867  -0.41459  -0.41147  -0.39975
 Alpha  occ. eigenvalues --   -0.39502  -0.38973  -0.38801  -0.38654  -0.38612
 Alpha  occ. eigenvalues --   -0.36712  -0.34870  -0.33518  -0.32477  -0.31513
 Alpha  occ. eigenvalues --   -0.28013  -0.27955
 Alpha virt. eigenvalues --   -0.24883  -0.23947  -0.11813  -0.09940  -0.09116
 Alpha virt. eigenvalues --   -0.07333  -0.06773  -0.05775  -0.05010  -0.04616
 Alpha virt. eigenvalues --   -0.03470  -0.02607  -0.01892  -0.01514   0.00241

 Mulliken charges:
               1
     1  N   -0.746699
     2  H    0.313364
     3  H    0.346290
     4  C   -0.095004
     5  H    0.170285
     6  C    0.652241
     7  C   -0.321900
     8  H    0.231281
     9  H    0.224770
    10  O   -0.528569
    11  C   -0.379960
    12  H    0.262681
    13  H    0.272515
    14  C    0.633335
    15  O   -0.176733
    16  O   -0.774187
    17  N   -0.618816
    18  H    0.361732
    19  C   -0.058472
    20  H    0.179454
    21  C    0.629424
    22  C   -0.364538
    23  H    0.181481
    24  H    0.191259
    25  O   -0.496808
    26  C    0.168923
    27  C   -0.201666
    28  H    0.127048
    29  C   -0.196418
    30  H    0.133508
    31  C   -0.162175
    32  H    0.135116
    33  C   -0.191470
    34  H    0.130916
    35  O   -0.639867
    36  H    0.413205
    37  C    0.351793
    38  N   -0.601713
    39  H    0.327948
    40  C   -0.056827
    41  H    0.214789
    42  C    0.604903
    43  C   -0.264841
    44  H    0.174488
    45  H    0.138278
    46  O   -0.515786
    47  C   -0.263395
    48  H    0.136352
    49  H    0.138414
    50  C   -0.263154
    51  H    0.133011
    52  H    0.128851
    53  C   -0.145127
    54  H    0.152000
    55  H    0.138970
    56  N   -0.702361
    57  H    0.297516
    58  H    0.297265
    59  O   -0.532233
    60  H    0.445379
    61  H    0.444304
    62  H    0.415629
 Sum of Mulliken charges =   1.00000

 Dipole moment (field-independent basis, Debye):
    X=             -5.2053    Y=            -10.2931    Z=             24.1245  Tot=             26.7401
 Quadrupole moment (field-independent basis, Debye-Ang):
   XX=           -158.1936   YY=           -116.3991   ZZ=            -52.4379
   XY=              4.1386   XZ=            -12.3630   YZ=            -89.5928

 Normal termination of Gaussian 16 at Tue May 24 03:30:58 2022.
