 Gaussian 16, Revision C.01,
 Gaussian 16:  ES64L-G16RevC.01  3-Jul-2019

 -------------------------------------------------------------------
 # B3LYP/6-31G* guess=read geom=check nosymm integral(ultrafinegrid)
 -------------------------------------------------------------------

 ------------------------------------------------------
 Candidate Structure: Conf:294 Charge calc in gas phase
 ------------------------------------------------------
 Structure from the checkpoint file:  "conf-294.chk"
 Charge =  1 Multiplicity = 1

                          Input orientation:
 ---------------------------------------------------------------------
 Center     Atomic      Atomic             Coordinates (Angstroms)
 Number     Number       Type             X           Y           Z
 ---------------------------------------------------------------------
      1          7           0       -0.014005   -2.672396    2.455306
      2          1           0        0.347572   -3.454723    2.989581
      3          1           0       -0.581847   -3.004370    1.680784
      4          6           0       -0.651522   -1.627115    3.234658
      5          1           0       -0.059360   -1.496687    4.152464
      6          6           0       -0.618780   -0.246323    2.517790
      7          6           0       -2.133184   -1.863591    3.605203
      8          1           0       -2.714612   -2.067349    2.696990
      9          1           0       -2.546200   -0.951903    4.043768
     10          8           0       -1.329342    0.664917    2.935934
     11          6           0       -2.356948   -3.098491    4.525544
     12          1           0       -1.749044   -3.964591    4.229186
     13          1           0       -3.404216   -3.430146    4.552708
     14          6           0       -2.001560   -2.768242    5.885918
     15          8           0       -1.679076   -2.209250    6.817310
     16          8           0       -2.230325   -4.932958    6.641454
     17          7           0        0.204283   -0.180150    1.457410
     18          1           0        0.838030   -0.950902    1.266870
     19          6           0        0.277689    0.975280    0.583858
     20          1           0       -0.095249    1.836958    1.144654
     21          6           0        1.751808    1.145012    0.180263
     22          6           0       -0.584887    0.772118   -0.704825
     23          1           0       -0.592240    1.719980   -1.255959
     24          1           0       -0.069337    0.039808   -1.337446
     25          8           0        2.490015    0.165068    0.112250
     26          6           0       -1.993204    0.299873   -0.423525
     27          6           0       -2.318427   -1.062228   -0.496721
     28          1           0       -1.562602   -1.772053   -0.827139
     29          6           0       -3.004515    1.191758   -0.045895
     30          1           0       -2.789336    2.255662    0.015886
     31          6           0       -3.596723   -1.527723   -0.187797
     32          1           0       -3.855454   -2.578310   -0.283891
     33          6           0       -4.288594    0.747095    0.261710
     34          1           0       -5.057159    1.461222    0.550838
     35          8           0       -5.822211   -1.123351    0.500406
     36          1           0       -6.443138   -0.390330    0.636775
     37          6           0       -4.588427   -0.618089    0.198320
     38          7           0        2.123599    2.405216   -0.156008
     39          1           0        1.539655    3.189374    0.115141
     40          6           0        3.500453    2.754391   -0.486013
     41          1           0        4.153230    1.976142   -0.077263
     42          6           0        3.800880    4.077779    0.207563
     43          6           0        3.760711    2.880246   -2.007939
     44          1           0        3.116606    3.674639   -2.409606
     45          1           0        4.796822    3.214127   -2.139495
     46          8           0        2.957028    4.804110    0.690156
     47          6           0        3.531150    1.578050   -2.783658
     48          1           0        2.485594    1.263551   -2.669802
     49          1           0        4.138555    0.777495   -2.341146
     50          6           0        3.859581    1.713402   -4.276775
     51          1           0        3.259737    2.524600   -4.716796
     52          1           0        4.912516    2.008400   -4.398745
     53          6           0        3.605709    0.416889   -5.066241
     54          1           0        4.199426   -0.396931   -4.629133
     55          1           0        2.553655    0.122429   -4.950509
     56          7           0        3.898955    0.459186   -6.499343
     57          1           0        4.878947    0.698211   -6.646323
     58          1           0        3.359394    1.201720   -6.943001
     59          8           0        5.113509    4.368148    0.190323
     60          1           0       -3.080796   -5.383433    6.778333
     61          1           0       -1.715226   -5.119835    7.444793
     62          1           0        5.219500    5.242368    0.612567
 ---------------------------------------------------------------------

 SCF Done:  E(RB3LYP) =  -1526.11899513     A.U. after    2 cycles

 Alpha  occ. eigenvalues --  -19.47168 -19.34234 -19.27330 -19.25748 -19.21849
 Alpha  occ. eigenvalues --  -19.20457 -19.19510 -14.45015 -14.44513 -14.43853
 Alpha  occ. eigenvalues --  -14.35404 -10.57493 -10.42738 -10.39764 -10.38090
 Alpha  occ. eigenvalues --  -10.36727 -10.35758 -10.35109 -10.32978 -10.31769
 Alpha  occ. eigenvalues --  -10.31130 -10.27557 -10.27253 -10.27022 -10.26962
 Alpha  occ. eigenvalues --  -10.26791 -10.26738 -10.25646 -10.25158 -10.24053
 Alpha  occ. eigenvalues --  -10.23205  -1.37706  -1.19481  -1.18366  -1.13760
 Alpha  occ. eigenvalues --   -1.12663  -1.11387  -1.09430  -1.03260  -1.01479
 Alpha  occ. eigenvalues --   -1.00400  -0.99827  -0.93237  -0.92204  -0.87808
 Alpha  occ. eigenvalues --   -0.87104  -0.85933  -0.82706  -0.82438  -0.80919
 Alpha  occ. eigenvalues --   -0.78117  -0.75507  -0.74999  -0.73619  -0.71651
 Alpha  occ. eigenvalues --   -0.71161  -0.70382  -0.70075  -0.69509  -0.67857
 Alpha  occ. eigenvalues --   -0.67602  -0.67088  -0.66457  -0.65774  -0.64465
 Alpha  occ. eigenvalues --   -0.63807  -0.63008  -0.62268  -0.60855  -0.59829
 Alpha  occ. eigenvalues --   -0.58288  -0.57365  -0.56630  -0.56460  -0.56336
 Alpha  occ. eigenvalues --   -0.54986  -0.54585  -0.54351  -0.54018  -0.53360
 Alpha  occ. eigenvalues --   -0.53137  -0.52834  -0.52187  -0.51297  -0.50883
 Alpha  occ. eigenvalues --   -0.50566  -0.50104  -0.49287  -0.49174  -0.48686
 Alpha  occ. eigenvalues --   -0.48321  -0.48045  -0.47905  -0.46651  -0.46381
 Alpha  occ. eigenvalues --   -0.45909  -0.45380  -0.44164  -0.43840  -0.43426
 Alpha  occ. eigenvalues --   -0.42360  -0.41586  -0.41463  -0.40536  -0.40121
 Alpha  occ. eigenvalues --   -0.39511  -0.39087  -0.38013  -0.37992  -0.35637
 Alpha  occ. eigenvalues --   -0.34697  -0.34155  -0.33389  -0.33198  -0.32683
 Alpha  occ. eigenvalues --   -0.29632  -0.27419
 Alpha virt. eigenvalues --   -0.24371  -0.23447  -0.11205  -0.08556  -0.07998
 Alpha virt. eigenvalues --   -0.07590  -0.06620  -0.06341  -0.04999  -0.04066
 Alpha virt. eigenvalues --   -0.02912  -0.01566  -0.01148  -0.00569   0.00013

 Mulliken charges:
               1
     1  N   -0.734745
     2  H    0.319777
     3  H    0.328171
     4  C   -0.080439
     5  H    0.171214
     6  C    0.643764
     7  C   -0.324042
     8  H    0.218297
     9  H    0.230680
    10  O   -0.534277
    11  C   -0.382072
    12  H    0.261725
    13  H    0.274045
    14  C    0.642104
    15  O   -0.179887
    16  O   -0.779507
    17  N   -0.601716
    18  H    0.373296
    19  C   -0.055378
    20  H    0.183874
    21  C    0.625053
    22  C   -0.368490
    23  H    0.165308
    24  H    0.168628
    25  O   -0.530945
    26  C    0.183401
    27  C   -0.207861
    28  H    0.129729
    29  C   -0.164149
    30  H    0.141713
    31  C   -0.184290
    32  H    0.140030
    33  C   -0.189917
    34  H    0.136094
    35  O   -0.643590
    36  H    0.415558
    37  C    0.347385
    38  N   -0.607983
    39  H    0.351604
    40  C   -0.049103
    41  H    0.202610
    42  C    0.584226
    43  C   -0.263747
    44  H    0.144115
    45  H    0.167104
    46  O   -0.467624
    47  C   -0.261171
    48  H    0.136485
    49  H    0.152797
    50  C   -0.266157
    51  H    0.125660
    52  H    0.130110
    53  C   -0.139553
    54  H    0.143828
    55  H    0.136355
    56  N   -0.702202
    57  H    0.295737
    58  H    0.293867
    59  O   -0.556469
    60  H    0.442258
    61  H    0.443849
    62  H    0.424861
 Sum of Mulliken charges =   1.00000

 Dipole moment (field-independent basis, Debye):
    X=             -8.1455    Y=            -11.3800    Z=             21.8698  Tot=             25.9643
 Quadrupole moment (field-independent basis, Debye-Ang):
   XX=           -122.8030   YY=            -98.1716   ZZ=            -41.3626
   XY=             52.4078   XZ=            -57.0666   YZ=           -110.4466

 Normal termination of Gaussian 16 at Tue May 24 03:30:29 2022.
