 Gaussian 16, Revision C.01,
 Gaussian 16:  ES64L-G16RevC.01  3-Jul-2019

 -------------------------------------------------------------------
 # B3LYP/6-31G* guess=read geom=check nosymm integral(ultrafinegrid)
 -------------------------------------------------------------------

 ------------------------------------------------------
 Candidate Structure: Conf:771 Charge calc in gas phase
 ------------------------------------------------------
 Structure from the checkpoint file:  "conf-771.chk"
 Charge =  1 Multiplicity = 1

                          Input orientation:
 ---------------------------------------------------------------------
 Center     Atomic      Atomic             Coordinates (Angstroms)
 Number     Number       Type             X           Y           Z
 ---------------------------------------------------------------------
      1          7           0       -0.411393   -2.091189    2.722478
      2          1           0        0.154843   -1.294208    2.327280
      3          1           0       -0.387648   -2.075882    3.746054
      4          6           0       -1.833478   -1.978217    2.185950
      5          1           0       -2.309240   -1.201571    2.791639
      6          6           0       -1.575322   -1.479673    0.745248
      7          6           0       -2.649989   -3.273173    2.346013
      8          1           0       -3.688570   -2.971507    2.166985
      9          1           0       -2.614655   -3.576328    3.400584
     10          8           0       -1.046404   -2.230227   -0.062462
     11          6           0       -2.375479   -4.484489    1.426322
     12          1           0       -2.195915   -4.147312    0.400120
     13          1           0       -3.271740   -5.109457    1.401918
     14          6           0       -1.245696   -5.428982    1.775534
     15          8           0       -1.230401   -6.608734    1.553451
     16          8           0       -0.161393   -4.805424    2.365786
     17          7           0       -1.819230   -0.155482    0.533873
     18          1           0       -2.159445    0.364070    1.333069
     19          6           0       -0.941663    0.617540   -0.352567
     20          1           0       -1.275549    1.656824   -0.259506
     21          6           0        0.501787    0.557649    0.240072
     22          6           0       -1.076767    0.212016   -1.847203
     23          1           0       -0.568201   -0.740130   -2.010483
     24          1           0       -2.145282    0.025760   -2.009716
     25          8           0        0.739979   -0.021926    1.315964
     26          6           0       -0.583583    1.257955   -2.829624
     27          6           0       -1.195863    2.521196   -2.919941
     28          1           0       -2.036098    2.763864   -2.271818
     29          6           0        0.470197    0.979922   -3.710653
     30          1           0        0.953100    0.006015   -3.679996
     31          6           0       -0.771084    3.471223   -3.839703
     32          1           0       -1.251247    4.441638   -3.911213
     33          6           0        0.908014    1.922477   -4.642351
     34          1           0        1.722856    1.678455   -5.320612
     35          8           0        0.657686    4.143926   -5.587503
     36          1           0        1.370360    3.818033   -6.159892
     37          6           0        0.287967    3.174855   -4.710095
     38          7           0        1.443393    1.210210   -0.452798
     39          1           0        1.174796    1.673551   -1.315843
     40          6           0        2.840220    1.331331   -0.026416
     41          1           0        2.963607    0.696385    0.849696
     42          6           0        3.152502    2.759501    0.418141
     43          6           0        3.789129    0.883944   -1.164086
     44          1           0        3.538636   -0.159914   -1.393558
     45          1           0        3.552533    1.472519   -2.060281
     46          8           0        3.844764    3.046316    1.364974
     47          6           0        5.288022    1.004152   -0.851596
     48          1           0        5.553743    2.058210   -0.694382
     49          1           0        5.846668    0.675081   -1.733929
     50          6           0        5.765784    0.181093    0.352289
     51          1           0        5.364479    0.596762    1.285352
     52          1           0        5.383332   -0.849185    0.271036
     53          6           0        7.296480    0.134454    0.460306
     54          1           0        7.682214    1.160974    0.496850
     55          1           0        7.572739   -0.337351    1.419358
     56          7           0        7.884437   -0.519797   -0.714925
     57          1           0        7.747917   -1.528132   -0.653695
     58          1           0        8.891719   -0.372991   -0.729631
     59          8           0        2.598116    3.673442   -0.412865
     60          1           0       -0.011511   -2.998293    2.416804
     61          1           0        0.515043   -5.498838    2.498985
     62          1           0        2.878355    4.554244   -0.097263
 ---------------------------------------------------------------------

 SCF Done:  E(RB3LYP) =  -1526.20456486     A.U. after    1 cycles

 Alpha  occ. eigenvalues --  -19.32916 -19.29027 -19.26212 -19.26187 -19.25783
 Alpha  occ. eigenvalues --  -19.25241 -19.23221 -14.57979 -14.49969 -14.48179
 Alpha  occ. eigenvalues --  -14.37340 -10.44235 -10.43565 -10.41937 -10.41270
 Alpha  occ. eigenvalues --  -10.40758 -10.36615 -10.34608 -10.33915 -10.33670
 Alpha  occ. eigenvalues --  -10.32421 -10.30015 -10.28790 -10.28559 -10.28482
 Alpha  occ. eigenvalues --  -10.28106 -10.27935 -10.27449 -10.26988 -10.25292
 Alpha  occ. eigenvalues --  -10.24944  -1.22701  -1.19803  -1.18756  -1.16203
 Alpha  occ. eigenvalues --   -1.14421  -1.13907  -1.12709  -1.10875  -1.06489
 Alpha  occ. eigenvalues --   -1.04695  -0.94921  -0.94331  -0.94072  -0.90830
 Alpha  occ. eigenvalues --   -0.88680  -0.86981  -0.84045  -0.83839  -0.82532
 Alpha  occ. eigenvalues --   -0.79110  -0.77548  -0.76445  -0.73827  -0.72887
 Alpha  occ. eigenvalues --   -0.72555  -0.71759  -0.71540  -0.70945  -0.69817
 Alpha  occ. eigenvalues --   -0.68940  -0.67753  -0.66318  -0.64613  -0.63818
 Alpha  occ. eigenvalues --   -0.63287  -0.62886  -0.61285  -0.60740  -0.60159
 Alpha  occ. eigenvalues --   -0.58988  -0.58190  -0.57623  -0.57238  -0.56699
 Alpha  occ. eigenvalues --   -0.56343  -0.55853  -0.55481  -0.55022  -0.54524
 Alpha  occ. eigenvalues --   -0.54262  -0.53673  -0.53484  -0.52820  -0.52452
 Alpha  occ. eigenvalues --   -0.51297  -0.51227  -0.50842  -0.50436  -0.50197
 Alpha  occ. eigenvalues --   -0.49888  -0.49578  -0.49120  -0.48806  -0.48377
 Alpha  occ. eigenvalues --   -0.48032  -0.47189  -0.46256  -0.45653  -0.44985
 Alpha  occ. eigenvalues --   -0.44275  -0.43393  -0.42577  -0.41985  -0.41366
 Alpha  occ. eigenvalues --   -0.40735  -0.40589  -0.40537  -0.39941  -0.39443
 Alpha  occ. eigenvalues --   -0.39219  -0.38999  -0.38269  -0.35462  -0.34356
 Alpha  occ. eigenvalues --   -0.30812  -0.29554
 Alpha virt. eigenvalues --   -0.14017  -0.10936  -0.10857  -0.09428  -0.09336
 Alpha virt. eigenvalues --   -0.08628  -0.08006  -0.05799  -0.04471  -0.01892
 Alpha virt. eigenvalues --   -0.01434  -0.01378  -0.00739   0.00126   0.00839

 Mulliken charges:
               1
     1  N   -0.780820
     2  H    0.453829
     3  H    0.399782
     4  C   -0.108048
     5  H    0.192461
     6  C    0.604497
     7  C   -0.300719
     8  H    0.201210
     9  H    0.178853
    10  O   -0.487751
    11  C   -0.375935
    12  H    0.241254
    13  H    0.214751
    14  C    0.600431
    15  O   -0.407363
    16  O   -0.622818
    17  N   -0.566042
    18  H    0.344465
    19  C   -0.103970
    20  H    0.193573
    21  C    0.651465
    22  C   -0.346275
    23  H    0.193306
    24  H    0.184151
    25  O   -0.587986
    26  C    0.107070
    27  C   -0.185690
    28  H    0.134193
    29  C   -0.204182
    30  H    0.145599
    31  C   -0.151236
    32  H    0.163787
    33  C   -0.187368
    34  H    0.143406
    35  O   -0.625193
    36  H    0.419314
    37  C    0.358322
    38  N   -0.594445
    39  H    0.375826
    40  C   -0.058566
    41  H    0.202991
    42  C    0.601419
    43  C   -0.286825
    44  H    0.153662
    45  H    0.153651
    46  O   -0.444977
    47  C   -0.267548
    48  H    0.146615
    49  H    0.183000
    50  C   -0.262550
    51  H    0.148049
    52  H    0.116204
    53  C   -0.144873
    54  H    0.149601
    55  H    0.123739
    56  N   -0.716060
    57  H    0.295252
    58  H    0.308681
    59  O   -0.571296
    60  H    0.439770
    61  H    0.437898
    62  H    0.426458
 Sum of Mulliken charges =   1.00000

 Dipole moment (field-independent basis, Debye):
    X=             -0.3089    Y=             -3.2362    Z=              5.5388  Tot=              6.4224
 Quadrupole moment (field-independent basis, Debye-Ang):
   XX=           -133.2789   YY=           -154.0527   ZZ=           -131.2166
   XY=              1.5455   XZ=            -22.2813   YZ=            -36.3705

 Normal termination of Gaussian 16 at Tue May 24 03:31:21 2022.
