 Gaussian 16, Revision C.01,
 Gaussian 16:  ES64L-G16RevC.01  3-Jul-2019

 -------------------------------------------------------------------
 # B3LYP/6-31G* guess=read geom=check nosymm integral(ultrafinegrid)
 -------------------------------------------------------------------

 ------------------------------------------------------
 Candidate Structure: Conf:197 Charge calc in gas phase
 ------------------------------------------------------
 Structure from the checkpoint file:  "conf-197.chk"
 Charge =  1 Multiplicity = 1

                          Input orientation:
 ---------------------------------------------------------------------
 Center     Atomic      Atomic             Coordinates (Angstroms)
 Number     Number       Type             X           Y           Z
 ---------------------------------------------------------------------
      1          7           0       -0.566419   -3.236670    3.507872
      2          1           0       -0.028751   -2.784123    4.242937
      3          1           0       -1.076085   -4.016626    3.911548
      4          6           0       -1.425133   -2.292562    2.775211
      5          1           0       -1.463609   -1.323048    3.279387
      6          6           0       -0.682781   -2.052412    1.444653
      7          6           0       -2.877028   -2.830711    2.555901
      8          1           0       -2.943827   -3.834888    2.988217
      9          1           0       -3.080903   -2.955582    1.487462
     10          8           0        0.303209   -2.851216    1.191523
     11          6           0       -3.991716   -1.967303    3.182580
     12          1           0       -3.774116   -1.751238    4.237154
     13          1           0       -4.942707   -2.505926    3.160698
     14          6           0       -4.153322   -0.646904    2.463358
     15          8           0       -3.224075    0.001859    1.999221
     16          8           0       -5.415566   -0.237783    2.353375
     17          7           0       -1.049326   -1.120148    0.609716
     18          1           0       -1.809242   -0.529116    0.962159
     19          6           0       -0.205857   -0.582477   -0.470340
     20          1           0       -0.805074    0.210032   -0.927814
     21          6           0        1.034189    0.072345    0.222309
     22          6           0        0.124631   -1.631845   -1.569737
     23          1           0        0.908918   -2.303363   -1.211123
     24          1           0       -0.778130   -2.241252   -1.704523
     25          8           0        1.217301   -0.053912    1.431411
     26          6           0        0.524973   -1.012504   -2.893957
     27          6           0       -0.410349   -0.307527   -3.671476
     28          1           0       -1.437283   -0.206786   -3.324103
     29          6           0        1.826108   -1.144471   -3.393874
     30          1           0        2.569567   -1.694553   -2.821806
     31          6           0       -0.062257    0.254555   -4.892548
     32          1           0       -0.786672    0.794796   -5.493045
     33          6           0        2.191519   -0.587617   -4.619133
     34          1           0        3.208279   -0.703757   -4.987663
     35          8           0        1.529105    0.688847   -6.573339
     36          1           0        2.459702    0.535818   -6.801665
     37          6           0        1.247983    0.118145   -5.373160
     38          7           0        1.833445    0.782336   -0.594227
     39          1           0        1.655253    0.840610   -1.592873
     40          6           0        3.011790    1.496466   -0.105112
     41          1           0        2.768925    1.947438    0.861749
     42          6           0        3.290559    2.595562   -1.123252
     43          6           0        4.223053    0.542944    0.073879
     44          1           0        3.856972   -0.294458    0.679081
     45          1           0        4.492904    0.135539   -0.909560
     46          8           0        2.929278    2.551856   -2.280137
     47          6           0        5.450805    1.160351    0.755360
     48          1           0        5.140646    1.614948    1.706622
     49          1           0        5.856028    1.975642    0.143763
     50          6           0        6.553609    0.125562    1.016809
     51          1           0        6.155151   -0.684869    1.646412
     52          1           0        6.848826   -0.340790    0.065161
     53          6           0        7.812249    0.712792    1.687658
     54          1           0        8.574529   -0.073290    1.751835
     55          1           0        8.234198    1.495643    1.043515
     56          7           0        7.653596    1.282734    3.025597
     57          1           0        7.256490    0.593116    3.662014
     58          1           0        7.012756    2.073390    3.011650
     59          8           0        4.001669    3.608147   -0.599439
     60          1           0        0.375664   -3.397585    2.047449
     61          1           0       -5.417526    0.632892    1.908303
     62          1           0        4.169939    4.245825   -1.320706
 ---------------------------------------------------------------------

 SCF Done:  E(RB3LYP) =  -1526.20296477     A.U. after    1 cycles

 Alpha  occ. eigenvalues --  -19.34390 -19.33074 -19.29082 -19.28071 -19.25647
 Alpha  occ. eigenvalues --  -19.23497 -19.22494 -14.52357 -14.49272 -14.46293
 Alpha  occ. eigenvalues --  -14.36732 -10.46679 -10.46339 -10.41523 -10.39925
 Alpha  occ. eigenvalues --  -10.39336 -10.36654 -10.35018 -10.34148 -10.33361
 Alpha  occ. eigenvalues --  -10.33311 -10.30600 -10.28426 -10.28075 -10.28049
 Alpha  occ. eigenvalues --  -10.27594 -10.27359 -10.26936 -10.26332 -10.25790
 Alpha  occ. eigenvalues --  -10.24697  -1.25413  -1.24494  -1.20092  -1.15210
 Alpha  occ. eigenvalues --   -1.14618  -1.13885  -1.11178  -1.09908  -1.05627
 Alpha  occ. eigenvalues --   -1.02927  -0.94704  -0.93990  -0.93521  -0.91147
 Alpha  occ. eigenvalues --   -0.88343  -0.86477  -0.83868  -0.83420  -0.82741
 Alpha  occ. eigenvalues --   -0.79861  -0.78357  -0.76901  -0.75563  -0.73299
 Alpha  occ. eigenvalues --   -0.72374  -0.70797  -0.70262  -0.68256  -0.67694
 Alpha  occ. eigenvalues --   -0.67519  -0.66815  -0.65964  -0.64790  -0.64634
 Alpha  occ. eigenvalues --   -0.64322  -0.62942  -0.61746  -0.61471  -0.59660
 Alpha  occ. eigenvalues --   -0.59605  -0.58805  -0.58075  -0.57345  -0.56706
 Alpha  occ. eigenvalues --   -0.56178  -0.55828  -0.55642  -0.55041  -0.54640
 Alpha  occ. eigenvalues --   -0.54147  -0.53833  -0.53204  -0.52958  -0.52097
 Alpha  occ. eigenvalues --   -0.51371  -0.50966  -0.50738  -0.50385  -0.49868
 Alpha  occ. eigenvalues --   -0.49457  -0.49312  -0.48993  -0.48454  -0.47657
 Alpha  occ. eigenvalues --   -0.47345  -0.47051  -0.45853  -0.45484  -0.45042
 Alpha  occ. eigenvalues --   -0.44637  -0.43344  -0.42947  -0.42934  -0.42190
 Alpha  occ. eigenvalues --   -0.42050  -0.41487  -0.41156  -0.41026  -0.40125
 Alpha  occ. eigenvalues --   -0.39334  -0.37448  -0.36367  -0.35590  -0.33776
 Alpha  occ. eigenvalues --   -0.30289  -0.28661
 Alpha virt. eigenvalues --   -0.15828  -0.13349  -0.09417  -0.08707  -0.08252
 Alpha virt. eigenvalues --   -0.07503  -0.06576  -0.04585  -0.04065  -0.02038
 Alpha virt. eigenvalues --   -0.01627  -0.01083  -0.00873  -0.00187   0.00170

 Mulliken charges:
               1
     1  N   -0.801929
     2  H    0.366555
     3  H    0.355912
     4  C   -0.051818
     5  H    0.224081
     6  C    0.635836
     7  C   -0.312440
     8  H    0.185175
     9  H    0.192985
    10  O   -0.535796
    11  C   -0.366805
    12  H    0.210678
    13  H    0.214874
    14  C    0.606955
    15  O   -0.495727
    16  O   -0.523993
    17  N   -0.576611
    18  H    0.425786
    19  C   -0.107444
    20  H    0.196028
    21  C    0.643338
    22  C   -0.356315
    23  H    0.185681
    24  H    0.171402
    25  O   -0.538764
    26  C    0.127431
    27  C   -0.187768
    28  H    0.126785
    29  C   -0.199289
    30  H    0.139975
    31  C   -0.149610
    32  H    0.161566
    33  C   -0.177395
    34  H    0.140563
    35  O   -0.625954
    36  H    0.418739
    37  C    0.362147
    38  N   -0.623690
    39  H    0.377445
    40  C   -0.028445
    41  H    0.195801
    42  C    0.581955
    43  C   -0.271336
    44  H    0.165860
    45  H    0.148232
    46  O   -0.460266
    47  C   -0.263424
    48  H    0.130712
    49  H    0.150775
    50  C   -0.263188
    51  H    0.123372
    52  H    0.131832
    53  C   -0.146013
    54  H    0.151709
    55  H    0.145829
    56  N   -0.701033
    57  H    0.292550
    58  H    0.298163
    59  O   -0.552689
    60  H    0.467564
    61  H    0.436423
    62  H    0.427031
 Sum of Mulliken charges =   1.00000

 Dipole moment (field-independent basis, Debye):
    X=             -4.7417    Y=             -6.7624    Z=              5.6229  Tot=              9.9915
 Quadrupole moment (field-independent basis, Debye-Ang):
   XX=           -136.1044   YY=           -143.3475   ZZ=           -131.6367
   XY=             13.7725   XZ=            -42.8028   YZ=            -30.4333

 Normal termination of Gaussian 16 at Tue May 24 03:30:34 2022.
