 Gaussian 16, Revision C.01,
 Gaussian 16:  ES64L-G16RevC.01  3-Jul-2019

 -------------------------------------------------------------------
 # B3LYP/6-31G* guess=read geom=check nosymm integral(ultrafinegrid)
 -------------------------------------------------------------------

 ------------------------------------------------------
 Candidate Structure: Conf:112 Charge calc in gas phase
 ------------------------------------------------------
 Structure from the checkpoint file:  "conf-112.chk"
 Charge =  1 Multiplicity = 1

                          Input orientation:
 ---------------------------------------------------------------------
 Center     Atomic      Atomic             Coordinates (Angstroms)
 Number     Number       Type             X           Y           Z
 ---------------------------------------------------------------------
      1          7           0       -1.151018    0.559039    3.231792
      2          1           0       -1.414074    0.815057    4.179420
      3          1           0       -0.141955    0.409214    3.189059
      4          6           0       -1.867306   -0.617544    2.761336
      5          1           0       -2.926275   -0.499629    3.026702
      6          6           0       -1.795190   -0.709730    1.213462
      7          6           0       -1.328548   -1.926832    3.407988
      8          1           0       -1.404869   -1.848721    4.496474
      9          1           0       -0.270078   -2.024452    3.144569
     10          8           0       -2.072094   -1.771575    0.625745
     11          6           0       -2.131491   -3.166522    2.901523
     12          1           0       -2.227707   -2.968643    1.778368
     13          1           0       -3.140287   -3.275303    3.309636
     14          6           0       -1.431424   -4.381101    3.054269
     15          8           0       -0.661767   -5.211853    3.168229
     16          8           0       -3.403401   -5.641030    2.487492
     17          7           0       -1.436137    0.430475    0.607552
     18          1           0       -1.232019    1.173085    1.274073
     19          6           0       -0.881618    0.561414   -0.757913
     20          1           0       -0.817911    1.639686   -0.940116
     21          6           0        0.541642   -0.041051   -0.672146
     22          6           0       -1.734303   -0.074088   -1.867948
     23          1           0       -1.682219   -1.159164   -1.767297
     24          1           0       -2.775318    0.224771   -1.700338
     25          8           0        0.773655   -1.221584   -0.892118
     26          6           0       -1.273959    0.367548   -3.242847
     27          6           0       -1.754304    1.556404   -3.814023
     28          1           0       -2.487529    2.153571   -3.274748
     29          6           0       -0.347919   -0.385795   -3.974485
     30          1           0        0.043465   -1.307140   -3.552466
     31          6           0       -1.330813    1.984870   -5.067454
     32          1           0       -1.712306    2.898703   -5.511579
     33          6           0        0.085378    0.029262   -5.233563
     34          1           0        0.800673   -0.574412   -5.789310
     35          8           0       -0.025474    1.680600   -7.010663
     36          1           0        0.584672    1.046953   -7.419565
     37          6           0       -0.405238    1.217472   -5.785103
     38          7           0        1.500337    0.817466   -0.211071
     39          1           0        1.245689    1.763333    0.039010
     40          6           0        2.780465    0.316922    0.248541
     41          1           0        3.180199   -0.360247   -0.512668
     42          6           0        2.602291   -0.516724    1.522893
     43          6           0        3.782968    1.465498    0.487953
     44          1           0        3.364991    2.155809    1.236222
     45          1           0        4.685999    1.035194    0.934021
     46          8           0        1.639409   -0.497526    2.270238
     47          6           0        4.159035    2.228021   -0.790208
     48          1           0        3.259719    2.662356   -1.249602
     49          1           0        4.570976    1.515083   -1.516061
     50          6           0        5.189953    3.332622   -0.524891
     51          1           0        4.790350    4.039501    0.216689
     52          1           0        6.095081    2.885781   -0.094391
     53          6           0        5.590848    4.113404   -1.782968
     54          1           0        4.710717    4.660083   -2.168794
     55          1           0        6.325566    4.873317   -1.494504
     56          7           0        6.223088    3.235493   -2.775856
     57          1           0        6.761745    3.791269   -3.436685
     58          1           0        5.513951    2.759190   -3.329711
     59          8           0        3.682858   -1.278502    1.749937
     60          1           0       -3.427036   -6.560993    2.797767
     61          1           0       -3.730968   -5.678634    1.573998
     62          1           0        3.544984   -1.751592    2.592138
 ---------------------------------------------------------------------

 SCF Done:  E(RB3LYP) =  -1526.13135960     A.U. after    3 cycles

 Alpha  occ. eigenvalues --  -19.43321 -19.30562 -19.30200 -19.25166 -19.24621
 Alpha  occ. eigenvalues --  -19.23735 -19.21024 -14.47340 -14.45890 -14.44602
 Alpha  occ. eigenvalues --  -14.36894 -10.53550 -10.42797 -10.41008 -10.38444
 Alpha  occ. eigenvalues --  -10.38169 -10.36315 -10.35189 -10.33587 -10.33470
 Alpha  occ. eigenvalues --  -10.31074 -10.28357 -10.26690 -10.26660 -10.26097
 Alpha  occ. eigenvalues --  -10.25587 -10.25457 -10.25271 -10.25078 -10.24619
 Alpha  occ. eigenvalues --  -10.24554  -1.33763  -1.21331  -1.15966  -1.15780
 Alpha  occ. eigenvalues --   -1.13146  -1.12106  -1.11834  -1.04701  -1.02418
 Alpha  occ. eigenvalues --   -1.01634  -0.98175  -0.93681  -0.91825  -0.89265
 Alpha  occ. eigenvalues --   -0.87269  -0.86150  -0.83598  -0.81022  -0.80881
 Alpha  occ. eigenvalues --   -0.77340  -0.76982  -0.74403  -0.72818  -0.71804
 Alpha  occ. eigenvalues --   -0.69846  -0.68873  -0.68469  -0.68166  -0.67724
 Alpha  occ. eigenvalues --   -0.67588  -0.66593  -0.65406  -0.65202  -0.64668
 Alpha  occ. eigenvalues --   -0.64391  -0.61384  -0.60845  -0.60628  -0.60396
 Alpha  occ. eigenvalues --   -0.59863  -0.59409  -0.57841  -0.56844  -0.55926
 Alpha  occ. eigenvalues --   -0.55675  -0.55137  -0.54606  -0.54475  -0.54112
 Alpha  occ. eigenvalues --   -0.53649  -0.53014  -0.52250  -0.52112  -0.51460
 Alpha  occ. eigenvalues --   -0.51053  -0.50463  -0.50194  -0.49677  -0.48706
 Alpha  occ. eigenvalues --   -0.48312  -0.47717  -0.47583  -0.46822  -0.46469
 Alpha  occ. eigenvalues --   -0.46079  -0.45793  -0.45763  -0.44730  -0.44101
 Alpha  occ. eigenvalues --   -0.43304  -0.42484  -0.42132  -0.41046  -0.40462
 Alpha  occ. eigenvalues --   -0.39902  -0.39791  -0.39380  -0.38852  -0.38337
 Alpha  occ. eigenvalues --   -0.38218  -0.35994  -0.35334  -0.33777  -0.31372
 Alpha  occ. eigenvalues --   -0.29185  -0.27981
 Alpha virt. eigenvalues --   -0.20713  -0.20032  -0.10802  -0.09920  -0.07952
 Alpha virt. eigenvalues --   -0.07189  -0.06236  -0.05155  -0.04021  -0.03466
 Alpha virt. eigenvalues --   -0.02504  -0.02443  -0.00035   0.01089   0.01191

 Mulliken charges:
               1
     1  N   -0.767090
     2  H    0.332608
     3  H    0.361113
     4  C   -0.069534
     5  H    0.191920
     6  C    0.657614
     7  C   -0.311188
     8  H    0.190334
     9  H    0.209692
    10  O   -0.542615
    11  C   -0.436006
    12  H    0.340857
    13  H    0.272588
    14  C    0.626257
    15  O   -0.217054
    16  O   -0.785254
    17  N   -0.596072
    18  H    0.370258
    19  C   -0.067820
    20  H    0.162545
    21  C    0.660754
    22  C   -0.355878
    23  H    0.197506
    24  H    0.155280
    25  O   -0.518725
    26  C    0.139635
    27  C   -0.192099
    28  H    0.125863
    29  C   -0.189805
    30  H    0.152875
    31  C   -0.156415
    32  H    0.151013
    33  C   -0.195535
    34  H    0.128658
    35  O   -0.634661
    36  H    0.412659
    37  C    0.353025
    38  N   -0.604438
    39  H    0.332535
    40  C   -0.026833
    41  H    0.209547
    42  C    0.605099
    43  C   -0.307098
    44  H    0.140731
    45  H    0.181428
    46  O   -0.506374
    47  C   -0.266098
    48  H    0.131979
    49  H    0.158368
    50  C   -0.235850
    51  H    0.125471
    52  H    0.151457
    53  C   -0.149997
    54  H    0.118360
    55  H    0.150894
    56  N   -0.716803
    57  H    0.308574
    58  H    0.297054
    59  O   -0.540863
    60  H    0.433134
    61  H    0.433890
    62  H    0.418529
 Sum of Mulliken charges =   1.00000

 Dipole moment (field-independent basis, Debye):
    X=             -3.8944    Y=             -9.4814    Z=             10.7409  Tot=             14.8469
 Quadrupole moment (field-independent basis, Debye-Ang):
   XX=           -144.3003   YY=            -93.9778   ZZ=           -116.0171
   XY=             44.1099   XZ=            -29.8093   YZ=            -41.0137

 Normal termination of Gaussian 16 at Tue May 24 03:31:08 2022.
