 Gaussian 16, Revision C.01,
 Gaussian 16:  ES64L-G16RevC.01  3-Jul-2019

 -------------------------------------------------------------------
 # B3LYP/6-31G* guess=read geom=check nosymm integral(ultrafinegrid)
 -------------------------------------------------------------------

 ------------------------------------------------------
 Candidate Structure: Conf:549 Charge calc in gas phase
 ------------------------------------------------------
 Structure from the checkpoint file:  "conf-549.chk"
 Charge =  1 Multiplicity = 1

                          Input orientation:
 ---------------------------------------------------------------------
 Center     Atomic      Atomic             Coordinates (Angstroms)
 Number     Number       Type             X           Y           Z
 ---------------------------------------------------------------------
      1          7           0       -0.328423   -2.403870    3.612635
      2          1           0       -0.123042   -2.903772    2.751020
      3          1           0        0.532143   -1.999810    3.970423
      4          6           0       -1.396429   -1.432145    3.464377
      5          1           0       -1.403847   -0.829332    4.384572
      6          6           0       -1.297216   -0.406137    2.300321
      7          6           0       -2.731029   -2.213107    3.387499
      8          1           0       -2.780303   -2.928106    4.209685
      9          1           0       -2.778056   -2.775496    2.448721
     10          8           0       -2.270979    0.323202    2.013677
     11          6           0       -3.990240   -1.288201    3.373966
     12          1           0       -4.888891   -1.781462    2.986895
     13          1           0       -3.686026   -0.402648    2.734316
     14          6           0       -4.320249   -0.737227    4.636925
     15          8           0       -4.505955   -0.115606    5.566975
     16          8           0       -5.080550   -2.872212    5.598685
     17          7           0       -0.128338   -0.340943    1.667137
     18          1           0        0.674239   -0.893968    1.965342
     19          6           0        0.201348    0.614343    0.614079
     20          1           0       -0.195547    1.595324    0.896130
     21          6           0        1.746386    0.651633    0.602993
     22          6           0       -0.426696    0.191216   -0.747015
     23          1           0        0.002339   -0.774432   -1.038552
     24          1           0       -1.492589    0.028306   -0.549048
     25          8           0        2.384264   -0.234165    1.178679
     26          6           0       -0.244739    1.204570   -1.855510
     27          6           0       -0.847980    2.472437   -1.783617
     28          1           0       -1.490537    2.716804   -0.939193
     29          6           0        0.534351    0.916812   -2.982927
     30          1           0        0.992343   -0.065269   -3.080783
     31          6           0       -0.644388    3.429557   -2.772775
     32          1           0       -1.101208    4.412109   -2.706532
     33          6           0        0.730160    1.858058   -3.992675
     34          1           0        1.314518    1.602859   -4.872012
     35          8           0        0.356993    4.110944   -4.801585
     36          1           0        1.215256    3.978482   -5.301584
     37          6           0        0.167330    3.141207   -3.884273
     38          7           0        2.312318    1.683378   -0.056080
     39          1           0        1.706483    2.354978   -0.510442
     40          6           0        3.755393    1.867223   -0.139510
     41          1           0        4.190269    0.940586    0.250526
     42          6           0        4.277930    2.979506    0.776333
     43          6           0        4.244004    2.069954   -1.588495
     44          1           0        5.337814    2.028460   -1.577306
     45          1           0        3.888922    1.211527   -2.170974
     46          8           0        5.406152    3.410544    0.716546
     47          6           0        3.785249    3.378288   -2.250246
     48          1           0        4.304482    4.225316   -1.784029
     49          1           0        2.709737    3.536790   -2.086825
     50          6           0        4.022201    3.377525   -3.766692
     51          1           0        5.082743    3.191669   -3.981955
     52          1           0        3.462923    2.537815   -4.197052
     53          6           0        3.559098    4.673829   -4.456129
     54          1           0        2.797791    5.173226   -3.846175
     55          1           0        4.401618    5.373211   -4.555318
     56          7           0        2.917605    4.375938   -5.758301
     57          1           0        3.533580    3.798460   -6.330678
     58          1           0        2.778162    5.241120   -6.281105
     59          8           0        3.364702    3.413955    1.673675
     60          1           0       -5.395661   -3.737461    5.293689
     61          1           0       -5.249864   -2.869123    6.554281
     62          1           0        3.820832    4.090503    2.210904
 ---------------------------------------------------------------------

 SCF Done:  E(RB3LYP) =  -1526.14162091     A.U. after    1 cycles

 Alpha  occ. eigenvalues --  -19.45205 -19.30461 -19.27315 -19.24266 -19.21251
 Alpha  occ. eigenvalues --  -19.21222 -19.21030 -14.47362 -14.45204 -14.44471
 Alpha  occ. eigenvalues --  -14.40853 -10.55093 -10.40801 -10.39804 -10.39495
 Alpha  occ. eigenvalues --  -10.38336 -10.36568 -10.35581 -10.33467 -10.31890
 Alpha  occ. eigenvalues --  -10.30965 -10.28221 -10.28157 -10.26370 -10.26309
 Alpha  occ. eigenvalues --  -10.26089 -10.26045 -10.25722 -10.25414 -10.25134
 Alpha  occ. eigenvalues --  -10.24959  -1.35642  -1.18089  -1.15931  -1.15547
 Alpha  occ. eigenvalues --   -1.13100  -1.09673  -1.08984  -1.04294  -1.02101
 Alpha  occ. eigenvalues --   -1.01791  -0.99108  -0.96478  -0.92239  -0.88612
 Alpha  occ. eigenvalues --   -0.87326  -0.86465  -0.83325  -0.81358  -0.81080
 Alpha  occ. eigenvalues --   -0.77648  -0.76736  -0.74305  -0.73591  -0.71035
 Alpha  occ. eigenvalues --   -0.70404  -0.69289  -0.68681  -0.68595  -0.68015
 Alpha  occ. eigenvalues --   -0.67509  -0.67390  -0.66424  -0.65517  -0.65214
 Alpha  occ. eigenvalues --   -0.64326  -0.62562  -0.61570  -0.60415  -0.60178
 Alpha  occ. eigenvalues --   -0.58328  -0.57417  -0.56805  -0.56343  -0.55985
 Alpha  occ. eigenvalues --   -0.55611  -0.54950  -0.54558  -0.54263  -0.53460
 Alpha  occ. eigenvalues --   -0.53276  -0.53103  -0.52255  -0.51831  -0.51610
 Alpha  occ. eigenvalues --   -0.51009  -0.50924  -0.50307  -0.49364  -0.48969
 Alpha  occ. eigenvalues --   -0.48565  -0.48334  -0.47458  -0.47266  -0.46605
 Alpha  occ. eigenvalues --   -0.46227  -0.45695  -0.45180  -0.43977  -0.43524
 Alpha  occ. eigenvalues --   -0.43452  -0.42133  -0.41008  -0.40550  -0.40355
 Alpha  occ. eigenvalues --   -0.40263  -0.39879  -0.38985  -0.38337  -0.37224
 Alpha  occ. eigenvalues --   -0.36650  -0.35320  -0.35066  -0.33175  -0.33087
 Alpha  occ. eigenvalues --   -0.31902  -0.27858
 Alpha virt. eigenvalues --   -0.22680  -0.20861  -0.10272  -0.08579  -0.07297
 Alpha virt. eigenvalues --   -0.06950  -0.06495  -0.05729  -0.04426  -0.03420
 Alpha virt. eigenvalues --   -0.01863   0.00106   0.00503   0.00879   0.01112

 Mulliken charges:
               1
     1  N   -0.723728
     2  H    0.325868
     3  H    0.341098
     4  C   -0.084700
     5  H    0.176665
     6  C    0.632908
     7  C   -0.280265
     8  H    0.218682
     9  H    0.199887
    10  O   -0.561185
    11  C   -0.441717
    12  H    0.267580
    13  H    0.335599
    14  C    0.667257
    15  O   -0.201992
    16  O   -0.799419
    17  N   -0.601761
    18  H    0.352316
    19  C   -0.059719
    20  H    0.189548
    21  C    0.627523
    22  C   -0.347215
    23  H    0.155741
    24  H    0.175654
    25  O   -0.541574
    26  C    0.137295
    27  C   -0.212708
    28  H    0.133030
    29  C   -0.191792
    30  H    0.131118
    31  C   -0.164627
    32  H    0.148090
    33  C   -0.194893
    34  H    0.140598
    35  O   -0.684109
    36  H    0.457308
    37  C    0.362519
    38  N   -0.599265
    39  H    0.359486
    40  C   -0.082622
    41  H    0.222226
    42  C    0.600352
    43  C   -0.263942
    44  H    0.178588
    45  H    0.152439
    46  O   -0.451924
    47  C   -0.292850
    48  H    0.164190
    49  H    0.137615
    50  C   -0.277338
    51  H    0.150761
    52  H    0.148655
    53  C   -0.141939
    54  H    0.163631
    55  H    0.150458
    56  N   -0.772298
    57  H    0.322681
    58  H    0.331342
    59  O   -0.567205
    60  H    0.430208
    61  H    0.432190
    62  H    0.419680
 Sum of Mulliken charges =   1.00000

 Dipole moment (field-independent basis, Debye):
    X=            -10.4243    Y=             -3.2772    Z=             12.1811  Tot=             16.3641
 Quadrupole moment (field-independent basis, Debye-Ang):
   XX=           -102.2342   YY=           -136.2418   ZZ=            -66.9194
   XY=             53.6227   XZ=            -99.5344   YZ=            -48.5060

 Normal termination of Gaussian 16 at Tue May 24 03:30:59 2022.
