 Gaussian 16, Revision C.01,
 Gaussian 16:  ES64L-G16RevC.01  3-Jul-2019

 -------------------------------------------------------------------
 # B3LYP/6-31G* guess=read geom=check nosymm integral(ultrafinegrid)
 -------------------------------------------------------------------

 ------------------------------------------------------
 Candidate Structure: Conf:883 Charge calc in gas phase
 ------------------------------------------------------
 Structure from the checkpoint file:  "conf-883.chk"
 Charge =  1 Multiplicity = 1

                          Input orientation:
 ---------------------------------------------------------------------
 Center     Atomic      Atomic             Coordinates (Angstroms)
 Number     Number       Type             X           Y           Z
 ---------------------------------------------------------------------
      1          7           0       -2.706243   -4.054703    1.701744
      2          1           0       -3.266690   -3.290549    1.251757
      3          1           0       -2.581227   -4.794281    1.005204
      4          6           0       -1.409520   -3.373727    2.058306
      5          1           0       -0.586316   -4.060979    1.843511
      6          6           0       -1.377428   -2.138053    1.111450
      7          6           0       -1.386262   -2.935006    3.536265
      8          1           0       -2.275733   -2.326484    3.741082
      9          1           0       -0.531080   -2.259619    3.640329
     10          8           0       -2.442545   -1.788877    0.587877
     11          6           0       -1.230379   -4.036740    4.601933
     12          1           0       -0.894436   -3.586915    5.541256
     13          1           0       -0.442653   -4.750853    4.322214
     14          6           0       -2.481481   -4.837202    4.899905
     15          8           0       -3.425120   -4.994419    4.131460
     16          8           0       -2.452042   -5.385537    6.108819
     17          7           0       -0.200700   -1.536168    0.970643
     18          1           0        0.652416   -1.860454    1.429791
     19          6           0        0.025138   -0.315837    0.192602
     20          1           0       -0.812586    0.366757    0.364779
     21          6           0        1.330530    0.262223    0.781254
     22          6           0        0.121992   -0.639308   -1.327083
     23          1           0        0.943887   -1.350572   -1.468584
     24          1           0       -0.808379   -1.158011   -1.588497
     25          8           0        2.114075   -0.491733    1.367162
     26          6           0        0.323221    0.574197   -2.205390
     27          6           0       -0.684048    1.543408   -2.349240
     28          1           0       -1.645014    1.402302   -1.856774
     29          6           0        1.524448    0.771683   -2.896191
     30          1           0        2.311895    0.023929   -2.827097
     31          6           0       -0.483914    2.686860   -3.116060
     32          1           0       -1.259773    3.439472   -3.215718
     33          6           0        1.731701    1.901345   -3.685886
     34          1           0        2.658706    2.019088   -4.239672
     35          8           0        0.895174    4.025819   -4.491566
     36          1           0        1.863642    4.257781   -4.592858
     37          6           0        0.738376    2.890597   -3.780756
     38          7           0        1.526277    1.583503    0.612348
     39          1           0        0.793288    2.137083    0.186851
     40          6           0        2.671281    2.292789    1.168354
     41          1           0        3.224393    1.566694    1.769573
     42          6           0        2.155208    3.398654    2.085849
     43          6           0        3.614301    2.860053    0.077829
     44          1           0        4.543006    3.178691    0.564650
     45          1           0        3.867304    2.025037   -0.586052
     46          8           0        1.005029    3.771684    2.142110
     47          6           0        3.022207    4.019523   -0.736872
     48          1           0        2.953104    4.917612   -0.107635
     49          1           0        1.997635    3.777411   -1.048758
     50          6           0        3.834192    4.326544   -2.002330
     51          1           0        4.883504    4.520693   -1.742568
     52          1           0        3.827643    3.430891   -2.635039
     53          6           0        3.261638    5.503040   -2.814099
     54          1           0        2.195656    5.627523   -2.592901
     55          1           0        3.761590    6.439546   -2.527075
     56          7           0        3.355204    5.236414   -4.268131
     57          1           0        4.310874    4.985033   -4.520965
     58          1           0        3.141004    6.086708   -4.789978
     59          8           0        3.157050    3.939033    2.807793
     60          1           0       -3.169443   -4.451578    2.559319
     61          1           0       -3.267838   -5.910548    6.234758
     62          1           0        2.768335    4.657218    3.343443
 ---------------------------------------------------------------------

 SCF Done:  E(RB3LYP) =  -1526.23854725     A.U. after    2 cycles

 Alpha  occ. eigenvalues --  -19.33897 -19.29564 -19.28084 -19.26146 -19.22510
 Alpha  occ. eigenvalues --  -19.22008 -19.21144 -14.57653 -14.49138 -14.45936
 Alpha  occ. eigenvalues --  -14.41035 -10.47414 -10.43169 -10.40722 -10.40508
 Alpha  occ. eigenvalues --  -10.39164 -10.35395 -10.34943 -10.34416 -10.32568
 Alpha  occ. eigenvalues --  -10.30997 -10.28627 -10.28484 -10.27189 -10.26373
 Alpha  occ. eigenvalues --  -10.26205 -10.26103 -10.26088 -10.25796 -10.25162
 Alpha  occ. eigenvalues --  -10.24948  -1.25514  -1.19049  -1.18469  -1.16525
 Alpha  occ. eigenvalues --   -1.13979  -1.12303  -1.10165  -1.09787  -1.05715
 Alpha  occ. eigenvalues --   -1.02488  -0.96692  -0.95635  -0.92439  -0.89900
 Alpha  occ. eigenvalues --   -0.88622  -0.86660  -0.83948  -0.81685  -0.81326
 Alpha  occ. eigenvalues --   -0.79797  -0.77183  -0.75020  -0.73746  -0.72781
 Alpha  occ. eigenvalues --   -0.72327  -0.71932  -0.70968  -0.69769  -0.68128
 Alpha  occ. eigenvalues --   -0.67873  -0.66271  -0.65832  -0.65465  -0.64442
 Alpha  occ. eigenvalues --   -0.63622  -0.61768  -0.60908  -0.60363  -0.59702
 Alpha  occ. eigenvalues --   -0.58746  -0.57527  -0.57393  -0.56852  -0.56730
 Alpha  occ. eigenvalues --   -0.55857  -0.55696  -0.55236  -0.54884  -0.54606
 Alpha  occ. eigenvalues --   -0.53999  -0.53440  -0.52688  -0.52288  -0.51629
 Alpha  occ. eigenvalues --   -0.51494  -0.51240  -0.50716  -0.50058  -0.49908
 Alpha  occ. eigenvalues --   -0.49483  -0.48689  -0.48454  -0.47784  -0.46904
 Alpha  occ. eigenvalues --   -0.46490  -0.46451  -0.45772  -0.44909  -0.44188
 Alpha  occ. eigenvalues --   -0.43831  -0.43208  -0.42371  -0.41569  -0.40886
 Alpha  occ. eigenvalues --   -0.40676  -0.40587  -0.40245  -0.40028  -0.38993
 Alpha  occ. eigenvalues --   -0.37834  -0.36368  -0.35877  -0.35076  -0.33318
 Alpha  occ. eigenvalues --   -0.31934  -0.27899
 Alpha virt. eigenvalues --   -0.14018  -0.11916  -0.09175  -0.07806  -0.07386
 Alpha virt. eigenvalues --   -0.07289  -0.05875  -0.04553  -0.04092  -0.03150
 Alpha virt. eigenvalues --   -0.01693  -0.00540  -0.00044   0.00274   0.00550

 Mulliken charges:
               1
     1  N   -0.778667
     2  H    0.422509
     3  H    0.405041
     4  C   -0.113249
     5  H    0.203727
     6  C    0.648952
     7  C   -0.304890
     8  H    0.198266
     9  H    0.207583
    10  O   -0.533079
    11  C   -0.378022
    12  H    0.227163
    13  H    0.211245
    14  C    0.617111
    15  O   -0.496750
    16  O   -0.520070
    17  N   -0.611650
    18  H    0.367291
    19  C   -0.062561
    20  H    0.191912
    21  C    0.626503
    22  C   -0.351542
    23  H    0.158008
    24  H    0.177791
    25  O   -0.546298
    26  C    0.153704
    27  C   -0.215097
    28  H    0.133162
    29  C   -0.192973
    30  H    0.130022
    31  C   -0.163902
    32  H    0.150437
    33  C   -0.195821
    34  H    0.139754
    35  O   -0.683184
    36  H    0.457424
    37  C    0.362827
    38  N   -0.582202
    39  H    0.360877
    40  C   -0.081427
    41  H    0.213305
    42  C    0.593277
    43  C   -0.261221
    44  H    0.170466
    45  H    0.162088
    46  O   -0.462094
    47  C   -0.290087
    48  H    0.151502
    49  H    0.151413
    50  C   -0.277800
    51  H    0.146871
    52  H    0.151820
    53  C   -0.142486
    54  H    0.167167
    55  H    0.148090
    56  N   -0.771901
    57  H    0.322219
    58  H    0.331794
    59  O   -0.559853
    60  H    0.447771
    61  H    0.443714
    62  H    0.424023
 Sum of Mulliken charges =   1.00000

 Dipole moment (field-independent basis, Debye):
    X=             -1.0252    Y=             -9.7585    Z=              9.5183  Tot=             13.6703
 Quadrupole moment (field-independent basis, Debye-Ang):
   XX=           -140.0804   YY=            -63.0126   ZZ=           -121.5682
   XY=             69.8776   XZ=            -40.9598   YZ=            -61.0997

 Normal termination of Gaussian 16 at Tue May 24 03:31:19 2022.
