 Gaussian 16, Revision C.01,
 Gaussian 16:  ES64L-G16RevC.01  3-Jul-2019

 ----------------------------------------------------------------------
 # B3LYP/6-31G* empiricaldispersion=gd3 guess=read geom=check nosymm in
 tegral(ultrafinegrid)
 ----------------------------------------------------------------------

 ------------------------------------------------------
 Candidate Structure: Conf:549 Charge calc in gas phase
 ------------------------------------------------------
 Structure from the checkpoint file:  "conf-549.chk"
 Charge =  1 Multiplicity = 1

                          Input orientation:
 ---------------------------------------------------------------------
 Center     Atomic      Atomic             Coordinates (Angstroms)
 Number     Number       Type             X           Y           Z
 ---------------------------------------------------------------------
      1          7           0       -3.843962    3.907795    0.906872
      2          1           0       -3.116038    3.645964    1.571199
      3          1           0       -4.724472    3.574193    1.294386
      4          6           0       -3.573358    3.281229   -0.373789
      5          1           0       -4.470785    3.373619   -0.991415
      6          6           0       -3.148259    1.814322   -0.275536
      7          6           0       -2.388018    4.009897   -1.093830
      8          1           0       -1.737215    4.403754   -0.304095
      9          1           0       -1.796394    3.279765   -1.657907
     10          8           0       -2.515956    1.397504    0.711906
     11          6           0       -2.841035    5.104864   -2.029111
     12          6           0       -2.630454    4.984283   -3.408651
     13          1           0       -2.113986    4.106079   -3.796304
     14          6           0       -3.505106    6.238408   -1.539594
     15          1           0       -3.678681    6.329224   -0.471255
     16          6           0       -3.070143    5.975485   -4.289026
     17          1           0       -2.895940    5.870461   -5.356374
     18          6           0       -3.946522    7.227544   -2.418009
     19          1           0       -4.458146    8.103198   -2.028574
     20          6           0       -3.730304    7.100116   -3.793355
     21          1           0       -4.072506    7.874877   -4.473244
     22          7           0       -3.372564    1.016576   -1.353166
     23          6           0       -2.947572   -0.394486   -1.356068
     24          1           0       -3.207763   -0.865041   -0.401481
     25          6           0       -1.439338   -0.434829   -1.476810
     26          6           0       -3.676340   -0.991341   -2.569662
     27          1           0       -3.159152   -1.856073   -2.990329
     28          1           0       -4.670731   -1.312953   -2.245733
     29          8           0       -0.836088   -0.940169   -2.535901
     30          6           0       -3.773041    0.200565   -3.536628
     31          1           0       -2.814829    0.351125   -4.044523
     32          1           0       -4.547188    0.069393   -4.295535
     33          6           0       -4.058810    1.390923   -2.613357
     34          1           0       -5.132307    1.506590   -2.424555
     35          1           0       -3.667528    2.332433   -3.002790
     36          7           0       -0.624791    0.049163   -0.585464
     37          1           0       -1.032044    0.556262    0.222300
     38          6           0        0.769649   -0.031708   -1.023943
     39          1           0        1.156409    0.980903   -1.175922
     40          6           0        0.596763   -0.676472   -2.391214
     41          6           0        1.683222   -0.845388   -0.089120
     42          1           0        1.763992   -0.291411    0.851962
     43          1           0        2.679281   -0.842528   -0.547798
     44          8           0        1.358968   -0.990512   -3.234529
     45          6           0        1.210141   -2.286016    0.151313
     46          1           0        0.205534   -2.273465    0.597375
     47          1           0        1.122887   -2.802903   -0.814698
     48          6           0        2.155088   -3.086760    1.063340
     49          1           0        3.169071   -3.081425    0.638471
     50          1           0        1.827550   -4.134565    1.065068
     51          6           0        2.204559   -2.587700    2.521548
     52          1           0        2.582196   -1.557452    2.557379
     53          1           0        1.181687   -2.553492    2.922664
     54          7           0        3.019002   -3.377974    3.437697
     55          1           0        3.987449   -3.405064    3.123107
     56          1           0        2.694607   -4.343376    3.461582
     57          8           0       -0.481925    1.798971   -3.249356
     58          1           0       -0.204430    2.728088   -3.209578
     59          1           0       -0.344808    1.548815   -4.177196
 ---------------------------------------------------------------------

 SCF Done:  E(RB3LYP) =  -1300.55673694     A.U. after    1 cycles

 Alpha  occ. eigenvalues --  -19.38944 -19.32364 -19.30038 -19.25797 -14.55942
 Alpha  occ. eigenvalues --  -14.51053 -14.41893 -14.38852 -10.49520 -10.49333
 Alpha  occ. eigenvalues --  -10.41874 -10.41044 -10.40000 -10.35246 -10.33767
 Alpha  occ. eigenvalues --  -10.33274 -10.33105 -10.31982 -10.30693 -10.29780
 Alpha  occ. eigenvalues --  -10.29412 -10.28380 -10.28009 -10.27698 -10.27204
 Alpha  occ. eigenvalues --  -10.26801 -10.26737 -10.26593  -1.31042  -1.22844
 Alpha  occ. eigenvalues --   -1.17653  -1.15487  -1.13044  -1.08830  -0.99749
 Alpha  occ. eigenvalues --   -0.97048  -0.95947  -0.93832  -0.93602  -0.90854
 Alpha  occ. eigenvalues --   -0.87949  -0.87140  -0.82889  -0.82490  -0.81957
 Alpha  occ. eigenvalues --   -0.80504  -0.78586  -0.77919  -0.74718  -0.74307
 Alpha  occ. eigenvalues --   -0.73188  -0.70470  -0.69438  -0.68751  -0.68238
 Alpha  occ. eigenvalues --   -0.67572  -0.66670  -0.66456  -0.65142  -0.62952
 Alpha  occ. eigenvalues --   -0.62433  -0.61229  -0.60044  -0.59839  -0.59011
 Alpha  occ. eigenvalues --   -0.58631  -0.58453  -0.58153  -0.57268  -0.56913
 Alpha  occ. eigenvalues --   -0.56273  -0.55006  -0.54840  -0.54340  -0.53972
 Alpha  occ. eigenvalues --   -0.53546  -0.53025  -0.52328  -0.51930  -0.51568
 Alpha  occ. eigenvalues --   -0.51287  -0.50064  -0.50023  -0.49672  -0.48640
 Alpha  occ. eigenvalues --   -0.48229  -0.47627  -0.47439  -0.47376  -0.47044
 Alpha  occ. eigenvalues --   -0.46747  -0.45588  -0.45417  -0.44960  -0.44000
 Alpha  occ. eigenvalues --   -0.43656  -0.42451  -0.42437  -0.42068  -0.39789
 Alpha  occ. eigenvalues --   -0.38843  -0.34635  -0.33124  -0.32356  -0.30905
 Alpha virt. eigenvalues --   -0.20461  -0.15341  -0.12236  -0.09579  -0.08603
 Alpha virt. eigenvalues --   -0.08084  -0.04805  -0.03759  -0.02611  -0.01667
 Alpha virt. eigenvalues --   -0.01402  -0.00390  -0.00148  -0.00033   0.00524

 Mulliken charges:
               1
     1  N   -0.690756
     2  H    0.321358
     3  H    0.318514
     4  C   -0.063721
     5  H    0.175306
     6  C    0.585369
     7  C   -0.373394
     8  H    0.177535
     9  H    0.137270
    10  O   -0.575058
    11  C    0.160665
    12  C   -0.203360
    13  H    0.086596
    14  C   -0.174182
    15  H    0.167005
    16  C   -0.128231
    17  H    0.141339
    18  C   -0.128071
    19  H    0.152615
    20  C   -0.126018
    21  H    0.151438
    22  N   -0.429281
    23  C   -0.085946
    24  H    0.225972
    25  C    0.711646
    26  C   -0.309966
    27  H    0.195680
    28  H    0.191980
    29  O   -0.459501
    30  C   -0.313915
    31  H    0.167743
    32  H    0.193636
    33  C   -0.138630
    34  H    0.188472
    35  H    0.201280
    36  N   -0.579674
    37  H    0.430190
    38  C   -0.058596
    39  H    0.241190
    40  C    0.633714
    41  C   -0.275210
    42  H    0.187469
    43  H    0.196275
    44  O   -0.364533
    45  C   -0.297391
    46  H    0.141266
    47  H    0.156901
    48  C   -0.270965
    49  H    0.144341
    50  H    0.150335
    51  C   -0.143379
    52  H    0.142297
    53  H    0.144385
    54  N   -0.696336
    55  H    0.303150
    56  H    0.303539
    57  O   -0.790892
    58  H    0.426502
    59  H    0.424033
 Sum of Mulliken charges =   1.00000

 Dipole moment (field-independent basis, Debye):
    X=             -7.0990    Y=              2.4404    Z=             -8.7405  Tot=             11.5216
 Quadrupole moment (field-independent basis, Debye-Ang):
   XX=           -117.6518   YY=           -128.2034   ZZ=           -141.8911
   XY=            -16.6204   XZ=             19.7916   YZ=            -18.5881

 Normal termination of Gaussian 16 at Thu Jun  2 03:00:13 2022.
