 Gaussian 16, Revision C.01,
 Gaussian 16:  ES64L-G16RevC.01  3-Jul-2019

 ----------------------------------------------------------------------
 # B3LYP/6-31G* empiricaldispersion=gd3 guess=read geom=check nosymm in
 tegral(ultrafinegrid)
 ----------------------------------------------------------------------

 ------------------------------------------------------
 Candidate Structure: Conf:948 Charge calc in gas phase
 ------------------------------------------------------
 Structure from the checkpoint file:  "conf-948.chk"
 Charge =  1 Multiplicity = 1

                          Input orientation:
 ---------------------------------------------------------------------
 Center     Atomic      Atomic             Coordinates (Angstroms)
 Number     Number       Type             X           Y           Z
 ---------------------------------------------------------------------
      1          7           0       -1.827878    4.489366    1.890624
      2          1           0       -2.651338    5.053749    2.104877
      3          1           0       -1.266973    5.076605    1.273869
      4          6           0       -2.264067    3.301034    1.173864
      5          1           0       -1.354078    2.791519    0.830919
      6          6           0       -3.148576    3.617293   -0.050135
      7          6           0       -3.023072    2.344804    2.144361
      8          1           0       -3.452162    2.967232    2.937846
      9          1           0       -3.876718    1.874377    1.643112
     10          8           0       -3.697402    4.698221   -0.185055
     11          6           0       -2.135796    1.279569    2.750428
     12          6           0       -2.441159   -0.082252    2.603194
     13          1           0       -3.342024   -0.377020    2.066847
     14          6           0       -0.996831    1.639657    3.489721
     15          1           0       -0.758126    2.693696    3.603456
     16          6           0       -1.649899   -1.065457    3.209645
     17          1           0       -1.918944   -2.113712    3.112813
     18          6           0       -0.207533    0.659823    4.093209
     19          1           0        0.654032    0.953801    4.686603
     20          6           0       -0.537384   -0.693993    3.964392
     21          1           0        0.060519   -1.452907    4.459311
     22          7           0       -3.314089    2.617344   -0.988724
     23          6           0       -2.740267    1.284415   -0.940007
     24          1           0       -2.869673    0.805547    0.033779
     25          6           0       -1.254196    1.305105   -1.245347
     26          6           0       -3.513004    0.515452   -2.049444
     27          1           0       -2.930884   -0.300120   -2.489593
     28          1           0       -4.398887    0.075719   -1.580252
     29          8           0       -0.892270    2.044487   -2.252332
     30          6           0       -3.906860    1.613617   -3.050622
     31          1           0       -3.078811    1.820605   -3.734944
     32          1           0       -4.775134    1.327047   -3.648808
     33          6           0       -4.183750    2.833008   -2.164649
     34          1           0       -5.228160    2.884547   -1.837074
     35          1           0       -3.935649    3.785776   -2.636535
     36          7           0       -0.407640    0.607715   -0.519518
     37          1           0       -0.812089    0.107348    0.274111
     38          6           0        1.079883    0.686472   -0.515266
     39          1           0        1.333478    1.755506   -0.560864
     40          6           0        1.726288    0.049558   -1.758805
     41          6           0        1.637008    0.077161    0.776905
     42          1           0        1.280661    0.676832    1.622694
     43          1           0        2.723715    0.200383    0.726956
     44          8           0        2.644728   -0.717024   -1.762553
     45          6           0        1.294390   -1.404332    0.999878
     46          1           0        0.229372   -1.512292    1.247753
     47          1           0        1.476952   -1.978989    0.085466
     48          6           0        2.121329   -2.006083    2.143958
     49          1           0        2.053812   -1.357360    3.027857
     50          1           0        3.180265   -2.029113    1.851422
     51          6           0        1.660805   -3.425191    2.521135
     52          1           0        0.603783   -3.389085    2.820933
     53          1           0        1.702968   -4.069287    1.632858
     54          7           0        2.406702   -4.083931    3.587380
     55          1           0        2.398345   -3.518232    4.434718
     56          1           0        3.384108   -4.195243    3.323488
     57          8           0        1.165170    0.550590   -2.905856
     58          1           0       -0.003557    1.793299   -2.611547
     59          1           0        1.630886    0.181076   -3.683145
 ---------------------------------------------------------------------

 SCF Done:  E(RB3LYP) =  -1300.55999300     A.U. after    1 cycles

 Alpha  occ. eigenvalues --  -19.38672 -19.37542 -19.30987 -19.22818 -14.58046
 Alpha  occ. eigenvalues --  -14.48849 -14.41985 -14.38972 -10.50724 -10.49083
 Alpha  occ. eigenvalues --  -10.41987 -10.39757 -10.39510 -10.34051 -10.33674
 Alpha  occ. eigenvalues --  -10.33224 -10.32901 -10.31157 -10.30901 -10.30439
 Alpha  occ. eigenvalues --  -10.30253 -10.30175 -10.29938 -10.29657 -10.29540
 Alpha  occ. eigenvalues --  -10.29306 -10.29159 -10.27927  -1.29491  -1.27317
 Alpha  occ. eigenvalues --   -1.18998  -1.15114  -1.14583  -1.07428  -0.99827
 Alpha  occ. eigenvalues --   -0.97127  -0.96251  -0.95987  -0.92611  -0.90406
 Alpha  occ. eigenvalues --   -0.88862  -0.88240  -0.85127  -0.83588  -0.82892
 Alpha  occ. eigenvalues --   -0.82157  -0.78502  -0.78058  -0.76782  -0.75170
 Alpha  occ. eigenvalues --   -0.72964  -0.72057  -0.71260  -0.70587  -0.69216
 Alpha  occ. eigenvalues --   -0.68769  -0.67642  -0.66650  -0.65780  -0.64518
 Alpha  occ. eigenvalues --   -0.63316  -0.61856  -0.60969  -0.59879  -0.59692
 Alpha  occ. eigenvalues --   -0.59212  -0.58707  -0.57997  -0.57129  -0.56700
 Alpha  occ. eigenvalues --   -0.56306  -0.56038  -0.55740  -0.55127  -0.54989
 Alpha  occ. eigenvalues --   -0.54269  -0.53221  -0.52759  -0.52387  -0.51922
 Alpha  occ. eigenvalues --   -0.50982  -0.50785  -0.50362  -0.49313  -0.49264
 Alpha  occ. eigenvalues --   -0.49020  -0.48569  -0.48348  -0.47751  -0.47358
 Alpha  occ. eigenvalues --   -0.46780  -0.46391  -0.45950  -0.45258  -0.44624
 Alpha  occ. eigenvalues --   -0.44417  -0.44338  -0.43441  -0.42598  -0.37064
 Alpha  occ. eigenvalues --   -0.36738  -0.35962  -0.35589  -0.33992  -0.30995
 Alpha virt. eigenvalues --   -0.20236  -0.16398  -0.11836  -0.11527  -0.09608
 Alpha virt. eigenvalues --   -0.08952  -0.06517  -0.05666  -0.04431  -0.02562
 Alpha virt. eigenvalues --   -0.02022  -0.01249  -0.00688  -0.00257   0.00643

 Mulliken charges:
               1
     1  N   -0.692760
     2  H    0.329111
     3  H    0.312880
     4  C   -0.078702
     5  H    0.118688
     6  C    0.565605
     7  C   -0.351536
     8  H    0.200153
     9  H    0.158288
    10  O   -0.477934
    11  C    0.136997
    12  C   -0.239071
    13  H    0.139012
    14  C   -0.184327
    15  H    0.183823
    16  C   -0.143169
    17  H    0.159434
    18  C   -0.139552
    19  H    0.158628
    20  C   -0.125839
    21  H    0.157608
    22  N   -0.445472
    23  C   -0.073376
    24  H    0.183465
    25  C    0.646679
    26  C   -0.311655
    27  H    0.172878
    28  H    0.196938
    29  O   -0.541609
    30  C   -0.307915
    31  H    0.171475
    32  H    0.190358
    33  C   -0.113693
    34  H    0.186631
    35  H    0.198448
    36  N   -0.576154
    37  H    0.404607
    38  C   -0.106093
    39  H    0.224728
    40  C    0.647185
    41  C   -0.317893
    42  H    0.185531
    43  H    0.197427
    44  O   -0.381152
    45  C   -0.294664
    46  H    0.138141
    47  H    0.166913
    48  C   -0.271870
    49  H    0.134193
    50  H    0.148653
    51  C   -0.146417
    52  H    0.138725
    53  H    0.151706
    54  N   -0.698149
    55  H    0.297878
    56  H    0.304771
    57  O   -0.627724
    58  H    0.480318
    59  H    0.458852
 Sum of Mulliken charges =   1.00000

 Dipole moment (field-independent basis, Debye):
    X=             -2.3244    Y=              3.2895    Z=             -4.4016  Tot=              5.9664
 Quadrupole moment (field-independent basis, Debye-Ang):
   XX=           -135.5161   YY=           -170.4618   ZZ=           -129.9278
   XY=              2.6882   XZ=              8.5595   YZ=             -2.9945

 Normal termination of Gaussian 16 at Thu Jun  2 03:00:13 2022.
