 Gaussian 16, Revision C.01,
 Gaussian 16:  ES64L-G16RevC.01  3-Jul-2019

 ----------------------------------------------------------------------
 # B3LYP/6-31G* empiricaldispersion=gd3 guess=read geom=check nosymm in
 tegral(ultrafinegrid)
 ----------------------------------------------------------------------

 ------------------------------------------------------
 Candidate Structure: Conf:123 Charge calc in gas phase
 ------------------------------------------------------
 Structure from the checkpoint file:  "conf-123.chk"
 Charge =  1 Multiplicity = 1

                          Input orientation:
 ---------------------------------------------------------------------
 Center     Atomic      Atomic             Coordinates (Angstroms)
 Number     Number       Type             X           Y           Z
 ---------------------------------------------------------------------
      1          7           0       -3.639589   -2.345986    3.578195
      2          1           0       -2.841145   -2.828713    3.169658
      3          1           0       -4.466188   -2.801930    3.200337
      4          6           0       -3.603887   -0.943757    3.182280
      5          1           0       -4.630583   -0.609000    2.994721
      6          6           0       -2.764092   -0.744596    1.906319
      7          6           0       -3.046984   -0.039833    4.333022
      8          1           0       -3.442950    0.974982    4.228415
      9          1           0       -3.473003   -0.455160    5.251544
     10          8           0       -2.066066   -1.670061    1.472330
     11          6           0       -1.538261    0.029090    4.444688
     12          6           0       -0.767038   -1.131204    4.638271
     13          1           0       -1.265408   -2.090935    4.728739
     14          6           0       -0.874513    1.263657    4.371390
     15          1           0       -1.454320    2.174078    4.237818
     16          6           0        0.622731   -1.051897    4.757778
     17          1           0        1.198781   -1.957293    4.928010
     18          6           0        0.515293    1.347198    4.498347
     19          1           0        1.003390    2.317337    4.463121
     20          6           0        1.269587    0.187272    4.690234
     21          1           0        2.347970    0.247283    4.808816
     22          7           0       -2.694291    0.493498    1.337467
     23          6           0       -1.879557    0.705354    0.135063
     24          1           0       -2.099245   -0.059817   -0.619971
     25          6           0       -0.405896    0.577358    0.367293
     26          6           0       -2.263233    2.126209   -0.358695
     27          1           0       -1.581036    2.871220    0.065538
     28          1           0       -2.204007    2.199121   -1.445711
     29          8           0        0.402108    0.929392   -0.614676
     30          6           0       -3.676451    2.314305    0.209026
     31          1           0       -3.967281    3.365498    0.271206
     32          1           0       -4.411570    1.790676   -0.411589
     33          6           0       -3.583936    1.648914    1.585449
     34          1           0       -4.549904    1.317696    1.969273
     35          1           0       -3.128118    2.321004    2.322062
     36          7           0        0.216434    0.165012    1.430775
     37          1           0       -0.251310   -0.209202    2.254319
     38          6           0        1.663122    0.078232    1.213044
     39          1           0        2.168863    0.782461    1.883894
     40          6           0        1.762148    0.591126   -0.215258
     41          6           0        2.225363   -1.344886    1.407467
     42          1           0        1.753124   -2.003220    0.672669
     43          1           0        1.904607   -1.673234    2.402756
     44          8           0        2.667914    0.745431   -0.955617
     45          6           0        3.754885   -1.382134    1.309631
     46          1           0        4.075051   -1.015900    0.326900
     47          1           0        4.185672   -0.695637    2.053312
     48          6           0        4.308252   -2.794601    1.537709
     49          1           0        3.884668   -3.481132    0.790413
     50          1           0        3.984662   -3.166335    2.521569
     51          6           0        5.846342   -2.846892    1.458603
     52          1           0        6.169479   -2.470744    0.478978
     53          1           0        6.269304   -2.160397    2.204373
     54          7           0        6.455476   -4.157235    1.659301
     55          1           0        6.117680   -4.819101    0.962613
     56          1           0        6.199208   -4.535921    2.569559
     57          8           0       -0.249539   -1.878627   -0.649941
     58          1           0       -0.909158   -2.144538    0.018125
     59          1           0       -0.349315   -2.494579   -1.390624
 ---------------------------------------------------------------------

 SCF Done:  E(RB3LYP) =  -1300.56884353     A.U. after    1 cycles

 Alpha  occ. eigenvalues --  -19.37883 -19.31310 -19.26443 -19.25905 -14.56084
 Alpha  occ. eigenvalues --  -14.51510 -14.42125 -14.37951 -10.49292 -10.48319
 Alpha  occ. eigenvalues --  -10.42800 -10.40254 -10.39920 -10.36304 -10.35068
 Alpha  occ. eigenvalues --  -10.33789 -10.32511 -10.31782 -10.31693 -10.30972
 Alpha  occ. eigenvalues --  -10.30915 -10.30885 -10.30806 -10.30614 -10.30592
 Alpha  occ. eigenvalues --  -10.28994 -10.28115 -10.27044  -1.30316  -1.21795
 Alpha  occ. eigenvalues --   -1.18448  -1.12849  -1.11629  -1.09292  -1.00289
 Alpha  occ. eigenvalues --   -0.97332  -0.96450  -0.94992  -0.93811  -0.91066
 Alpha  occ. eigenvalues --   -0.89433  -0.87117  -0.86206  -0.83907  -0.82375
 Alpha  occ. eigenvalues --   -0.80717  -0.79385  -0.77619  -0.75242  -0.74272
 Alpha  occ. eigenvalues --   -0.72315  -0.71780  -0.71381  -0.69577  -0.68903
 Alpha  occ. eigenvalues --   -0.67570  -0.66762  -0.65556  -0.64228  -0.64007
 Alpha  occ. eigenvalues --   -0.62087  -0.61861  -0.60835  -0.60007  -0.59872
 Alpha  occ. eigenvalues --   -0.59186  -0.58265  -0.57435  -0.57101  -0.56726
 Alpha  occ. eigenvalues --   -0.56630  -0.56139  -0.55440  -0.55309  -0.54609
 Alpha  occ. eigenvalues --   -0.54203  -0.53555  -0.53041  -0.52367  -0.51864
 Alpha  occ. eigenvalues --   -0.50947  -0.50286  -0.49962  -0.49323  -0.49064
 Alpha  occ. eigenvalues --   -0.48930  -0.48656  -0.48063  -0.47938  -0.47150
 Alpha  occ. eigenvalues --   -0.46764  -0.45480  -0.45407  -0.45173  -0.44601
 Alpha  occ. eigenvalues --   -0.43779  -0.42905  -0.41714  -0.41458  -0.40031
 Alpha  occ. eigenvalues --   -0.39495  -0.37018  -0.36655  -0.34887  -0.29953
 Alpha virt. eigenvalues --   -0.19275  -0.14434  -0.12743  -0.12501  -0.12005
 Alpha virt. eigenvalues --   -0.05852  -0.04318  -0.04046  -0.03586  -0.02864
 Alpha virt. eigenvalues --   -0.02456  -0.01859  -0.01214  -0.00417   0.00248

 Mulliken charges:
               1
     1  N   -0.706561
     2  H    0.325830
     3  H    0.323736
     4  C   -0.095254
     5  H    0.168058
     6  C    0.584189
     7  C   -0.330941
     8  H    0.149420
     9  H    0.209649
    10  O   -0.555757
    11  C    0.115148
    12  C   -0.190503
    13  H    0.174392
    14  C   -0.205258
    15  H    0.143410
    16  C   -0.142594
    17  H    0.163685
    18  C   -0.138524
    19  H    0.158542
    20  C   -0.154460
    21  H    0.160127
    22  N   -0.454546
    23  C   -0.050755
    24  H    0.235034
    25  C    0.742038
    26  C   -0.315544
    27  H    0.176540
    28  H    0.207819
    29  O   -0.448735
    30  C   -0.300452
    31  H    0.193486
    32  H    0.182009
    33  C   -0.145963
    34  H    0.192905
    35  H    0.178398
    36  N   -0.603043
    37  H    0.412520
    38  C   -0.052038
    39  H    0.232272
    40  C    0.629590
    41  C   -0.291442
    42  H    0.201452
    43  H    0.167420
    44  O   -0.353591
    45  C   -0.285036
    46  H    0.177610
    47  H    0.141565
    48  C   -0.268790
    49  H    0.136867
    50  H    0.127659
    51  C   -0.141597
    52  H    0.152750
    53  H    0.147129
    54  N   -0.695975
    55  H    0.299474
    56  H    0.297874
    57  O   -0.829234
    58  H    0.433432
    59  H    0.414564
 Sum of Mulliken charges =   1.00000

 Dipole moment (field-independent basis, Debye):
    X=             -6.8001    Y=              0.6929    Z=              7.4007  Tot=             10.0743
 Quadrupole moment (field-independent basis, Debye-Ang):
   XX=           -135.5952   YY=           -137.8136   ZZ=           -142.0032
   XY=             -8.9525   XZ=              0.8403   YZ=              4.2408

 Normal termination of Gaussian 16 at Thu Jun  2 02:55:27 2022.
