 Gaussian 16, Revision C.01,
 Gaussian 16:  ES64L-G16RevC.01  3-Jul-2019

 ----------------------------------------------------------------------
 # B3LYP/6-31G* empiricaldispersion=gd3 guess=read geom=check nosymm in
 tegral(ultrafinegrid)
 ----------------------------------------------------------------------

 ------------------------------------------------------
 Candidate Structure: Conf:497 Charge calc in gas phase
 ------------------------------------------------------
 Structure from the checkpoint file:  "conf-497.chk"
 Charge =  1 Multiplicity = 1

                          Input orientation:
 ---------------------------------------------------------------------
 Center     Atomic      Atomic             Coordinates (Angstroms)
 Number     Number       Type             X           Y           Z
 ---------------------------------------------------------------------
      1          7           0       -3.078102   -2.226664    3.932831
      2          1           0       -3.324787   -2.349638    4.911063
      3          1           0       -2.143986   -2.595073    3.776698
      4          6           0       -3.157025   -0.830281    3.555661
      5          1           0       -4.218256   -0.549101    3.561021
      6          6           0       -2.607530   -0.695957    2.135932
      7          6           0       -2.417589    0.192812    4.490790
      8          1           0       -2.792636    1.202573    4.292211
      9          1           0       -2.725988   -0.049848    5.514547
     10          8           0       -1.931880   -1.611099    1.639864
     11          6           0       -0.910392    0.187971    4.382736
     12          6           0       -0.142063   -0.826826    4.973243
     13          1           0       -0.638472   -1.620230    5.525162
     14          6           0       -0.243770    1.215155    3.698573
     15          1           0       -0.820795    2.023141    3.253760
     16          6           0        1.251585   -0.810137    4.892890
     17          1           0        1.828690   -1.597923    5.368377
     18          6           0        1.151632    1.245274    3.629926
     19          1           0        1.650417    2.080307    3.142880
     20          6           0        1.904547    0.229999    4.226300
     21          1           0        2.989855    0.258817    4.190510
     22          7           0       -2.780477    0.482479    1.469800
     23          6           0       -2.290539    0.616906    0.078031
     24          1           0       -2.549904   -0.298376   -0.468998
     25          6           0       -0.764141    0.723982    0.032455
     26          6           0       -3.035053    1.844230   -0.485237
     27          1           0       -2.426678    2.744792   -0.368728
     28          1           0       -3.254567    1.723748   -1.548345
     29          8           0       -0.247342    1.879052   -0.284920
     30          6           0       -4.289206    1.936698    0.396338
     31          1           0       -4.737877    2.932783    0.383080
     32          1           0       -5.046978    1.214123    0.074596
     33          6           0       -3.756326    1.550916    1.778203
     34          1           0       -4.530878    1.182071    2.450979
     35          1           0       -3.249197    2.394734    2.261614
     36          7           0       -0.065928   -0.344411    0.298825
     37          1           0       -0.672507   -1.121872    0.637209
     38          6           0        1.376851   -0.483352    0.601687
     39          1           0        1.645496    0.350504    1.265263
     40          6           0        2.257185   -0.344453   -0.643153
     41          6           0        1.599457   -1.803319    1.349145
     42          1           0        1.054699   -1.729236    2.296193
     43          1           0        2.664097   -1.850474    1.600330
     44          8           0        3.124152   -1.089626   -0.997420
     45          6           0        1.187786   -3.076526    0.596834
     46          1           0        0.127387   -3.032766    0.310348
     47          1           0        1.767578   -3.160449   -0.329003
     48          6           0        1.406300   -4.322261    1.463511
     49          1           0        0.803150   -4.235010    2.380081
     50          1           0        2.453760   -4.385426    1.782875
     51          6           0        1.042464   -5.621863    0.740477
     52          1           0        0.000299   -5.552737    0.373386
     53          1           0        1.678832   -5.724139   -0.147823
     54          7           0        1.302341   -6.769742    1.611284
     55          1           0        1.201319   -7.637466    1.088541
     56          1           0        0.607031   -6.805734    2.355578
     57          8           0        1.976607    0.836689   -1.290588
     58          1           0        0.704395    1.793285   -0.548624
     59          1           0        2.573787    0.930811   -2.059245
 ---------------------------------------------------------------------

 SCF Done:  E(RB3LYP) =  -1300.57674526     A.U. after    1 cycles

 Alpha  occ. eigenvalues --  -19.37272 -19.35719 -19.29217 -19.26022 -14.54557
 Alpha  occ. eigenvalues --  -14.51010 -14.41589 -14.37748 -10.49035 -10.47193
 Alpha  occ. eigenvalues --  -10.42429 -10.39359 -10.39344 -10.35629 -10.34410
 Alpha  occ. eigenvalues --  -10.32615 -10.31728 -10.30708 -10.30657 -10.30405
 Alpha  occ. eigenvalues --  -10.30054 -10.29999 -10.29631 -10.29571 -10.29495
 Alpha  occ. eigenvalues --  -10.28295 -10.27934 -10.26271  -1.27739  -1.25458
 Alpha  occ. eigenvalues --   -1.18010  -1.17144  -1.12158  -1.08561  -0.99829
 Alpha  occ. eigenvalues --   -0.96193  -0.95481  -0.94645  -0.93191  -0.89923
 Alpha  occ. eigenvalues --   -0.88488  -0.87028  -0.85173  -0.83172  -0.81885
 Alpha  occ. eigenvalues --   -0.80942  -0.78860  -0.76673  -0.74979  -0.74157
 Alpha  occ. eigenvalues --   -0.73118  -0.71453  -0.71138  -0.69814  -0.68989
 Alpha  occ. eigenvalues --   -0.67131  -0.66893  -0.65520  -0.64551  -0.63978
 Alpha  occ. eigenvalues --   -0.63161  -0.61201  -0.59961  -0.59727  -0.59240
 Alpha  occ. eigenvalues --   -0.57832  -0.57495  -0.57007  -0.56880  -0.56461
 Alpha  occ. eigenvalues --   -0.56188  -0.56113  -0.55491  -0.55274  -0.54191
 Alpha  occ. eigenvalues --   -0.53549  -0.53205  -0.52712  -0.52506  -0.51762
 Alpha  occ. eigenvalues --   -0.51601  -0.50243  -0.49712  -0.49244  -0.49144
 Alpha  occ. eigenvalues --   -0.48377  -0.48253  -0.47931  -0.47542  -0.47150
 Alpha  occ. eigenvalues --   -0.46766  -0.46375  -0.44814  -0.44625  -0.44408
 Alpha  occ. eigenvalues --   -0.43280  -0.42104  -0.41956  -0.41041  -0.39569
 Alpha  occ. eigenvalues --   -0.39000  -0.35896  -0.35589  -0.33298  -0.30004
 Alpha virt. eigenvalues --   -0.18573  -0.14458  -0.11966  -0.11331  -0.11104
 Alpha virt. eigenvalues --   -0.07553  -0.05103  -0.03305  -0.02836  -0.02174
 Alpha virt. eigenvalues --   -0.00987  -0.00338   0.00235   0.00303   0.00887

 Mulliken charges:
               1
     1  N   -0.699666
     2  H    0.315002
     3  H    0.321623
     4  C   -0.076824
     5  H    0.173175
     6  C    0.655495
     7  C   -0.380890
     8  H    0.155750
     9  H    0.179222
    10  O   -0.562263
    11  C    0.175957
    12  C   -0.185502
    13  H    0.140506
    14  C   -0.198643
    15  H    0.128618
    16  C   -0.132592
    17  H    0.162183
    18  C   -0.155446
    19  H    0.142802
    20  C   -0.132698
    21  H    0.156222
    22  N   -0.450599
    23  C   -0.068400
    24  H    0.218872
    25  C    0.630544
    26  C   -0.317587
    27  H    0.193912
    28  H    0.192708
    29  O   -0.557278
    30  C   -0.300090
    31  H    0.189644
    32  H    0.180654
    33  C   -0.151785
    34  H    0.194997
    35  H    0.180153
    36  N   -0.578901
    37  H    0.454015
    38  C   -0.098958
    39  H    0.213516
    40  C    0.642376
    41  C   -0.313310
    42  H    0.185264
    43  H    0.184730
    44  O   -0.387521
    45  C   -0.296578
    46  H    0.145432
    47  H    0.170945
    48  C   -0.247272
    49  H    0.127550
    50  H    0.161698
    51  C   -0.138695
    52  H    0.116580
    53  H    0.147961
    54  N   -0.714331
    55  H    0.308640
    56  H    0.296216
    57  O   -0.628404
    58  H    0.478168
    59  H    0.453101
 Sum of Mulliken charges =   1.00000

 Dipole moment (field-independent basis, Debye):
    X=             -4.6674    Y=              3.0639    Z=              4.7196  Tot=              7.3107
 Quadrupole moment (field-independent basis, Debye-Ang):
   XX=           -132.0587   YY=           -145.2607   ZZ=           -127.3307
   XY=             -2.0998   XZ=            -14.7241   YZ=             -6.5292

 Normal termination of Gaussian 16 at Thu Jun  2 03:00:18 2022.
