 Gaussian 16, Revision C.01,
 Gaussian 16:  ES64L-G16RevC.01  3-Jul-2019

 ----------------------------------------------------------------------
 # B3LYP/6-31G* empiricaldispersion=gd3 guess=read geom=check nosymm in
 tegral(ultrafinegrid)
 ----------------------------------------------------------------------

 -----------------------------------------------------
 Candidate Structure: Conf:34 Charge calc in gas phase
 -----------------------------------------------------
 Structure from the checkpoint file:  "conf-34.chk"
 Charge =  1 Multiplicity = 1

                          Input orientation:
 ---------------------------------------------------------------------
 Center     Atomic      Atomic             Coordinates (Angstroms)
 Number     Number       Type             X           Y           Z
 ---------------------------------------------------------------------
      1          7           0       -3.995514    4.306891    1.858850
      2          1           0       -4.406382    5.236641    1.910458
      3          1           0       -3.284118    4.242714    2.584701
      4          6           0       -3.386231    4.100314    0.550115
      5          1           0       -4.179114    4.160172   -0.200851
      6          6           0       -2.796814    2.692974    0.574935
      7          6           0       -2.269181    5.106241    0.141901
      8          1           0       -2.703160    6.111410    0.202291
      9          1           0       -1.469961    5.051938    0.891162
     10          8           0       -2.022916    2.348378    1.487979
     11          6           0       -1.732410    4.829308   -1.244001
     12          6           0       -0.567299    4.074080   -1.420876
     13          1           0       -0.009064    3.742006   -0.550017
     14          6           0       -2.445761    5.242677   -2.378840
     15          1           0       -3.345981    5.842063   -2.258386
     16          6           0       -0.127483    3.724940   -2.698895
     17          1           0        0.778140    3.135095   -2.809566
     18          6           0       -2.007647    4.900272   -3.658987
     19          1           0       -2.564899    5.236874   -4.528793
     20          6           0       -0.848791    4.134828   -3.821794
     21          1           0       -0.505008    3.872694   -4.818362
     22          7           0       -3.094743    1.797039   -0.390353
     23          6           0       -2.551706    0.444116   -0.255734
     24          1           0       -3.047872   -0.080898    0.570610
     25          6           0       -1.081900    0.456436    0.038744
     26          6           0       -2.855879   -0.213236   -1.626880
     27          1           0       -2.037446   -0.002593   -2.322967
     28          1           0       -2.973431   -1.295718   -1.540801
     29          8           0       -0.266571    1.081781   -0.776369
     30          6           0       -4.132298    0.519075   -2.072882
     31          1           0       -4.299772    0.439943   -3.149458
     32          1           0       -5.006713    0.104117   -1.560248
     33          6           0       -3.890919    1.965620   -1.625436
     34          1           0       -4.819712    2.497461   -1.411463
     35          1           0       -3.312959    2.539321   -2.356915
     36          7           0       -0.457653   -0.248827    0.947102
     37          1           0       -0.934336   -0.717143    1.708633
     38          6           0        1.004403   -0.113568    0.851292
     39          1           0        1.375630    0.407749    1.738102
     40          6           0        1.110631    0.846231   -0.324194
     41          6           0        1.726131   -1.454139    0.620768
     42          1           0        1.388073   -1.892222   -0.326698
     43          1           0        1.410898   -2.138118    1.419212
     44          8           0        2.017096    1.303801   -0.923225
     45          6           0        3.253901   -1.307070    0.637944
     46          1           0        3.567400   -0.604977   -0.143582
     47          1           0        3.560331   -0.865292    1.596561
     48          6           0        3.954385   -2.656826    0.444933
     49          1           0        3.651651   -3.090780   -0.519753
     50          1           0        3.639410   -3.367233    1.219444
     51          6           0        5.481576   -2.542032    0.489219
     52          1           0        5.811337   -1.807613   -0.269974
     53          1           0        5.779711   -2.135768    1.464336
     54          7           0        6.085014   -3.868527    0.354712
     55          1           0        7.087043   -3.817593    0.527006
     56          1           0        5.979290   -4.204316   -0.601720
     57          8           0        0.682885    2.634360    1.617990
     58          1           0       -0.265621    2.811776    1.773192
     59          1           0        1.134598    3.489317    1.668382
 ---------------------------------------------------------------------

 SCF Done:  E(RB3LYP) =  -1300.56501962     A.U. after    1 cycles

 Alpha  occ. eigenvalues --  -19.38175 -19.31425 -19.25834 -19.25664 -14.56841
 Alpha  occ. eigenvalues --  -14.50919 -14.41826 -14.37950 -10.50017 -10.48659
 Alpha  occ. eigenvalues --  -10.42072 -10.40222 -10.40166 -10.34917 -10.33825
 Alpha  occ. eigenvalues --  -10.33777 -10.32847 -10.32013 -10.29355 -10.29182
 Alpha  occ. eigenvalues --  -10.28956 -10.28281 -10.28006 -10.27907 -10.27840
 Alpha  occ. eigenvalues --  -10.27783 -10.27739 -10.26858  -1.30685  -1.22047
 Alpha  occ. eigenvalues --   -1.17830  -1.13175  -1.11345  -1.08651  -0.99677
 Alpha  occ. eigenvalues --   -0.96696  -0.94971  -0.94610  -0.93422  -0.90986
 Alpha  occ. eigenvalues --   -0.87647  -0.87118  -0.83375  -0.82414  -0.81939
 Alpha  occ. eigenvalues --   -0.81141  -0.78699  -0.78012  -0.75110  -0.74037
 Alpha  occ. eigenvalues --   -0.72352  -0.70952  -0.69579  -0.67902  -0.67384
 Alpha  occ. eigenvalues --   -0.66828  -0.66611  -0.64806  -0.64677  -0.63729
 Alpha  occ. eigenvalues --   -0.62653  -0.60511  -0.60337  -0.59407  -0.58785
 Alpha  occ. eigenvalues --   -0.58053  -0.57829  -0.56603  -0.56457  -0.55927
 Alpha  occ. eigenvalues --   -0.55423  -0.55062  -0.54825  -0.54550  -0.53999
 Alpha  occ. eigenvalues --   -0.53891  -0.53089  -0.51737  -0.51596  -0.50813
 Alpha  occ. eigenvalues --   -0.50732  -0.50005  -0.49460  -0.49147  -0.48946
 Alpha  occ. eigenvalues --   -0.48726  -0.47991  -0.47585  -0.46670  -0.46379
 Alpha  occ. eigenvalues --   -0.45889  -0.44708  -0.44577  -0.43532  -0.43193
 Alpha  occ. eigenvalues --   -0.43071  -0.42518  -0.41660  -0.41139  -0.39540
 Alpha  occ. eigenvalues --   -0.38662  -0.34993  -0.33951  -0.32661  -0.30229
 Alpha virt. eigenvalues --   -0.19799  -0.14471  -0.12084  -0.09448  -0.09171
 Alpha virt. eigenvalues --   -0.07700  -0.04934  -0.04311  -0.03102  -0.02362
 Alpha virt. eigenvalues --   -0.01586  -0.00478   0.00069   0.00577   0.00854

 Mulliken charges:
               1
     1  N   -0.706341
     2  H    0.320975
     3  H    0.317996
     4  C   -0.067261
     5  H    0.159618
     6  C    0.677774
     7  C   -0.367287
     8  H    0.168745
     9  H    0.141854
    10  O   -0.593485
    11  C    0.155901
    12  C   -0.191508
    13  H    0.116811
    14  C   -0.196492
    15  H    0.137881
    16  C   -0.141020
    17  H    0.150248
    18  C   -0.133287
    19  H    0.151934
    20  C   -0.137088
    21  H    0.149905
    22  N   -0.450077
    23  C   -0.030249
    24  H    0.194693
    25  C    0.731294
    26  C   -0.321555
    27  H    0.194295
    28  H    0.190267
    29  O   -0.448177
    30  C   -0.312460
    31  H    0.193705
    32  H    0.182878
    33  C   -0.139731
    34  H    0.195090
    35  H    0.210302
    36  N   -0.613641
    37  H    0.391709
    38  C   -0.043568
    39  H    0.268983
    40  C    0.661728
    41  C   -0.274545
    42  H    0.164020
    43  H    0.172571
    44  O   -0.373326
    45  C   -0.285261
    46  H    0.175144
    47  H    0.152990
    48  C   -0.252561
    49  H    0.135033
    50  H    0.158589
    51  C   -0.137497
    52  H    0.121831
    53  H    0.146682
    54  N   -0.715243
    55  H    0.310330
    56  H    0.299307
    57  O   -0.826458
    58  H    0.440143
    59  H    0.416890
 Sum of Mulliken charges =   1.00000

 Dipole moment (field-independent basis, Debye):
    X=             -5.6245    Y=              4.2352    Z=             -1.0397  Tot=              7.1171
 Quadrupole moment (field-independent basis, Debye-Ang):
   XX=           -113.6427   YY=           -127.8570   ZZ=           -145.9738
   XY=            -24.4852   XZ=             11.4312   YZ=              2.8697

 Normal termination of Gaussian 16 at Thu Jun  2 02:55:23 2022.
