 Gaussian 16, Revision C.01,
 Gaussian 16:  ES64L-G16RevC.01  3-Jul-2019

 ----------------------------------------------------------------------
 # B3LYP/6-31G* empiricaldispersion=gd3 guess=read geom=check nosymm in
 tegral(ultrafinegrid)
 ----------------------------------------------------------------------

 ------------------------------------------------------
 Candidate Structure: Conf:885 Charge calc in gas phase
 ------------------------------------------------------
 Structure from the checkpoint file:  "conf-885.chk"
 Charge =  1 Multiplicity = 1

                          Input orientation:
 ---------------------------------------------------------------------
 Center     Atomic      Atomic             Coordinates (Angstroms)
 Number     Number       Type             X           Y           Z
 ---------------------------------------------------------------------
      1          7           0       -4.100313    3.848533   -0.834745
      2          1           0       -3.306323    3.939449   -0.203143
      3          1           0       -4.892096    3.596932   -0.245653
      4          6           0       -3.827527    2.777690   -1.782083
      5          1           0       -4.777925    2.498576   -2.248812
      6          6           0       -3.196946    1.545075   -1.110146
      7          6           0       -2.894442    3.278545   -2.923451
      8          1           0       -2.826918    2.504671   -3.696610
      9          1           0       -3.400044    4.141406   -3.368120
     10          8           0       -2.605516    1.655971   -0.022207
     11          6           0       -1.501207    3.666993   -2.474081
     12          6           0       -1.272519    4.875654   -1.798251
     13          1           0       -2.108674    5.541089   -1.604201
     14          6           0       -0.404995    2.834903   -2.745607
     15          1           0       -0.560138    1.909611   -3.293586
     16          6           0        0.018369    5.237174   -1.399580
     17          1           0        0.179716    6.187473   -0.897522
     18          6           0        0.887187    3.194904   -2.357422
     19          1           0        1.721980    2.545531   -2.605542
     20          6           0        1.103181    4.397883   -1.679334
     21          1           0        2.109367    4.692689   -1.394102
     22          7           0       -3.239331    0.341806   -1.729267
     23          6           0       -2.580497   -0.819590   -1.094420
     24          1           0       -2.922374   -0.910544   -0.059943
     25          6           0       -1.094876   -0.604699   -1.054229
     26          6           0       -3.000548   -2.021467   -1.978192
     27          1           0       -2.215675   -2.239743   -2.708571
     28          1           0       -3.164330   -2.918709   -1.377285
     29          8           0       -0.487605   -0.474993   -2.280255
     30          6           0       -4.266904   -1.528879   -2.699360
     31          1           0       -4.464137   -2.076976   -3.623806
     32          1           0       -5.143365   -1.626548   -2.049451
     33          6           0       -3.968972   -0.046974   -2.948488
     34          1           0       -4.869339    0.557005   -3.073655
     35          1           0       -3.330770    0.090730   -3.830115
     36          7           0       -0.344300   -0.501312   -0.028000
     37          1           0       -0.288478    0.120650    1.686382
     38          6           0        1.009930   -0.208097   -0.511092
     39          1           0        1.225795    0.835423   -0.248018
     40          6           0        0.878491   -0.238374   -2.027051
     41          6           0        2.085523   -1.172229    0.037904
     42          1           0        3.070824   -0.724495   -0.134090
     43          1           0        2.055419   -2.090429   -0.559387
     44          8           0        1.676033   -0.088437   -2.899615
     45          6           0        1.901318   -1.574702    1.514268
     46          1           0        0.878560   -1.945489    1.651437
     47          1           0        2.551070   -2.437312    1.699426
     48          6           0        2.238522   -0.536040    2.601943
     49          1           0        3.313207   -0.315305    2.574537
     50          1           0        2.051450   -0.994207    3.581930
     51          6           0        1.538347    0.820680    2.539665
     52          1           0        1.783984    1.423355    3.418160
     53          1           0        1.827575    1.395353    1.659719
     54          7           0        0.032627    0.743736    2.472730
     55          1           0       -0.308586    1.690384    2.185559
     56          1           0       -0.387390    0.436464    3.352600
     57          8           0       -0.269778    2.722197    0.786360
     58          1           0       -1.108910    2.494164    0.326473
     59          1           0        0.010947    3.575378    0.416544
 ---------------------------------------------------------------------

 SCF Done:  E(RB3LYP) =  -1300.61249338     A.U. after    1 cycles

 Alpha  occ. eigenvalues --  -19.33598 -19.27271 -19.25522 -19.23816 -14.55492
 Alpha  occ. eigenvalues --  -14.49019 -14.46715 -14.41088 -10.44448 -10.42286
 Alpha  occ. eigenvalues --  -10.40262 -10.37125 -10.36371 -10.35864 -10.33965
 Alpha  occ. eigenvalues --  -10.33093 -10.32038 -10.31559 -10.30974 -10.30961
 Alpha  occ. eigenvalues --  -10.30272 -10.29337 -10.28967 -10.28616 -10.28537
 Alpha  occ. eigenvalues --  -10.28422 -10.28345 -10.28214  -1.25264  -1.17135
 Alpha  occ. eigenvalues --   -1.15740  -1.11817  -1.10176  -1.06611  -1.05320
 Alpha  occ. eigenvalues --   -0.98993  -0.94890  -0.93586  -0.91858  -0.90160
 Alpha  occ. eigenvalues --   -0.87486  -0.87100  -0.83831  -0.83568  -0.81852
 Alpha  occ. eigenvalues --   -0.79138  -0.77076  -0.74825  -0.73126  -0.72452
 Alpha  occ. eigenvalues --   -0.71435  -0.70226  -0.69913  -0.69471  -0.68336
 Alpha  occ. eigenvalues --   -0.67206  -0.66354  -0.64328  -0.63404  -0.62642
 Alpha  occ. eigenvalues --   -0.62226  -0.61002  -0.60178  -0.59785  -0.58780
 Alpha  occ. eigenvalues --   -0.58678  -0.57092  -0.56722  -0.56614  -0.55735
 Alpha  occ. eigenvalues --   -0.55030  -0.54628  -0.54184  -0.53866  -0.53114
 Alpha  occ. eigenvalues --   -0.52883  -0.52189  -0.51746  -0.51348  -0.51250
 Alpha  occ. eigenvalues --   -0.50932  -0.50200  -0.49951  -0.49603  -0.48231
 Alpha  occ. eigenvalues --   -0.47560  -0.47094  -0.46890  -0.46765  -0.46431
 Alpha  occ. eigenvalues --   -0.46282  -0.45575  -0.45437  -0.44707  -0.43961
 Alpha  occ. eigenvalues --   -0.43201  -0.42749  -0.41711  -0.40507  -0.39204
 Alpha  occ. eigenvalues --   -0.37620  -0.36851  -0.34823  -0.34505  -0.33380
 Alpha virt. eigenvalues --   -0.14693  -0.11084  -0.10580  -0.10085  -0.09527
 Alpha virt. eigenvalues --   -0.07331  -0.03693  -0.02897  -0.02338  -0.00976
 Alpha virt. eigenvalues --   -0.00547  -0.00162   0.00487   0.00864   0.01634

 Mulliken charges:
               1
     1  N   -0.687913
     2  H    0.309213
     3  H    0.314973
     4  C   -0.093638
     5  H    0.160158
     6  C    0.609817
     7  C   -0.347283
     8  H    0.156635
     9  H    0.193520
    10  O   -0.583899
    11  C    0.145059
    12  C   -0.190442
    13  H    0.171766
    14  C   -0.211051
    15  H    0.151977
    16  C   -0.168759
    17  H    0.157399
    18  C   -0.137666
    19  H    0.163112
    20  C   -0.156880
    21  H    0.151467
    22  N   -0.438524
    23  C   -0.025815
    24  H    0.187286
    25  C    0.604287
    26  C   -0.326365
    27  H    0.187663
    28  H    0.184274
    29  O   -0.480811
    30  C   -0.299151
    31  H    0.184501
    32  H    0.173198
    33  C   -0.144192
    34  H    0.185485
    35  H    0.184381
    36  N   -0.515043
    37  H    0.432276
    38  C   -0.117731
    39  H    0.220874
    40  C    0.637796
    41  C   -0.270105
    42  H    0.179080
    43  H    0.176193
    44  O   -0.419858
    45  C   -0.291422
    46  H    0.157360
    47  H    0.182069
    48  C   -0.283575
    49  H    0.185014
    50  H    0.167896
    51  C   -0.195727
    52  H    0.203425
    53  H    0.211507
    54  N   -0.772019
    55  H    0.433001
    56  H    0.387994
    57  O   -0.870895
    58  H    0.455059
    59  H    0.423047
 Sum of Mulliken charges =   1.00000

 Dipole moment (field-independent basis, Debye):
    X=             -4.6070    Y=              1.6688    Z=              3.5316  Tot=              6.0400
 Quadrupole moment (field-independent basis, Debye-Ang):
   XX=           -122.9694   YY=           -141.1364   ZZ=           -135.3868
   XY=              3.6071   XZ=             26.2589   YZ=              4.5402

 Normal termination of Gaussian 16 at Thu Jun  2 03:00:13 2022.
