 Gaussian 16, Revision C.01,
 Gaussian 16:  ES64L-G16RevC.01  3-Jul-2019

 ----------------------------------------------------------------------
 # B3LYP/6-31G* empiricaldispersion=gd3 guess=read geom=check nosymm in
 tegral(ultrafinegrid)
 ----------------------------------------------------------------------

 ------------------------------------------------------
 Candidate Structure: Conf:474 Charge calc in gas phase
 ------------------------------------------------------
 Structure from the checkpoint file:  "conf-474.chk"
 Charge =  1 Multiplicity = 1

                          Input orientation:
 ---------------------------------------------------------------------
 Center     Atomic      Atomic             Coordinates (Angstroms)
 Number     Number       Type             X           Y           Z
 ---------------------------------------------------------------------
      1          7           0       -4.595282   -0.613320    4.608618
      2          1           0       -4.072176   -1.486721    4.658460
      3          1           0       -5.401826   -0.786100    4.011636
      4          6           0       -3.744485    0.424467    4.049990
      5          1           0       -4.362140    1.304641    3.856565
      6          6           0       -3.006569   -0.019882    2.778699
      7          6           0       -2.658716    0.808903    5.094058
      8          1           0       -3.187928    1.205094    5.966700
      9          1           0       -2.162194   -0.115850    5.408686
     10          8           0       -2.441591   -1.128696    2.768488
     11          6           0       -1.635573    1.793746    4.570869
     12          6           0       -0.309244    1.403210    4.343049
     13          1           0       -0.004470    0.393058    4.609822
     14          6           0       -1.999236    3.114637    4.270256
     15          1           0       -3.015461    3.447025    4.471409
     16          6           0        0.624622    2.301258    3.817209
     17          1           0        1.662136    2.001330    3.689252
     18          6           0       -1.075760    4.010036    3.727924
     19          1           0       -1.377312    5.030276    3.507594
     20          6           0        0.239960    3.603526    3.491476
     21          1           0        0.964967    4.301696    3.083933
     22          7           0       -2.904459    0.823337    1.715888
     23          6           0       -2.134921    0.409891    0.523140
     24          1           0       -2.430026   -0.604671    0.235293
     25          6           0       -0.667133    0.338967    0.861379
     26          6           0       -2.478484    1.454838   -0.557071
     27          1           0       -1.718079    2.240388   -0.578727
     28          1           0       -2.515483    0.995320   -1.546224
     29          8           0        0.193918    1.247952    0.441322
     30          6           0       -3.820305    2.032971   -0.082110
     31          1           0       -4.021052    3.022215   -0.500273
     32          1           0       -4.647654    1.370443   -0.358830
     33          6           0       -3.662647    2.064407    1.440931
     34          1           0       -4.618053    2.053253    1.965938
     35          1           0       -3.087463    2.932958    1.778271
     36          7           0       -0.132591   -0.587012    1.598921
     37          1           0       -0.760536   -1.227375    2.107258
     38          6           0        1.312266   -0.414811    1.722060
     39          1           0        1.578779   -0.257444    2.771809
     40          6           0        1.505471    0.883017    0.954000
     41          6           0        2.120474   -1.576149    1.115427
     42          1           0        3.175241   -1.277375    1.140205
     43          1           0        1.827244   -1.676598    0.066178
     44          8           0        2.460248    1.532870    0.708946
     45          6           0        1.915812   -2.887147    1.886836
     46          1           0        2.144081   -2.717156    2.947724
     47          1           0        0.858055   -3.184995    1.836933
     48          6           0        2.791915   -4.033403    1.360456
     49          1           0        2.691659   -4.885773    2.045557
     50          1           0        3.849420   -3.743338    1.381097
     51          6           0        2.437793   -4.499124   -0.056976
     52          1           0        1.357285   -4.747702   -0.090346
     53          1           0        2.590485   -3.676653   -0.768504
     54          7           0        3.328145   -5.586383   -0.455274
     55          1           0        3.157528   -5.855926   -1.421728
     56          1           0        3.147916   -6.414196    0.110770
     57          8           0       -0.071836   -0.820505   -1.469974
     58          1           0       -0.221142   -1.687923   -1.877136
     59          1           0        0.261650   -0.266105   -2.192612
 ---------------------------------------------------------------------

 SCF Done:  E(RB3LYP) =  -1300.56236634     A.U. after    1 cycles

 Alpha  occ. eigenvalues --  -19.38118 -19.31509 -19.29259 -19.25207 -14.54989
 Alpha  occ. eigenvalues --  -14.50708 -14.41646 -14.39119 -10.48812 -10.48490
 Alpha  occ. eigenvalues --  -10.41495 -10.40254 -10.39129 -10.34994 -10.33679
 Alpha  occ. eigenvalues --  -10.32483 -10.32346 -10.31509 -10.30187 -10.30158
 Alpha  occ. eigenvalues --  -10.29778 -10.29692 -10.29631 -10.29306 -10.29297
 Alpha  occ. eigenvalues --  -10.29243 -10.29193 -10.27626  -1.30341  -1.21940
 Alpha  occ. eigenvalues --   -1.17098  -1.14800  -1.12336  -1.08211  -0.99523
 Alpha  occ. eigenvalues --   -0.96542  -0.96030  -0.95863  -0.92926  -0.90549
 Alpha  occ. eigenvalues --   -0.88283  -0.87395  -0.84889  -0.82410  -0.82156
 Alpha  occ. eigenvalues --   -0.80046  -0.78775  -0.77288  -0.74557  -0.74019
 Alpha  occ. eigenvalues --   -0.72893  -0.70968  -0.70330  -0.69124  -0.67762
 Alpha  occ. eigenvalues --   -0.67671  -0.66759  -0.65553  -0.64459  -0.63294
 Alpha  occ. eigenvalues --   -0.62496  -0.61746  -0.60442  -0.59624  -0.58454
 Alpha  occ. eigenvalues --   -0.58416  -0.57801  -0.57086  -0.56426  -0.56269
 Alpha  occ. eigenvalues --   -0.55926  -0.55509  -0.55284  -0.54768  -0.54422
 Alpha  occ. eigenvalues --   -0.54070  -0.53635  -0.52475  -0.52352  -0.51460
 Alpha  occ. eigenvalues --   -0.51269  -0.51096  -0.50134  -0.49558  -0.48578
 Alpha  occ. eigenvalues --   -0.48382  -0.48243  -0.47939  -0.46955  -0.46323
 Alpha  occ. eigenvalues --   -0.45925  -0.45279  -0.45060  -0.44443  -0.44179
 Alpha  occ. eigenvalues --   -0.43966  -0.43821  -0.43158  -0.42280  -0.39427
 Alpha  occ. eigenvalues --   -0.38464  -0.35594  -0.34904  -0.33890  -0.31347
 Alpha virt. eigenvalues --   -0.19558  -0.14698  -0.11779  -0.10935  -0.10682
 Alpha virt. eigenvalues --   -0.08211  -0.04715  -0.03545  -0.02848  -0.01973
 Alpha virt. eigenvalues --   -0.01247  -0.00517  -0.00068   0.00271   0.00433

 Mulliken charges:
               1
     1  N   -0.687732
     2  H    0.322007
     3  H    0.312504
     4  C   -0.063835
     5  H    0.150990
     6  C    0.609922
     7  C   -0.346693
     8  H    0.195640
     9  H    0.163260
    10  O   -0.583131
    11  C    0.160094
    12  C   -0.203596
    13  H    0.129322
    14  C   -0.191557
    15  H    0.146104
    16  C   -0.165803
    17  H    0.145346
    18  C   -0.133776
    19  H    0.157234
    20  C   -0.130588
    21  H    0.160545
    22  N   -0.442722
    23  C   -0.053636
    24  H    0.214030
    25  C    0.740582
    26  C   -0.318636
    27  H    0.192606
    28  H    0.186987
    29  O   -0.459664
    30  C   -0.303938
    31  H    0.187961
    32  H    0.175364
    33  C   -0.145006
    34  H    0.189184
    35  H    0.188115
    36  N   -0.576721
    37  H    0.426483
    38  C   -0.070446
    39  H    0.233677
    40  C    0.627648
    41  C   -0.271285
    42  H    0.194480
    43  H    0.178719
    44  O   -0.365993
    45  C   -0.288221
    46  H    0.153953
    47  H    0.139298
    48  C   -0.255275
    49  H    0.152049
    50  H    0.167604
    51  C   -0.132812
    52  H    0.107127
    53  H    0.132035
    54  N   -0.711150
    55  H    0.307318
    56  H    0.305003
    57  O   -0.793540
    58  H    0.420603
    59  H    0.421964
 Sum of Mulliken charges =   1.00000

 Dipole moment (field-independent basis, Debye):
    X=             -6.0101    Y=             -0.6651    Z=              3.3190  Tot=              6.8977
 Quadrupole moment (field-independent basis, Debye-Ang):
   XX=           -138.3642   YY=           -129.4771   ZZ=           -140.4757
   XY=            -16.7876   XZ=             -2.7315   YZ=              8.4652

 Normal termination of Gaussian 16 at Thu Jun  2 03:00:19 2022.
