 Gaussian 16, Revision C.01,
 Gaussian 16:  ES64L-G16RevC.01  3-Jul-2019

 ----------------------------------------------------------------------
 # B3LYP/6-31G* empiricaldispersion=gd3 guess=read geom=check nosymm in
 tegral(ultrafinegrid)
 ----------------------------------------------------------------------

 ------------------------------------------------------
 Candidate Structure: Conf:472 Charge calc in gas phase
 ------------------------------------------------------
 Structure from the checkpoint file:  "conf-472.chk"
 Charge =  1 Multiplicity = 1

                          Input orientation:
 ---------------------------------------------------------------------
 Center     Atomic      Atomic             Coordinates (Angstroms)
 Number     Number       Type             X           Y           Z
 ---------------------------------------------------------------------
      1          7           0       -2.271299    1.602959    4.571579
      2          1           0       -3.091471    2.102696    4.918151
      3          1           0       -1.605715    2.331994    4.314681
      4          6           0       -2.669310    0.850084    3.385872
      5          1           0       -1.763242    0.382689    2.980284
      6          6           0       -3.327182    1.779528    2.335885
      7          6           0       -3.644726   -0.276494    3.811510
      8          1           0       -3.234010   -0.713866    4.727094
      9          1           0       -4.608513    0.179072    4.065158
     10          8           0       -4.117767    2.635949    2.703342
     11          6           0       -3.803906   -1.325729    2.738390
     12          6           0       -4.857333   -1.277604    1.816700
     13          1           0       -5.631555   -0.523150    1.932810
     14          6           0       -2.826159   -2.324964    2.585037
     15          1           0       -2.034967   -2.408507    3.328745
     16          6           0       -4.914021   -2.175276    0.744216
     17          1           0       -5.740956   -2.123366    0.041664
     18          6           0       -2.877708   -3.223699    1.514469
     19          1           0       -2.134604   -4.013739    1.429900
     20          6           0       -3.917749   -3.139228    0.579809
     21          1           0       -3.966234   -3.840898   -0.247567
     22          7           0       -2.946158    1.718310    1.006518
     23          6           0       -2.411159    0.552763    0.307756
     24          1           0       -2.902647   -0.372573    0.610245
     25          6           0       -0.948918    0.361450    0.554968
     26          6           0       -2.686257    0.845946   -1.198969
     27          1           0       -1.911380    0.437286   -1.851127
     28          1           0       -3.640785    0.370509   -1.445300
     29          8           0       -0.080909    1.342391    0.419290
     30          6           0       -2.800327    2.375780   -1.251077
     31          1           0       -1.804035    2.830426   -1.283570
     32          1           0       -3.360757    2.718836   -2.124367
     33          6           0       -3.497664    2.717738    0.064300
     34          1           0       -4.586582    2.605781   -0.000660
     35          1           0       -3.288235    3.722269    0.436045
     36          7           0       -0.400262   -0.767880    0.914200
     37          1           0       -0.962068   -1.595235    1.124813
     38          6           0        1.051868   -0.650698    1.079097
     39          1           0        1.292969   -0.705639    2.149990
     40          6           0        1.255584    0.792422    0.632012
     41          6           0        1.871841   -1.695081    0.302090
     42          1           0        1.675971   -1.559330   -0.764305
     43          1           0        1.493883   -2.684712    0.590313
     44          8           0        2.214680    1.460013    0.470488
     45          6           0        3.373963   -1.603432    0.601522
     46          1           0        3.745193   -0.608642    0.326866
     47          1           0        3.536785   -1.714107    1.682644
     48          6           0        4.172225   -2.676252   -0.148604
     49          1           0        3.992496   -2.575646   -1.228952
     50          1           0        3.807146   -3.673644    0.138478
     51          6           0        5.691524   -2.596728    0.115004
     52          1           0        6.191690   -3.338783   -0.518459
     53          1           0        6.061962   -1.615497   -0.209891
     54          7           0        6.139142   -2.808360    1.487178
     55          1           0        5.821329   -3.706884    1.844941
     56          1           0        5.793095   -2.087430    2.115276
     57          8           0        0.505144    0.161140   -2.051150
     58          1           0        0.644262   -0.418106   -2.816815
     59          1           0        0.862150    1.019476   -2.330387
 ---------------------------------------------------------------------

 SCF Done:  E(RB3LYP) =  -1300.54553760     A.U. after    3 cycles

 Alpha  occ. eigenvalues --  -19.39416 -19.32920 -19.29924 -19.22627 -14.57666
 Alpha  occ. eigenvalues --  -14.48650 -14.41572 -14.39094 -10.50122 -10.50018
 Alpha  occ. eigenvalues --  -10.42110 -10.39425 -10.39082 -10.33829 -10.33699
 Alpha  occ. eigenvalues --  -10.32877 -10.32742 -10.31544 -10.31453 -10.31182
 Alpha  occ. eigenvalues --  -10.30870 -10.30801 -10.30767 -10.30557 -10.30289
 Alpha  occ. eigenvalues --  -10.29641 -10.29009 -10.28086  -1.31729  -1.23405
 Alpha  occ. eigenvalues --   -1.15459  -1.14936  -1.14274  -1.07026  -0.99449
 Alpha  occ. eigenvalues --   -0.97484  -0.97274  -0.96010  -0.92290  -0.90639
 Alpha  occ. eigenvalues --   -0.89210  -0.87396  -0.86392  -0.83033  -0.82539
 Alpha  occ. eigenvalues --   -0.81961  -0.78930  -0.77902  -0.75150  -0.73927
 Alpha  occ. eigenvalues --   -0.72395  -0.71853  -0.71089  -0.69614  -0.68580
 Alpha  occ. eigenvalues --   -0.68085  -0.67488  -0.66758  -0.65010  -0.63161
 Alpha  occ. eigenvalues --   -0.62701  -0.62422  -0.61435  -0.60107  -0.58904
 Alpha  occ. eigenvalues --   -0.58315  -0.57798  -0.57418  -0.57177  -0.56988
 Alpha  occ. eigenvalues --   -0.56584  -0.56245  -0.55890  -0.55181  -0.53913
 Alpha  occ. eigenvalues --   -0.53766  -0.53583  -0.52911  -0.52123  -0.51985
 Alpha  occ. eigenvalues --   -0.51331  -0.50963  -0.50035  -0.49899  -0.49109
 Alpha  occ. eigenvalues --   -0.48549  -0.48108  -0.47736  -0.47304  -0.46830
 Alpha  occ. eigenvalues --   -0.46389  -0.45609  -0.45451  -0.45208  -0.45066
 Alpha  occ. eigenvalues --   -0.44683  -0.44553  -0.43587  -0.42482  -0.37518
 Alpha  occ. eigenvalues --   -0.37336  -0.36327  -0.36073  -0.33854  -0.30941
 Alpha virt. eigenvalues --   -0.20895  -0.16026  -0.12767  -0.12623  -0.09984
 Alpha virt. eigenvalues --   -0.08784  -0.06198  -0.04734  -0.03714  -0.02541
 Alpha virt. eigenvalues --   -0.01549  -0.01518  -0.00324  -0.00091   0.00553

 Mulliken charges:
               1
     1  N   -0.688143
     2  H    0.330698
     3  H    0.307313
     4  C   -0.064179
     5  H    0.099402
     6  C    0.588821
     7  C   -0.352307
     8  H    0.187978
     9  H    0.184365
    10  O   -0.488665
    11  C    0.159016
    12  C   -0.196697
    13  H    0.166735
    14  C   -0.226920
    15  H    0.149490
    16  C   -0.131501
    17  H    0.165651
    18  C   -0.166120
    19  H    0.155075
    20  C   -0.130892
    21  H    0.162774
    22  N   -0.467950
    23  C   -0.094067
    24  H    0.203449
    25  C    0.736385
    26  C   -0.324139
    27  H    0.192876
    28  H    0.187275
    29  O   -0.451273
    30  C   -0.303711
    31  H    0.168057
    32  H    0.185875
    33  C   -0.118542
    34  H    0.181633
    35  H    0.197068
    36  N   -0.601056
    37  H    0.388421
    38  C   -0.048407
    39  H    0.243701
    40  C    0.631743
    41  C   -0.272486
    42  H    0.179374
    43  H    0.166048
    44  O   -0.356903
    45  C   -0.282381
    46  H    0.176269
    47  H    0.136139
    48  C   -0.267739
    49  H    0.134815
    50  H    0.135274
    51  C   -0.146880
    52  H    0.163418
    53  H    0.151988
    54  N   -0.697874
    55  H    0.300250
    56  H    0.298962
    57  O   -0.784489
    58  H    0.422811
    59  H    0.424174
 Sum of Mulliken charges =   1.00000

 Dipole moment (field-independent basis, Debye):
    X=             -4.0590    Y=             -4.1125    Z=             -0.9164  Tot=              5.8504
 Quadrupole moment (field-independent basis, Debye-Ang):
   XX=           -148.5784   YY=           -147.2762   ZZ=           -145.3751
   XY=              1.0728   XZ=              1.0584   YZ=             -7.7736

 Normal termination of Gaussian 16 at Thu Jun  2 03:01:06 2022.
