 Gaussian 16, Revision C.01,
 Gaussian 16:  ES64L-G16RevC.01  3-Jul-2019

 ----------------------------------------------------------------------
 # B3LYP/6-31G* empiricaldispersion=gd3 guess=read geom=check nosymm in
 tegral(ultrafinegrid)
 ----------------------------------------------------------------------

 ------------------------------------------------------
 Candidate Structure: Conf:234 Charge calc in gas phase
 ------------------------------------------------------
 Structure from the checkpoint file:  "conf-234.chk"
 Charge =  1 Multiplicity = 1

                          Input orientation:
 ---------------------------------------------------------------------
 Center     Atomic      Atomic             Coordinates (Angstroms)
 Number     Number       Type             X           Y           Z
 ---------------------------------------------------------------------
      1          7           0       -4.207430    1.414767    2.985229
      2          1           0       -3.318769    1.087906    3.360888
      3          1           0       -4.778863    0.581633    2.858189
      4          6           0       -3.987165    2.077002    1.711826
      5          1           0       -4.968702    2.290583    1.269484
      6          6           0       -3.183318    1.211707    0.722600
      7          6           0       -3.286128    3.448592    1.945984
      8          1           0       -3.382113    4.070832    1.051935
      9          1           0       -3.865084    3.936943    2.735479
     10          8           0       -2.596262    0.191739    1.106234
     11          6           0       -1.826299    3.377346    2.339433
     12          6           0       -0.819838    3.608112    1.389435
     13          1           0       -1.096442    3.828523    0.359993
     14          6           0       -1.446587    3.132440    3.667255
     15          1           0       -2.215569    2.978379    4.419634
     16          6           0        0.527613    3.617657    1.760567
     17          1           0        1.290189    3.863177    1.024163
     18          6           0       -0.099660    3.118702    4.036547
     19          1           0        0.172254    2.934176    5.071592
     20          6           0        0.892922    3.365338    3.085740
     21          1           0        1.938435    3.384844    3.379218
     22          7           0       -3.073622    1.611587   -0.580448
     23          6           0       -2.335795    0.748207   -1.522493
     24          1           0       -2.548917   -0.303270   -1.306416
     25          6           0       -0.842074    0.965471   -1.297006
     26          6           0       -2.838130    1.181390   -2.911184
     27          1           0       -2.077278    1.080919   -3.687525
     28          1           0       -3.681609    0.538091   -3.180349
     29          8           0       -0.261688    1.851237   -2.055616
     30          6           0       -3.307675    2.629780   -2.700114
     31          1           0       -2.453501    3.313622   -2.730620
     32          1           0       -4.030900    2.953307   -3.452038
     33          6           0       -3.912318    2.603535   -1.292682
     34          1           0       -4.954814    2.262112   -1.308753
     35          1           0       -3.873893    3.575768   -0.801474
     36          7           0       -0.235928    0.283603   -0.357477
     37          1           0       -0.895267   -0.234523    0.238189
     38          6           0        1.124964    0.496832    0.214041
     39          1           0        1.188302    1.562463    0.461671
     40          6           0        2.208126    0.172452   -0.824147
     41          6           0        1.322979   -0.337235    1.488190
     42          1           0        2.241820    0.039402    1.952835
     43          1           0        1.518210   -1.379377    1.214686
     44          8           0        2.917381   -0.790318   -0.848065
     45          6           0        0.143246   -0.230811    2.459237
     46          1           0       -0.209923    0.805685    2.507227
     47          1           0       -0.687224   -0.831820    2.078547
     48          6           0        0.442681   -0.731509    3.873949
     49          1           0        1.272220   -0.156997    4.308110
     50          1           0        0.749806   -1.783916    3.837361
     51          6           0       -0.791606   -0.598046    4.777820
     52          1           0       -0.560259   -1.027782    5.758342
     53          1           0       -0.992853    0.476299    4.941209
     54          7           0       -1.931882   -1.337296    4.222342
     55          1           0       -2.335934   -0.852600    3.423198
     56          1           0       -2.666949   -1.435750    4.918233
     57          8           0        2.287743    1.184979   -1.755957
     58          1           0        0.729130    1.861009   -1.970994
     59          1           0        2.969903    0.955636   -2.419291
 ---------------------------------------------------------------------

 SCF Done:  E(RB3LYP) =  -1300.58237157     A.U. after    2 cycles

 Alpha  occ. eigenvalues --  -19.37830 -19.36427 -19.29909 -19.25906 -14.55865
 Alpha  occ. eigenvalues --  -14.50896 -14.42024 -14.39013 -10.49652 -10.47769
 Alpha  occ. eigenvalues --  -10.41893 -10.39818 -10.39293 -10.35585 -10.34380
 Alpha  occ. eigenvalues --  -10.32916 -10.31906 -10.31269 -10.30568 -10.30206
 Alpha  occ. eigenvalues --  -10.30089 -10.30034 -10.29547 -10.29387 -10.29295
 Alpha  occ. eigenvalues --  -10.28718 -10.28274 -10.26745  -1.28338  -1.26059
 Alpha  occ. eigenvalues --   -1.17870  -1.17748  -1.12887  -1.08478  -1.00074
 Alpha  occ. eigenvalues --   -0.96187  -0.95990  -0.95533  -0.93287  -0.90127
 Alpha  occ. eigenvalues --   -0.88478  -0.87385  -0.85106  -0.83119  -0.82597
 Alpha  occ. eigenvalues --   -0.81443  -0.78841  -0.77210  -0.74799  -0.74723
 Alpha  occ. eigenvalues --   -0.74007  -0.71982  -0.71213  -0.69908  -0.68636
 Alpha  occ. eigenvalues --   -0.67170  -0.66783  -0.65679  -0.64911  -0.64101
 Alpha  occ. eigenvalues --   -0.62805  -0.61531  -0.61038  -0.60336  -0.59680
 Alpha  occ. eigenvalues --   -0.59061  -0.58551  -0.57533  -0.57214  -0.56819
 Alpha  occ. eigenvalues --   -0.56715  -0.56264  -0.55461  -0.55066  -0.54603
 Alpha  occ. eigenvalues --   -0.54199  -0.53313  -0.52737  -0.52508  -0.52392
 Alpha  occ. eigenvalues --   -0.51772  -0.50371  -0.49533  -0.49386  -0.48925
 Alpha  occ. eigenvalues --   -0.48477  -0.48201  -0.48158  -0.47906  -0.47797
 Alpha  occ. eigenvalues --   -0.47012  -0.46697  -0.45746  -0.44470  -0.44066
 Alpha  occ. eigenvalues --   -0.43072  -0.42717  -0.42338  -0.41677  -0.39457
 Alpha  occ. eigenvalues --   -0.38853  -0.35837  -0.35622  -0.34533  -0.31069
 Alpha virt. eigenvalues --   -0.18964  -0.15488  -0.12197  -0.11387  -0.11028
 Alpha virt. eigenvalues --   -0.08135  -0.05366  -0.03348  -0.02918  -0.02477
 Alpha virt. eigenvalues --   -0.01157  -0.00900  -0.00377   0.00316   0.00724

 Mulliken charges:
               1
     1  N   -0.695781
     2  H    0.317169
     3  H    0.319129
     4  C   -0.089038
     5  H    0.171893
     6  C    0.605061
     7  C   -0.361689
     8  H    0.156091
     9  H    0.202582
    10  O   -0.544048
    11  C    0.161628
    12  C   -0.201347
    13  H    0.123359
    14  C   -0.190227
    15  H    0.166972
    16  C   -0.151934
    17  H    0.139643
    18  C   -0.124630
    19  H    0.162117
    20  C   -0.133761
    21  H    0.155283
    22  N   -0.449942
    23  C   -0.066476
    24  H    0.212096
    25  C    0.638638
    26  C   -0.308134
    27  H    0.187942
    28  H    0.189433
    29  O   -0.559722
    30  C   -0.308346
    31  H    0.179899
    32  H    0.192159
    33  C   -0.142972
    34  H    0.186141
    35  H    0.189639
    36  N   -0.570518
    37  H    0.429308
    38  C   -0.091803
    39  H    0.215335
    40  C    0.619478
    41  C   -0.297045
    42  H    0.179156
    43  H    0.194953
    44  O   -0.379320
    45  C   -0.324112
    46  H    0.162019
    47  H    0.172791
    48  C   -0.243491
    49  H    0.133894
    50  H    0.158470
    51  C   -0.150524
    52  H    0.158265
    53  H    0.115069
    54  N   -0.743079
    55  H    0.309073
    56  H    0.309833
    57  O   -0.622038
    58  H    0.482127
    59  H    0.453331
 Sum of Mulliken charges =   1.00000

 Dipole moment (field-independent basis, Debye):
    X=             -4.7419    Y=              8.2336    Z=             -3.0735  Tot=              9.9862
 Quadrupole moment (field-independent basis, Debye-Ang):
   XX=           -122.0400   YY=           -153.0809   ZZ=           -128.1209
   XY=             -7.2401   XZ=              4.4914   YZ=             -3.5469

 Normal termination of Gaussian 16 at Thu Jun  2 02:55:37 2022.
