 Gaussian 16, Revision C.01,
 Gaussian 16:  ES64L-G16RevC.01  3-Jul-2019

 ----------------------------------------------------------------------
 # B3LYP/6-31G* empiricaldispersion=gd3 guess=read geom=check nosymm in
 tegral(ultrafinegrid)
 ----------------------------------------------------------------------

 ------------------------------------------------------
 Candidate Structure: Conf:102 Charge calc in gas phase
 ------------------------------------------------------
 Structure from the checkpoint file:  "conf-102.chk"
 Charge =  1 Multiplicity = 1

                          Input orientation:
 ---------------------------------------------------------------------
 Center     Atomic      Atomic             Coordinates (Angstroms)
 Number     Number       Type             X           Y           Z
 ---------------------------------------------------------------------
      1          7           0       -4.892252    3.305066    0.366072
      2          1           0       -5.243964    4.257388    0.457113
      3          1           0       -5.458895    2.736011    0.995533
      4          6           0       -3.493217    3.273503    0.815518
      5          1           0       -2.953582    4.005723    0.201560
      6          6           0       -2.948363    1.889355    0.461827
      7          6           0       -3.255110    3.619128    2.300251
      8          1           0       -3.790032    2.891116    2.919468
      9          1           0       -2.191202    3.513815    2.544717
     10          8           0       -2.724369    1.027867    1.331810
     11          6           0       -3.716199    5.028658    2.600535
     12          6           0       -3.018520    6.128200    2.075577
     13          1           0       -2.136064    5.960213    1.459597
     14          6           0       -4.860732    5.271928    3.368503
     15          1           0       -5.412470    4.432674    3.785787
     16          6           0       -3.444256    7.433299    2.321692
     17          1           0       -2.888737    8.271579    1.910155
     18          6           0       -5.290958    6.577391    3.619173
     19          1           0       -6.177536    6.745855    4.223972
     20          6           0       -4.583690    7.661177    3.097692
     21          1           0       -4.916262    8.676303    3.293735
     22          7           0       -2.715401    1.616560   -0.850671
     23          6           0       -2.489176    0.222268   -1.274192
     24          1           0       -3.086749   -0.448470   -0.645223
     25          6           0       -1.028708   -0.158301   -1.036910
     26          6           0       -2.927126    0.209536   -2.746892
     27          1           0       -2.422436   -0.558179   -3.335319
     28          1           0       -4.002476    0.008373   -2.773883
     29          8           0       -0.302939   -0.444989   -2.082213
     30          6           0       -2.634994    1.642767   -3.217794
     31          1           0       -1.569846    1.753216   -3.450950
     32          1           0       -3.204413    1.918532   -4.108113
     33          6           0       -3.014446    2.501054   -2.004701
     34          1           0       -4.075867    2.762781   -1.978890
     35          1           0       -2.426969    3.420929   -1.938991
     36          7           0       -0.571370   -0.159897    0.189030
     37          1           0       -1.294858    0.109086    0.890631
     38          6           0        0.847830   -0.223928    0.620724
     39          1           0        1.423749    0.388813   -0.083535
     40          6           0        1.370002   -1.663207    0.503636
     41          6           0        0.998056    0.310246    2.049363
     42          1           0        2.063873    0.241103    2.295505
     43          1           0        0.485265   -0.381376    2.727540
     44          8           0        1.668444   -2.397795    1.398968
     45          6           0        0.487316    1.743052    2.259838
     46          1           0       -0.586953    1.793882    2.058411
     47          1           0        0.575761    1.976632    3.323958
     48          6           0        1.218372    2.823892    1.450281
     49          1           0        1.315139    2.539782    0.391747
     50          1           0        2.245159    2.931946    1.827477
     51          6           0        0.498460    4.180909    1.496954
     52          1           0        1.103833    4.925846    0.951776
     53          1           0       -0.450276    4.089134    0.948476
     54          7           0        0.168214    4.553421    2.873106
     55          1           0       -0.389431    5.404631    2.893546
     56          1           0        1.018013    4.749899    3.400387
     57          8           0        1.467263   -2.007993   -0.824362
     58          1           0        0.533912   -0.922982   -1.846948
     59          1           0        1.783231   -2.930772   -0.898504
 ---------------------------------------------------------------------

 SCF Done:  E(RB3LYP) =  -1300.58154513     A.U. after    1 cycles

 Alpha  occ. eigenvalues --  -19.37623 -19.35991 -19.29550 -19.25453 -14.55174
 Alpha  occ. eigenvalues --  -14.50167 -14.42291 -14.40376 -10.49255 -10.47448
 Alpha  occ. eigenvalues --  -10.41580 -10.39986 -10.38866 -10.33992 -10.33314
 Alpha  occ. eigenvalues --  -10.32117 -10.31481 -10.31088 -10.30667 -10.28765
 Alpha  occ. eigenvalues --  -10.28620 -10.27782 -10.27457 -10.27024 -10.26792
 Alpha  occ. eigenvalues --  -10.26632 -10.26523 -10.26361  -1.28039  -1.25703
 Alpha  occ. eigenvalues --   -1.17496  -1.17253  -1.12384  -1.07801  -0.99790
 Alpha  occ. eigenvalues --   -0.97398  -0.95562  -0.93245  -0.92624  -0.89502
 Alpha  occ. eigenvalues --   -0.87489  -0.86195  -0.82316  -0.82162  -0.81970
 Alpha  occ. eigenvalues --   -0.81448  -0.77885  -0.77232  -0.74388  -0.74150
 Alpha  occ. eigenvalues --   -0.73417  -0.71790  -0.69370  -0.68324  -0.68065
 Alpha  occ. eigenvalues --   -0.66583  -0.66052  -0.65721  -0.64161  -0.63806
 Alpha  occ. eigenvalues --   -0.62624  -0.60746  -0.59337  -0.58986  -0.58579
 Alpha  occ. eigenvalues --   -0.58360  -0.57924  -0.56968  -0.56756  -0.56328
 Alpha  occ. eigenvalues --   -0.55620  -0.55360  -0.54762  -0.54156  -0.53401
 Alpha  occ. eigenvalues --   -0.53301  -0.52407  -0.52191  -0.52002  -0.51568
 Alpha  occ. eigenvalues --   -0.50378  -0.49730  -0.49566  -0.49440  -0.48962
 Alpha  occ. eigenvalues --   -0.47913  -0.47663  -0.47420  -0.47364  -0.46425
 Alpha  occ. eigenvalues --   -0.46403  -0.45062  -0.44288  -0.43898  -0.43544
 Alpha  occ. eigenvalues --   -0.42972  -0.42300  -0.41717  -0.41501  -0.39003
 Alpha  occ. eigenvalues --   -0.38094  -0.34920  -0.32798  -0.32678  -0.31999
 Alpha virt. eigenvalues --   -0.18769  -0.14843  -0.12028  -0.08414  -0.07790
 Alpha virt. eigenvalues --   -0.07732  -0.04855  -0.03334  -0.02937  -0.01212
 Alpha virt. eigenvalues --   -0.00316  -0.00086   0.00545   0.00644   0.01116

 Mulliken charges:
               1
     1  N   -0.724461
     2  H    0.333185
     3  H    0.317125
     4  C   -0.087126
     5  H    0.159364
     6  C    0.648534
     7  C   -0.385519
     8  H    0.163693
     9  H    0.200277
    10  O   -0.558539
    11  C    0.165591
    12  C   -0.199328
    13  H    0.116759
    14  C   -0.195398
    15  H    0.134180
    16  C   -0.128811
    17  H    0.144011
    18  C   -0.124226
    19  H    0.150412
    20  C   -0.128301
    21  H    0.150787
    22  N   -0.449082
    23  C   -0.084278
    24  H    0.223590
    25  C    0.630914
    26  C   -0.301304
    27  H    0.190001
    28  H    0.190076
    29  O   -0.555569
    30  C   -0.316024
    31  H    0.168305
    32  H    0.192087
    33  C   -0.130051
    34  H    0.218143
    35  H    0.175342
    36  N   -0.570484
    37  H    0.439152
    38  C   -0.097137
    39  H    0.208394
    40  C    0.637009
    41  C   -0.306285
    42  H    0.185312
    43  H    0.190204
    44  O   -0.382033
    45  C   -0.283854
    46  H    0.159930
    47  H    0.188292
    48  C   -0.279020
    49  H    0.115047
    50  H    0.153880
    51  C   -0.140319
    52  H    0.138634
    53  H    0.122973
    54  N   -0.725650
    55  H    0.320619
    56  H    0.310514
    57  O   -0.624484
    58  H    0.481000
    59  H    0.453948
 Sum of Mulliken charges =   1.00000

 Dipole moment (field-independent basis, Debye):
    X=             -4.7137    Y=              6.2013    Z=             -2.8940  Tot=              8.3096
 Quadrupole moment (field-independent basis, Debye-Ang):
   XX=           -123.8522   YY=           -107.4695   ZZ=           -148.7712
   XY=            -24.0895   XZ=              0.0359   YZ=             18.9319

 Normal termination of Gaussian 16 at Thu Jun  2 02:55:22 2022.
