 Gaussian 16, Revision C.01,
 Gaussian 16:  ES64L-G16RevC.01  3-Jul-2019

 ----------------------------------------------------------------------
 # B3LYP/6-31G* empiricaldispersion=gd3 guess=read geom=check nosymm in
 tegral(ultrafinegrid)
 ----------------------------------------------------------------------

 ------------------------------------------------------
 Candidate Structure: Conf:705 Charge calc in gas phase
 ------------------------------------------------------
 Structure from the checkpoint file:  "conf-705.chk"
 Charge =  1 Multiplicity = 1

                          Input orientation:
 ---------------------------------------------------------------------
 Center     Atomic      Atomic             Coordinates (Angstroms)
 Number     Number       Type             X           Y           Z
 ---------------------------------------------------------------------
      1          7           0       -3.882115    4.947285   -0.173610
      2          1           0       -3.171612    5.114602    0.537769
      3          1           0       -4.703917    4.585066    0.306309
      4          6           0       -3.377382    3.989771   -1.149568
      5          1           0       -4.199044    3.729691   -1.823699
      6          6           0       -2.832348    2.722495   -0.481724
      7          6           0       -2.246536    4.650371   -1.974560
      8          1           0       -2.673938    5.560476   -2.408549
      9          1           0       -1.460244    4.961262   -1.277453
     10          8           0       -1.998060    2.791304    0.439064
     11          6           0       -1.663784    3.754700   -3.047359
     12          6           0       -2.428554    3.387666   -4.167298
     13          1           0       -3.436722    3.781624   -4.278879
     14          6           0       -0.358145    3.265149   -2.945452
     15          1           0        0.254266    3.546077   -2.093461
     16          6           0       -1.908244    2.540904   -5.145817
     17          1           0       -2.511274    2.277493   -6.010246
     18          6           0        0.176951    2.426455   -3.928459
     19          1           0        1.201513    2.077947   -3.830993
     20          6           0       -0.600507    2.055316   -5.028713
     21          1           0       -0.183918    1.420518   -5.806486
     22          7           0       -3.252185    1.494759   -0.876978
     23          6           0       -2.677180    0.351300   -0.174992
     24          1           0       -3.156220    0.214688    0.804384
     25          6           0       -1.222885    0.583206    0.072625
     26          6           0       -2.946740   -0.845066   -1.122686
     27          1           0       -2.134109   -0.933013   -1.852175
     28          1           0       -3.027048   -1.784328   -0.570221
     29          8           0       -0.449260    0.999867   -0.914461
     30          6           0       -4.258085   -0.419980   -1.808342
     31          1           0       -4.428289   -0.957971   -2.743901
     32          1           0       -5.113250   -0.606750   -1.149567
     33          6           0       -4.079707    1.088517   -2.032199
     34          1           0       -5.029459    1.628877   -2.035084
     35          1           0       -3.545917    1.305433   -2.962446
     36          7           0       -0.534368    0.183879    1.115726
     37          1           0       -0.959667   -0.149086    1.972120
     38          6           0        0.909120    0.362927    0.917675
     39          1           0        1.294294    1.104460    1.626790
     40          6           0        0.913415    0.968722   -0.480657
     41          6           0        1.722050   -0.945804    0.974521
     42          1           0        1.741063   -1.295738    2.013878
     43          1           0        2.751760   -0.672474    0.714354
     44          8           0        1.796559    1.350124   -1.169154
     45          6           0        1.199694   -2.038976    0.034247
     46          1           0        0.183316   -2.329523    0.336894
     47          1           0        1.111729   -1.646224   -0.988022
     48          6           0        2.096072   -3.283184    0.024242
     49          1           0        2.178843   -3.695712    1.040310
     50          1           0        3.113443   -3.000806   -0.282240
     51          6           0        1.565953   -4.373349   -0.926728
     52          1           0        0.549045   -4.655246   -0.620584
     53          1           0        1.474402   -3.951345   -1.937111
     54          7           0        2.358678   -5.593473   -1.020885
     55          1           0        2.441869   -6.037627   -0.107979
     56          1           0        3.306601   -5.381211   -1.327575
     57          8           0       -0.177165   -0.792484   -2.959347
     58          1           0        0.056053   -1.349039   -3.717918
     59          1           0       -0.234608    0.109095   -3.321229
 ---------------------------------------------------------------------

 SCF Done:  E(RB3LYP) =  -1300.55850892     A.U. after    3 cycles

 Alpha  occ. eigenvalues --  -19.38220 -19.31561 -19.25588 -19.25360 -14.56694
 Alpha  occ. eigenvalues --  -14.50335 -14.41794 -14.38817 -10.50103 -10.48801
 Alpha  occ. eigenvalues --  -10.41121 -10.41031 -10.39551 -10.34806 -10.33639
 Alpha  occ. eigenvalues --  -10.33163 -10.32527 -10.31661 -10.29986 -10.29570
 Alpha  occ. eigenvalues --  -10.29237 -10.28924 -10.28862 -10.28848 -10.28766
 Alpha  occ. eigenvalues --  -10.28754 -10.28593 -10.27891  -1.31134  -1.22042
 Alpha  occ. eigenvalues --   -1.17251  -1.13321  -1.11220  -1.08191  -0.99574
 Alpha  occ. eigenvalues --   -0.96917  -0.95866  -0.95313  -0.92861  -0.91011
 Alpha  occ. eigenvalues --   -0.87941  -0.87544  -0.84202  -0.83028  -0.82047
 Alpha  occ. eigenvalues --   -0.81416  -0.78708  -0.78395  -0.74866  -0.73843
 Alpha  occ. eigenvalues --   -0.72423  -0.70645  -0.70230  -0.69289  -0.67994
 Alpha  occ. eigenvalues --   -0.67364  -0.66709  -0.64735  -0.63652  -0.63252
 Alpha  occ. eigenvalues --   -0.61980  -0.61327  -0.60768  -0.59402  -0.59189
 Alpha  occ. eigenvalues --   -0.58390  -0.58022  -0.57230  -0.56907  -0.56040
 Alpha  occ. eigenvalues --   -0.55874  -0.55443  -0.55233  -0.54373  -0.54152
 Alpha  occ. eigenvalues --   -0.54030  -0.52646  -0.51923  -0.51580  -0.50957
 Alpha  occ. eigenvalues --   -0.50737  -0.49956  -0.49892  -0.49422  -0.48629
 Alpha  occ. eigenvalues --   -0.48374  -0.47779  -0.47530  -0.46783  -0.46046
 Alpha  occ. eigenvalues --   -0.45683  -0.45292  -0.44987  -0.44432  -0.43987
 Alpha  occ. eigenvalues --   -0.43581  -0.43387  -0.42513  -0.40829  -0.39398
 Alpha  occ. eigenvalues --   -0.38222  -0.34822  -0.34548  -0.33846  -0.30877
 Alpha virt. eigenvalues --   -0.19554  -0.14747  -0.11529  -0.10551  -0.10137
 Alpha virt. eigenvalues --   -0.08092  -0.04988  -0.03246  -0.02828  -0.02617
 Alpha virt. eigenvalues --   -0.01676  -0.01020  -0.00069   0.00123   0.00315

 Mulliken charges:
               1
     1  N   -0.688281
     2  H    0.322058
     3  H    0.312497
     4  C   -0.076772
     5  H    0.154455
     6  C    0.638161
     7  C   -0.346255
     8  H    0.194245
     9  H    0.165368
    10  O   -0.560623
    11  C    0.158057
    12  C   -0.198736
    13  H    0.145490
    14  C   -0.174329
    15  H    0.141618
    16  C   -0.127513
    17  H    0.155009
    18  C   -0.167507
    19  H    0.162904
    20  C   -0.153610
    21  H    0.150594
    22  N   -0.462796
    23  C   -0.016793
    24  H    0.187555
    25  C    0.735085
    26  C   -0.343271
    27  H    0.232790
    28  H    0.177443
    29  O   -0.431012
    30  C   -0.310379
    31  H    0.189331
    32  H    0.176441
    33  C   -0.137373
    34  H    0.185810
    35  H    0.196976
    36  N   -0.618138
    37  H    0.388303
    38  C   -0.056998
    39  H    0.246480
    40  C    0.647502
    41  C   -0.279743
    42  H    0.175662
    43  H    0.199672
    44  O   -0.386487
    45  C   -0.307911
    46  H    0.129133
    47  H    0.188798
    48  C   -0.269355
    49  H    0.137488
    50  H    0.143015
    51  C   -0.137355
    52  H    0.141292
    53  H    0.140781
    54  N   -0.697473
    55  H    0.301835
    56  H    0.302077
    57  O   -0.796591
    58  H    0.407061
    59  H    0.414315
 Sum of Mulliken charges =   1.00000

 Dipole moment (field-independent basis, Debye):
    X=             -6.4796    Y=              0.5486    Z=             -1.4627  Tot=              6.6653
 Quadrupole moment (field-independent basis, Debye-Ang):
   XX=           -119.2743   YY=           -161.3624   ZZ=           -129.0027
   XY=            -13.9716   XZ=             14.0648   YZ=             -8.6257

 Normal termination of Gaussian 16 at Thu Jun  2 03:09:03 2022.
