 Gaussian 16, Revision C.01,
 Gaussian 16:  ES64L-G16RevC.01  3-Jul-2019

 ----------------------------------------------------------------------
 # B3LYP/6-31G* empiricaldispersion=gd3 guess=read geom=check nosymm in
 tegral(ultrafinegrid)
 ----------------------------------------------------------------------

 ------------------------------------------------------
 Candidate Structure: Conf:883 Charge calc in gas phase
 ------------------------------------------------------
 Structure from the checkpoint file:  "conf-883.chk"
 Charge =  1 Multiplicity = 1

                          Input orientation:
 ---------------------------------------------------------------------
 Center     Atomic      Atomic             Coordinates (Angstroms)
 Number     Number       Type             X           Y           Z
 ---------------------------------------------------------------------
      1          7           0       -4.012665    0.314728    4.169136
      2          1           0       -4.507895   -0.434637    3.692554
      3          1           0       -4.626230    0.689586    4.888572
      4          6           0       -3.646341    1.378639    3.250047
      5          1           0       -4.504703    1.928719    2.825326
      6          6           0       -2.832174    0.791970    2.102285
      7          6           0       -2.752255    2.409561    4.007486
      8          1           0       -1.905091    1.850591    4.418500
      9          1           0       -2.354745    3.147786    3.300931
     10          8           0       -2.236517   -0.290988    2.200460
     11          6           0       -3.519703    3.109934    5.105197
     12          6           0       -4.288421    4.246012    4.818001
     13          1           0       -4.293940    4.650680    3.807080
     14          6           0       -3.517272    2.608731    6.414050
     15          1           0       -2.925630    1.726895    6.645971
     16          6           0       -5.037313    4.870830    5.814908
     17          1           0       -5.622415    5.755174    5.578625
     18          6           0       -4.267326    3.231706    7.413651
     19          1           0       -4.252480    2.834955    8.424821
     20          6           0       -5.028583    4.363386    7.116498
     21          1           0       -5.608493    4.850681    7.894889
     22          7           0       -2.725927    1.530318    0.954562
     23          6           0       -2.087767    0.932506   -0.233774
     24          1           0       -2.386106   -0.116750   -0.334255
     25          6           0       -0.587413    0.892370   -0.058971
     26          6           0       -2.565229    1.810355   -1.401507
     27          1           0       -1.844000    1.850006   -2.219431
     28          1           0       -3.495633    1.385077   -1.789908
     29          8           0        0.236128    1.486689   -0.904271
     30          6           0       -2.827841    3.171486   -0.739444
     31          1           0       -1.885120    3.711924   -0.594345
     32          1           0       -3.494934    3.808417   -1.324423
     33          6           0       -3.431903    2.787973    0.616138
     34          1           0       -4.509992    2.602417    0.535414
     35          1           0       -3.268546    3.545298    1.384554
     36          7           0        0.013960    0.274292    0.912519
     37          1           0       -0.565043   -0.214830    1.617951
     38          6           0        1.466726    0.323414    0.769251
     39          1           0        1.902444    0.889065    1.600837
     40          6           0        1.598714    1.141850   -0.503777
     41          6           0        2.125332   -1.065468    0.659283
     42          1           0        3.199781   -0.884515    0.543817
     43          1           0        1.769263   -1.538489   -0.260616
     44          8           0        2.527426    1.484755   -1.145844
     45          6           0        1.833048   -1.962185    1.874094
     46          1           0        0.771778   -2.245694    1.868899
     47          1           0        2.389298   -2.896446    1.737770
     48          6           0        2.195770   -1.366104    3.243781
     49          1           0        1.965925   -2.116645    4.007270
     50          1           0        1.562614   -0.493206    3.466968
     51          6           0        3.671797   -0.966909    3.389435
     52          1           0        3.895263   -0.095959    2.741498
     53          1           0        3.831231   -0.623246    4.417003
     54          7           0        4.545636   -2.118132    3.156409
     55          1           0        5.463002   -1.957930    3.565082
     56          1           0        4.701034   -2.265060    2.161410
     57          8           0       -0.257942   -1.160123   -1.762143
     58          1           0       -0.487272   -2.100809   -1.705738
     59          1           0       -0.059789   -1.015052   -2.700585
 ---------------------------------------------------------------------

 SCF Done:  E(RB3LYP) =  -1300.55157428     A.U. after    2 cycles

 Alpha  occ. eigenvalues --  -19.38280 -19.31771 -19.29150 -19.25114 -14.55041
 Alpha  occ. eigenvalues --  -14.50479 -14.40673 -14.39770 -10.48862 -10.48668
 Alpha  occ. eigenvalues --  -10.41668 -10.40371 -10.39219 -10.35265 -10.33351
 Alpha  occ. eigenvalues --  -10.32697 -10.32475 -10.31817 -10.30039 -10.29695
 Alpha  occ. eigenvalues --  -10.29173 -10.28025 -10.27829 -10.26867 -10.26522
 Alpha  occ. eigenvalues --  -10.26509 -10.26374 -10.26244  -1.30375  -1.22167
 Alpha  occ. eigenvalues --   -1.17173  -1.14703  -1.12356  -1.08185  -0.98971
 Alpha  occ. eigenvalues --   -0.97010  -0.96063  -0.93144  -0.93068  -0.90379
 Alpha  occ. eigenvalues --   -0.87360  -0.86410  -0.82520  -0.81982  -0.81724
 Alpha  occ. eigenvalues --   -0.80448  -0.78035  -0.77393  -0.74612  -0.73878
 Alpha  occ. eigenvalues --   -0.73098  -0.69854  -0.68601  -0.68185  -0.67074
 Alpha  occ. eigenvalues --   -0.66620  -0.66068  -0.65830  -0.64572  -0.62092
 Alpha  occ. eigenvalues --   -0.61921  -0.60530  -0.59659  -0.59279  -0.58959
 Alpha  occ. eigenvalues --   -0.58248  -0.58005  -0.57481  -0.56620  -0.56341
 Alpha  occ. eigenvalues --   -0.55742  -0.55118  -0.54914  -0.53773  -0.53583
 Alpha  occ. eigenvalues --   -0.53406  -0.52376  -0.52146  -0.51773  -0.50857
 Alpha  occ. eigenvalues --   -0.50162  -0.49871  -0.49522  -0.49349  -0.48475
 Alpha  occ. eigenvalues --   -0.48283  -0.48134  -0.47406  -0.47236  -0.46361
 Alpha  occ. eigenvalues --   -0.45754  -0.44871  -0.44467  -0.43732  -0.43623
 Alpha  occ. eigenvalues --   -0.43204  -0.42407  -0.41939  -0.41583  -0.38555
 Alpha  occ. eigenvalues --   -0.38305  -0.33347  -0.32590  -0.31985  -0.31889
 Alpha virt. eigenvalues --   -0.19543  -0.14699  -0.12041  -0.08204  -0.07804
 Alpha virt. eigenvalues --   -0.07766  -0.04775  -0.03908  -0.02977  -0.02179
 Alpha virt. eigenvalues --   -0.01472  -0.01134  -0.00639   0.00436   0.01067

 Mulliken charges:
               1
     1  N   -0.714695
     2  H    0.314163
     3  H    0.326258
     4  C   -0.046900
     5  H    0.143506
     6  C    0.610940
     7  C   -0.356376
     8  H    0.171036
     9  H    0.141590
    10  O   -0.552178
    11  C    0.151589
    12  C   -0.181742
    13  H    0.115734
    14  C   -0.187422
    15  H    0.148368
    16  C   -0.126567
    17  H    0.146590
    18  C   -0.128064
    19  H    0.150218
    20  C   -0.126368
    21  H    0.151044
    22  N   -0.458452
    23  C   -0.074893
    24  H    0.224973
    25  C    0.739339
    26  C   -0.315340
    27  H    0.193913
    28  H    0.185838
    29  O   -0.461747
    30  C   -0.309003
    31  H    0.173171
    32  H    0.193123
    33  C   -0.141603
    34  H    0.186199
    35  H    0.190996
    36  N   -0.591478
    37  H    0.438698
    38  C   -0.063243
    39  H    0.243353
    40  C    0.618785
    41  C   -0.278698
    42  H    0.187313
    43  H    0.176690
    44  O   -0.356314
    45  C   -0.302954
    46  H    0.150091
    47  H    0.187281
    48  C   -0.253219
    49  H    0.179336
    50  H    0.115042
    51  C   -0.152300
    52  H    0.105599
    53  H    0.165143
    54  N   -0.712697
    55  H    0.318681
    56  H    0.298577
    57  O   -0.795665
    58  H    0.421894
    59  H    0.422846
 Sum of Mulliken charges =   1.00000

 Dipole moment (field-independent basis, Debye):
    X=             -5.5072    Y=              4.0797    Z=              2.5546  Tot=              7.3143
 Quadrupole moment (field-independent basis, Debye-Ang):
   XX=           -109.9556   YY=           -141.6330   ZZ=           -128.4802
   XY=            -27.3063   XZ=             -7.4097   YZ=             21.2629

 Normal termination of Gaussian 16 at Thu Jun  2 03:00:20 2022.
