 Gaussian 16, Revision C.01,
 Gaussian 16:  ES64L-G16RevC.01  3-Jul-2019

 ----------------------------------------------------------------------
 # B3LYP/6-31G* empiricaldispersion=gd3 guess=read geom=check nosymm in
 tegral(ultrafinegrid)
 ----------------------------------------------------------------------

 ------------------------------------------------------
 Candidate Structure: Conf:608 Charge calc in gas phase
 ------------------------------------------------------
 Structure from the checkpoint file:  "conf-608.chk"
 Charge =  1 Multiplicity = 1

                          Input orientation:
 ---------------------------------------------------------------------
 Center     Atomic      Atomic             Coordinates (Angstroms)
 Number     Number       Type             X           Y           Z
 ---------------------------------------------------------------------
      1          7           0       -2.539248    3.726877    3.671360
      2          1           0       -3.385225    4.269674    3.494813
      3          1           0       -1.777102    4.323692    3.351987
      4          6           0       -2.597120    2.529497    2.850577
      5          1           0       -1.664016    1.970443    3.020724
      6          6           0       -2.742732    2.850568    1.346681
      7          6           0       -3.772894    1.626459    3.329109
      8          1           0       -3.745086    0.666040    2.798115
      9          1           0       -3.589661    1.418227    4.388192
     10          8           0       -3.175819    3.923619    0.964141
     11          6           0       -5.134130    2.259356    3.143994
     12          6           0       -5.689707    3.060900    4.150165
     13          1           0       -5.146541    3.200724    5.081362
     14          6           0       -5.846791    2.083460    1.950843
     15          1           0       -5.427612    1.460011    1.162852
     16          6           0       -6.928089    3.677468    3.963496
     17          1           0       -7.347502    4.294387    4.753172
     18          6           0       -7.084750    2.696166    1.762245
     19          1           0       -7.626381    2.548022    0.832218
     20          6           0       -7.627919    3.496765    2.769375
     21          1           0       -8.593299    3.973228    2.625363
     22          7           0       -2.403994    1.873602    0.424205
     23          6           0       -1.793545    0.589883    0.698938
     24          1           0       -2.307665    0.033876    1.489990
     25          6           0       -0.352738    0.720993    1.103328
     26          6           0       -1.870081   -0.161542   -0.666554
     27          1           0       -1.062107   -0.886517   -0.795170
     28          1           0       -2.830049   -0.686854   -0.688007
     29          8           0        0.441133    1.551949    0.478040
     30          6           0       -1.832493    0.979225   -1.695388
     31          1           0       -0.796201    1.277239   -1.884493
     32          1           0       -2.277021    0.682926   -2.648671
     33          6           0       -2.599250    2.121699   -1.020668
     34          1           0       -3.671317    2.100934   -1.246371
     35          1           0       -2.225407    3.114693   -1.277448
     36          7           0        0.254117    0.028908    2.035846
     37          1           0       -0.209316   -0.679623    2.593133
     38          6           0        1.701591    0.278133    2.062506
     39          1           0        1.961985    0.829282    2.975936
     40          6           0        1.820789    1.275492    0.911300
     41          6           0        2.521187   -1.022801    1.963562
     42          1           0        2.047942   -1.654760    1.213959
     43          1           0        2.434944   -1.534783    2.930455
     44          8           0        2.721864    1.889291    0.464294
     45          6           0        4.004532   -0.802182    1.626745
     46          1           0        4.098910   -0.108945    0.785726
     47          1           0        4.495659   -0.321205    2.480731
     48          6           0        4.729166   -2.117748    1.273056
     49          1           0        4.311637   -2.953866    1.853076
     50          1           0        5.778877   -2.040918    1.577525
     51          6           0        4.726083   -2.467021   -0.219592
     52          1           0        5.169752   -1.639147   -0.784702
     53          1           0        5.366808   -3.345924   -0.378699
     54          7           0        3.362269   -2.685862   -0.765129
     55          1           0        2.942447   -3.492691   -0.299713
     56          1           0        3.442492   -2.960877   -1.745253
     57          8           0        1.470505   -0.627716   -0.797365
     58          1           0        2.175745   -1.340786   -0.827068
     59          1           0        1.614580   -0.092404   -1.592476
 ---------------------------------------------------------------------

 SCF Done:  E(RB3LYP) =  -1300.55376512     A.U. after    3 cycles

 Alpha  occ. eigenvalues --  -19.38754 -19.31971 -19.25767 -19.21532 -14.57915
 Alpha  occ. eigenvalues --  -14.47936 -14.45902 -14.39857 -10.50042 -10.49537
 Alpha  occ. eigenvalues --  -10.41928 -10.39602 -10.38278 -10.33764 -10.32860
 Alpha  occ. eigenvalues --  -10.32753 -10.32572 -10.32445 -10.30909 -10.30562
 Alpha  occ. eigenvalues --  -10.30224 -10.28622 -10.26920 -10.25994 -10.25643
 Alpha  occ. eigenvalues --  -10.25617 -10.25482 -10.25377  -1.31220  -1.22731
 Alpha  occ. eigenvalues --   -1.14141  -1.13956  -1.11179  -1.06741  -1.01410
 Alpha  occ. eigenvalues --   -0.97995  -0.96940  -0.92323  -0.92200  -0.90663
 Alpha  occ. eigenvalues --   -0.88064  -0.85658  -0.84018  -0.82366  -0.81106
 Alpha  occ. eigenvalues --   -0.80215  -0.79672  -0.76890  -0.75182  -0.73970
 Alpha  occ. eigenvalues --   -0.71013  -0.70719  -0.70008  -0.68353  -0.67417
 Alpha  occ. eigenvalues --   -0.66968  -0.65303  -0.65199  -0.64058  -0.62323
 Alpha  occ. eigenvalues --   -0.61814  -0.61081  -0.60437  -0.59744  -0.58587
 Alpha  occ. eigenvalues --   -0.58337  -0.57825  -0.57453  -0.56771  -0.56592
 Alpha  occ. eigenvalues --   -0.55751  -0.55334  -0.54530  -0.54243  -0.53260
 Alpha  occ. eigenvalues --   -0.52849  -0.52268  -0.51569  -0.51164  -0.49924
 Alpha  occ. eigenvalues --   -0.49782  -0.49506  -0.49130  -0.48740  -0.48565
 Alpha  occ. eigenvalues --   -0.48137  -0.47153  -0.46961  -0.46572  -0.46143
 Alpha  occ. eigenvalues --   -0.45972  -0.45691  -0.45035  -0.44558  -0.43963
 Alpha  occ. eigenvalues --   -0.42342  -0.41736  -0.40794  -0.40709  -0.38329
 Alpha  occ. eigenvalues --   -0.35810  -0.35290  -0.33015  -0.31639  -0.31070
 Alpha virt. eigenvalues --   -0.20423  -0.15037  -0.09681  -0.08481  -0.07099
 Alpha virt. eigenvalues --   -0.06676  -0.06245  -0.05280  -0.04011  -0.03470
 Alpha virt. eigenvalues --   -0.02767  -0.00430   0.00284   0.00375   0.01015

 Mulliken charges:
               1
     1  N   -0.692427
     2  H    0.334063
     3  H    0.307264
     4  C   -0.075263
     5  H    0.095351
     6  C    0.591405
     7  C   -0.361454
     8  H    0.134042
     9  H    0.178007
    10  O   -0.478136
    11  C    0.158640
    12  C   -0.190281
    13  H    0.147320
    14  C   -0.167670
    15  H    0.105532
    16  C   -0.125609
    17  H    0.147853
    18  C   -0.125220
    19  H    0.140415
    20  C   -0.125125
    21  H    0.147732
    22  N   -0.450357
    23  C   -0.101572
    24  H    0.180529
    25  C    0.749966
    26  C   -0.314898
    27  H    0.198874
    28  H    0.192442
    29  O   -0.442067
    30  C   -0.313924
    31  H    0.166274
    32  H    0.186526
    33  C   -0.113207
    34  H    0.184194
    35  H    0.199641
    36  N   -0.606251
    37  H    0.390132
    38  C   -0.037376
    39  H    0.245346
    40  C    0.649701
    41  C   -0.281871
    42  H    0.181463
    43  H    0.169812
    44  O   -0.364778
    45  C   -0.282980
    46  H    0.180335
    47  H    0.165284
    48  C   -0.282008
    49  H    0.145876
    50  H    0.177450
    51  C   -0.145615
    52  H    0.168987
    53  H    0.163256
    54  N   -0.772657
    55  H    0.324448
    56  H    0.338174
    57  O   -0.856624
    58  H    0.458827
    59  H    0.402210
 Sum of Mulliken charges =   1.00000

 Dipole moment (field-independent basis, Debye):
    X=              3.7391    Y=             -5.1668    Z=              4.1689  Tot=              7.6194
 Quadrupole moment (field-independent basis, Debye-Ang):
   XX=           -112.8754   YY=           -153.6140   ZZ=           -137.5034
   XY=            -22.8670   XZ=              0.3478   YZ=              3.2963

 Normal termination of Gaussian 16 at Thu Jun  2 03:09:08 2022.
