 Gaussian 16, Revision C.01,
 Gaussian 16:  ES64L-G16RevC.01  3-Jul-2019

 ----------------------------------------------------------------------
 # B3LYP/6-31G* empiricaldispersion=gd3 guess=read geom=check nosymm in
 tegral(ultrafinegrid)
 ----------------------------------------------------------------------

 ------------------------------------------------------
 Candidate Structure: Conf:879 Charge calc in gas phase
 ------------------------------------------------------
 Structure from the checkpoint file:  "conf-879.chk"
 Charge =  1 Multiplicity = 1

                          Input orientation:
 ---------------------------------------------------------------------
 Center     Atomic      Atomic             Coordinates (Angstroms)
 Number     Number       Type             X           Y           Z
 ---------------------------------------------------------------------
      1          7           0       -1.247876    2.757986   -2.961050
      2          1           0       -1.193867    3.667875   -3.431826
      3          1           0       -1.736651    2.084225   -3.585181
      4          6           0       -2.092663    2.796681   -1.714319
      5          1           0       -1.431607    3.063614   -0.892753
      6          6           0       -2.636711    1.354678   -1.619155
      7          6           0       -3.234415    3.850536   -1.839026
      8          1           0       -4.036549    3.542699   -1.159324
      9          1           0       -2.850619    4.803281   -1.459623
     10          8           0       -2.862415    0.754889   -2.675258
     11          6           0       -3.743434    4.029351   -3.253627
     12          6           0       -3.270368    5.102491   -4.025749
     13          1           0       -2.615366    5.846377   -3.573669
     14          6           0       -4.626653    3.109426   -3.835828
     15          1           0       -4.995126    2.270151   -3.254513
     16          6           0       -3.670640    5.253602   -5.356031
     17          1           0       -3.308009    6.096138   -5.937414
     18          6           0       -5.027967    3.262860   -5.162856
     19          1           0       -5.718476    2.548383   -5.600927
     20          6           0       -4.548960    4.331308   -5.926093
     21          1           0       -4.867476    4.448666   -6.957501
     22          7           0       -2.851269    0.844268   -0.393723
     23          6           0       -2.300004    1.405380    0.854844
     24          1           0       -2.709461    2.395981    1.069636
     25          6           0       -0.770232    1.587021    0.813805
     26          6           0       -2.742710    0.379418    1.925724
     27          1           0       -2.043524    0.346089    2.764426
     28          1           0       -3.721227    0.675503    2.317146
     29          8           0       -0.241286    2.443949    1.502960
     30          6           0       -2.853277   -0.944509    1.151557
     31          1           0       -1.865229   -1.406210    1.036047
     32          1           0       -3.497785   -1.671413    1.650889
     33          6           0       -3.409924   -0.516890   -0.212013
     34          1           0       -4.503817   -0.456969   -0.207803
     35          1           0       -3.110121   -1.152665   -1.047998
     36          7           0       -0.076443    0.785041   -0.062980
     37          1           0       -0.552995   -0.020056   -0.449935
     38          6           0        1.378923    0.716382   -0.000872
     39          1           0        1.687414    1.612243    0.554100
     40          6           0        2.032256    0.825915   -1.374134
     41          6           0        1.887917   -0.535332    0.739239
     42          1           0        2.980242   -0.508003    0.715526
     43          1           0        1.592657   -1.431178    0.173826
     44          8           0        3.104946    0.366756   -1.661169
     45          6           0        1.372635   -0.629668    2.181052
     46          1           0        1.644009    0.283787    2.727493
     47          1           0        0.274318   -0.660754    2.170447
     48          6           0        1.886960   -1.862361    2.939272
     49          1           0        1.647439   -2.771028    2.365696
     50          1           0        1.354514   -1.950543    3.893003
     51          6           0        3.387971   -1.837304    3.248947
     52          1           0        3.967748   -1.779476    2.308935
     53          1           0        3.616517   -0.922896    3.812226
     54          7           0        3.738535   -2.981457    4.093684
     55          1           0        4.710106   -2.913551    4.390714
     56          1           0        3.667693   -3.844416    3.555737
     57          8           0        1.316784    1.558344   -2.309256
     58          1           0       -0.305298    2.384262   -2.739498
     59          1           0        1.901234    1.568154   -3.094144
 ---------------------------------------------------------------------

 SCF Done:  E(RB3LYP) =  -1300.59489203     A.U. after    1 cycles

 Alpha  occ. eigenvalues --  -19.33984 -19.27152 -19.26801 -19.24670 -14.59067
 Alpha  occ. eigenvalues --  -14.51080 -14.49582 -14.37377 -10.45174 -10.43749
 Alpha  occ. eigenvalues --  -10.41846 -10.40474 -10.36928 -10.36223 -10.34758
 Alpha  occ. eigenvalues --  -10.34051 -10.31853 -10.31824 -10.31393 -10.30666
 Alpha  occ. eigenvalues --  -10.30137 -10.30008 -10.29808 -10.29676 -10.29296
 Alpha  occ. eigenvalues --  -10.27737 -10.27583 -10.25781  -1.23829  -1.19316
 Alpha  occ. eigenvalues --   -1.16817  -1.14960  -1.13642  -1.09052  -1.05651
 Alpha  occ. eigenvalues --   -0.97346  -0.94351  -0.93979  -0.91944  -0.91019
 Alpha  occ. eigenvalues --   -0.88269  -0.86276  -0.85535  -0.85345  -0.80171
 Alpha  occ. eigenvalues --   -0.78915  -0.77864  -0.74364  -0.73680  -0.73386
 Alpha  occ. eigenvalues --   -0.72547  -0.71911  -0.71520  -0.71120  -0.69841
 Alpha  occ. eigenvalues --   -0.69395  -0.66566  -0.65456  -0.63997  -0.63500
 Alpha  occ. eigenvalues --   -0.62246  -0.61802  -0.61086  -0.60013  -0.58835
 Alpha  occ. eigenvalues --   -0.58230  -0.57842  -0.57171  -0.56514  -0.56223
 Alpha  occ. eigenvalues --   -0.55500  -0.55029  -0.54744  -0.54509  -0.54219
 Alpha  occ. eigenvalues --   -0.53532  -0.53143  -0.52805  -0.52674  -0.52142
 Alpha  occ. eigenvalues --   -0.51556  -0.50724  -0.50498  -0.49614  -0.48199
 Alpha  occ. eigenvalues --   -0.48035  -0.47421  -0.47152  -0.47049  -0.46305
 Alpha  occ. eigenvalues --   -0.45472  -0.45344  -0.45044  -0.44259  -0.42793
 Alpha  occ. eigenvalues --   -0.41553  -0.41017  -0.40953  -0.40729  -0.40242
 Alpha  occ. eigenvalues --   -0.38496  -0.36983  -0.36285  -0.35886  -0.29596
 Alpha virt. eigenvalues --   -0.13780  -0.12402  -0.12078  -0.11708  -0.11220
 Alpha virt. eigenvalues --   -0.08713  -0.05985  -0.05086  -0.02999  -0.02557
 Alpha virt. eigenvalues --   -0.02150  -0.01365  -0.00679  -0.00258   0.00843

 Mulliken charges:
               1
     1  N   -0.779345
     2  H    0.402342
     3  H    0.423741
     4  C   -0.107855
     5  H    0.221943
     6  C    0.615764
     7  C   -0.387509
     8  H    0.202112
     9  H    0.193443
    10  O   -0.527096
    11  C    0.126536
    12  C   -0.225714
    13  H    0.144045
    14  C   -0.164650
    15  H    0.153674
    16  C   -0.122751
    17  H    0.163826
    18  C   -0.128367
    19  H    0.165648
    20  C   -0.124290
    21  H    0.166734
    22  N   -0.466218
    23  C   -0.062146
    24  H    0.194796
    25  C    0.591889
    26  C   -0.307689
    27  H    0.203513
    28  H    0.186958
    29  O   -0.496450
    30  C   -0.322103
    31  H    0.163388
    32  H    0.194266
    33  C   -0.141059
    34  H    0.192322
    35  H    0.198524
    36  N   -0.612789
    37  H    0.345529
    38  C   -0.084229
    39  H    0.235037
    40  C    0.619134
    41  C   -0.269045
    42  H    0.194413
    43  H    0.141716
    44  O   -0.413486
    45  C   -0.283882
    46  H    0.160155
    47  H    0.121621
    48  C   -0.251632
    49  H    0.126552
    50  H    0.163705
    51  C   -0.138606
    52  H    0.117846
    53  H    0.145798
    54  N   -0.713585
    55  H    0.307582
    56  H    0.297457
    57  O   -0.626126
    58  H    0.443205
    59  H    0.431407
 Sum of Mulliken charges =   1.00000

 Dipole moment (field-independent basis, Debye):
    X=             -7.5663    Y=              8.7901    Z=             -9.4531  Tot=             14.9625
 Quadrupole moment (field-independent basis, Debye-Ang):
   XX=           -123.7735   YY=           -121.6382   ZZ=           -122.7887
   XY=            -21.9382   XZ=             17.7597   YZ=            -43.5631

 Normal termination of Gaussian 16 at Thu Jun  2 03:00:11 2022.
