 Gaussian 16, Revision C.01,
 Gaussian 16:  ES64L-G16RevC.01  3-Jul-2019

 ----------------------------------------------------------------------
 # B3LYP/6-31G* empiricaldispersion=gd3 guess=read geom=check nosymm in
 tegral(ultrafinegrid)
 ----------------------------------------------------------------------

 ------------------------------------------------------
 Candidate Structure: Conf:669 Charge calc in gas phase
 ------------------------------------------------------
 Structure from the checkpoint file:  "conf-669.chk"
 Charge =  1 Multiplicity = 1

                          Input orientation:
 ---------------------------------------------------------------------
 Center     Atomic      Atomic             Coordinates (Angstroms)
 Number     Number       Type             X           Y           Z
 ---------------------------------------------------------------------
      1          7           0       -3.812103   -2.896502    1.524268
      2          1           0       -4.078660   -3.410710    2.361082
      3          1           0       -4.156261   -3.427866    0.726063
      4          6           0       -2.361703   -2.758472    1.473661
      5          1           0       -2.031397   -2.372192    2.445386
      6          6           0       -2.034516   -1.646206    0.481188
      7          6           0       -1.552789   -4.057670    1.208168
      8          1           0       -1.880989   -4.506945    0.257211
      9          1           0       -0.483785   -3.815795    1.124731
     10          8           0       -1.360359   -1.909189   -0.631056
     11          6           0       -1.756251   -5.049645    2.334063
     12          6           0       -0.864951   -5.082255    3.415300
     13          1           0        0.020799   -4.452149    3.405576
     14          6           0       -2.867270   -5.903616    2.343905
     15          1           0       -3.550792   -5.913894    1.497886
     16          6           0       -1.089076   -5.938861    4.493797
     17          1           0       -0.387333   -5.956783    5.322266
     18          6           0       -3.091252   -6.762450    3.421497
     19          1           0       -3.951700   -7.424897    3.412739
     20          6           0       -2.206107   -6.776748    4.501110
     21          1           0       -2.379309   -7.446075    5.338219
     22          7           0       -2.384843   -0.410491    0.669881
     23          6           0       -1.994715    0.719505   -0.236658
     24          1           0       -2.038352    0.373861   -1.271772
     25          6           0       -0.552708    1.118106    0.184208
     26          6           0       -3.030959    1.794309    0.100333
     27          1           0       -2.642031    2.791277   -0.114514
     28          1           0       -3.930537    1.631177   -0.501978
     29          8           0       -0.364851    1.901285    1.104748
     30          6           0       -3.316985    1.592347    1.599639
     31          1           0       -2.558468    2.109552    2.187179
     32          1           0       -4.303686    1.961224    1.888137
     33          6           0       -3.216109    0.075296    1.816939
     34          1           0       -4.170133   -0.451402    1.764096
     35          1           0       -2.726146   -0.193442    2.756498
     36          7           0        0.427337    0.455849   -0.473018
     37          1           0        0.198885   -0.156292   -1.243489
     38          6           0        1.820409    0.495136   -0.038708
     39          1           0        1.978430    1.442146    0.482551
     40          6           0        2.785781    0.457288   -1.216515
     41          6           0        2.152794   -0.679008    0.915399
     42          1           0        3.228588   -0.647005    1.121664
     43          1           0        1.959213   -1.623077    0.384226
     44          8           0        3.946346    0.769747   -1.135093
     45          6           0        1.368425   -0.642846    2.232142
     46          1           0        1.602807    0.286874    2.766518
     47          1           0        0.291012   -0.602125    2.022447
     48          6           0        1.661983   -1.849993    3.129670
     49          1           0        2.747917   -1.954645    3.259188
     50          1           0        1.325880   -2.770292    2.625295
     51          6           0        1.017422   -1.747603    4.526892
     52          1           0        1.309482   -2.619284    5.124205
     53          1           0        1.435889   -0.872615    5.040167
     54          7           0       -0.440218   -1.639041    4.603899
     55          1           0       -0.907668   -2.488988    4.300079
     56          1           0       -0.793131   -0.846554    4.074440
     57          8           0        2.212466   -0.043026   -2.341636
     58          1           0       -1.132327   -2.854851   -0.681612
     59          1           0        2.905110   -0.063085   -3.029995
 ---------------------------------------------------------------------

 SCF Done:  E(RB3LYP) =  -1300.56818951     A.U. after    1 cycles

 Alpha  occ. eigenvalues --  -19.39074 -19.30475 -19.24124 -19.24095 -14.56823
 Alpha  occ. eigenvalues --  -14.48666 -14.47274 -14.41384 -10.49252 -10.42534
 Alpha  occ. eigenvalues --  -10.41768 -10.39793 -10.38434 -10.36837 -10.34933
 Alpha  occ. eigenvalues --  -10.34561 -10.31920 -10.31906 -10.31171 -10.30342
 Alpha  occ. eigenvalues --  -10.30229 -10.30118 -10.30086 -10.29717 -10.29676
 Alpha  occ. eigenvalues --  -10.29398 -10.29022 -10.28222  -1.28757  -1.21009
 Alpha  occ. eigenvalues --   -1.16617  -1.13984  -1.12112  -1.05381  -1.05138
 Alpha  occ. eigenvalues --   -0.97807  -0.96934  -0.96003  -0.91771  -0.91368
 Alpha  occ. eigenvalues --   -0.89631  -0.86263  -0.86096  -0.85404  -0.83213
 Alpha  occ. eigenvalues --   -0.80091  -0.78868  -0.76944  -0.73706  -0.73170
 Alpha  occ. eigenvalues --   -0.72251  -0.71750  -0.71389  -0.70600  -0.68974
 Alpha  occ. eigenvalues --   -0.68482  -0.68168  -0.67199  -0.64062  -0.62722
 Alpha  occ. eigenvalues --   -0.62284  -0.61410  -0.59945  -0.59722  -0.59626
 Alpha  occ. eigenvalues --   -0.58734  -0.58248  -0.57976  -0.57814  -0.56915
 Alpha  occ. eigenvalues --   -0.56736  -0.56086  -0.55512  -0.54895  -0.54565
 Alpha  occ. eigenvalues --   -0.53535  -0.53272  -0.52962  -0.52539  -0.52122
 Alpha  occ. eigenvalues --   -0.51758  -0.51522  -0.50818  -0.50073  -0.49227
 Alpha  occ. eigenvalues --   -0.48995  -0.48592  -0.48263  -0.47247  -0.46913
 Alpha  occ. eigenvalues --   -0.45840  -0.45425  -0.45179  -0.44972  -0.44606
 Alpha  occ. eigenvalues --   -0.43432  -0.43021  -0.42112  -0.39850  -0.39185
 Alpha  occ. eigenvalues --   -0.37802  -0.36348  -0.35952  -0.35708  -0.32734
 Alpha virt. eigenvalues --   -0.19390  -0.11977  -0.11389  -0.11175  -0.09933
 Alpha virt. eigenvalues --   -0.09363  -0.07666  -0.05339  -0.04166  -0.03582
 Alpha virt. eigenvalues --   -0.02442  -0.01312  -0.01050  -0.00924  -0.00291

 Mulliken charges:
               1
     1  N   -0.706971
     2  H    0.350438
     3  H    0.324794
     4  C   -0.073849
     5  H    0.186414
     6  C    0.640946
     7  C   -0.449518
     8  H    0.162905
     9  H    0.174916
    10  O   -0.572148
    11  C    0.161688
    12  C   -0.197986
    13  H    0.152713
    14  C   -0.194002
    15  H    0.129817
    16  C   -0.127227
    17  H    0.164459
    18  C   -0.125006
    19  H    0.163039
    20  C   -0.121335
    21  H    0.166738
    22  N   -0.394528
    23  C   -0.110194
    24  H    0.198976
    25  C    0.640487
    26  C   -0.292054
    27  H    0.207650
    28  H    0.176262
    29  O   -0.496685
    30  C   -0.317126
    31  H    0.216568
    32  H    0.189269
    33  C   -0.153946
    34  H    0.233421
    35  H    0.194820
    36  N   -0.601023
    37  H    0.357148
    38  C   -0.066073
    39  H    0.224743
    40  C    0.596789
    41  C   -0.266564
    42  H    0.191251
    43  H    0.123486
    44  O   -0.430435
    45  C   -0.263515
    46  H    0.172356
    47  H    0.095653
    48  C   -0.281260
    49  H    0.157776
    50  H    0.115961
    51  C   -0.147616
    52  H    0.158074
    53  H    0.167037
    54  N   -0.734571
    55  H    0.307543
    56  H    0.304258
    57  O   -0.588151
    58  H    0.471488
    59  H    0.431900
 Sum of Mulliken charges =   1.00000

 Dipole moment (field-independent basis, Debye):
    X=             -9.7580    Y=            -11.7213    Z=              2.3749  Tot=             15.4353
 Quadrupole moment (field-independent basis, Debye-Ang):
   XX=           -130.4852   YY=           -109.9935   ZZ=           -141.7584
   XY=             18.5046   XZ=            -10.9131   YZ=            -24.4392

 Normal termination of Gaussian 16 at Thu Jun  2 03:08:37 2022.
