 Gaussian 16, Revision C.01,
 Gaussian 16:  ES64L-G16RevC.01  3-Jul-2019

 ----------------------------------------------------------------------
 # B3LYP/6-31G* empiricaldispersion=gd3 guess=read geom=check nosymm in
 tegral(ultrafinegrid)
 ----------------------------------------------------------------------

 ------------------------------------------------------
 Candidate Structure: Conf:448 Charge calc in gas phase
 ------------------------------------------------------
 Structure from the checkpoint file:  "conf-448.chk"
 Charge =  1 Multiplicity = 1

                          Input orientation:
 ---------------------------------------------------------------------
 Center     Atomic      Atomic             Coordinates (Angstroms)
 Number     Number       Type             X           Y           Z
 ---------------------------------------------------------------------
      1          7           0       -3.820881    3.289015    1.110695
      2          1           0       -3.147815    2.892737    1.765657
      3          1           0       -4.733429    2.920675    1.370401
      4          6           0       -3.466703    2.892920   -0.239980
      5          1           0       -4.321920    3.095755   -0.891294
      6          6           0       -3.062946    1.419411   -0.347322
      7          6           0       -2.253550    3.737377   -0.746083
      8          1           0       -1.535750    3.788988    0.082685
      9          1           0       -1.748167    3.208355   -1.564947
     10          8           0       -2.535775    0.837922    0.620342
     11          6           0       -2.657960    5.115183   -1.215625
     12          6           0       -2.667485    5.414393   -2.583956
     13          1           0       -2.339163    4.663999   -3.302266
     14          6           0       -3.063519    6.099898   -0.304009
     15          1           0       -3.073805    5.869435    0.756030
     16          6           0       -3.074158    6.669769   -3.039281
     17          1           0       -3.069541    6.887800   -4.103664
     18          6           0       -3.471022    7.354349   -0.757749
     19          1           0       -3.781773    8.109812   -0.041476
     20          6           0       -3.478161    7.643223   -2.124713
     21          1           0       -3.792381    8.622603   -2.473992
     22          7           0       -3.206904    0.789858   -1.545050
     23          6           0       -2.952636   -0.659793   -1.676745
     24          1           0       -3.322012   -1.175518   -0.782266
     25          6           0       -1.447113   -0.920330   -1.735373
     26          6           0       -3.714978   -1.047233   -2.953554
     27          1           0       -3.289281   -1.917231   -3.455353
     28          1           0       -4.745757   -1.286226   -2.673761
     29          8           0       -0.964384   -1.438572   -2.831237
     30          6           0       -3.668010    0.237030   -3.796944
     31          1           0       -2.691296    0.334688   -4.283930
     32          1           0       -4.436291    0.264172   -4.572628
     33          6           0       -3.859201    1.345701   -2.755935
     34          1           0       -4.922184    1.523980   -2.555217
     35          1           0       -3.398704    2.293938   -3.042392
     36          7           0       -0.720366   -0.595249   -0.699489
     37          1           0       -1.280429   -0.163486    0.072450
     38          6           0        0.757611   -0.491409   -0.621616
     39          1           0        1.105592   -0.029548   -1.554655
     40          6           0        1.361882   -1.901342   -0.542465
     41          6           0        1.148543    0.371622    0.579560
     42          1           0        0.912403   -0.181880    1.496041
     43          1           0        0.523558    1.273835    0.568938
     44          8           0        1.833865   -2.432839    0.419061
     45          6           0        2.633427    0.751598    0.553905
     46          1           0        3.259502   -0.145344    0.522073
     47          1           0        2.847871    1.324937   -0.360146
     48          6           0        3.043971    1.578351    1.777718
     49          1           0        2.793858    1.020458    2.692253
     50          1           0        2.469019    2.513662    1.816913
     51          6           0        4.541996    1.909042    1.784441
     52          1           0        4.788404    2.475987    0.877259
     53          1           0        4.753634    2.574683    2.638762
     54          7           0        5.339842    0.676906    1.769772
     55          1           0        5.279942    0.218490    2.678550
     56          1           0        6.323704    0.899583    1.632079
     57          8           0        1.266806   -2.505344   -1.775130
     58          1           0       -0.042299   -1.788656   -2.716358
     59          1           0        1.625122   -3.413918   -1.717897
 ---------------------------------------------------------------------

 SCF Done:  E(RB3LYP) =  -1300.57279304     A.U. after    2 cycles

 Alpha  occ. eigenvalues --  -19.37886 -19.36031 -19.29574 -19.26049 -14.55241
 Alpha  occ. eigenvalues --  -14.51028 -14.41562 -14.38572 -10.49510 -10.47461
 Alpha  occ. eigenvalues --  -10.41921 -10.40011 -10.39567 -10.35452 -10.33583
 Alpha  occ. eigenvalues --  -10.32820 -10.31942 -10.31421 -10.29386 -10.28412
 Alpha  occ. eigenvalues --  -10.28083 -10.27325 -10.26871 -10.26490 -10.26023
 Alpha  occ. eigenvalues --  -10.25758 -10.25706 -10.25621  -1.28245  -1.25740
 Alpha  occ. eigenvalues --   -1.17831  -1.17513  -1.12593  -1.08611  -0.99478
 Alpha  occ. eigenvalues --   -0.95992  -0.95301  -0.93449  -0.92693  -0.90086
 Alpha  occ. eigenvalues --   -0.86985  -0.86485  -0.82433  -0.81483  -0.81364
 Alpha  occ. eigenvalues --   -0.81349  -0.77955  -0.77230  -0.74299  -0.73998
 Alpha  occ. eigenvalues --   -0.73197  -0.70956  -0.69768  -0.67677  -0.67630
 Alpha  occ. eigenvalues --   -0.66829  -0.66270  -0.65817  -0.64597  -0.63977
 Alpha  occ. eigenvalues --   -0.62249  -0.61300  -0.59511  -0.59351  -0.58859
 Alpha  occ. eigenvalues --   -0.58321  -0.57814  -0.57394  -0.56939  -0.56239
 Alpha  occ. eigenvalues --   -0.55284  -0.54737  -0.54456  -0.54103  -0.53389
 Alpha  occ. eigenvalues --   -0.53224  -0.52722  -0.52333  -0.52043  -0.51071
 Alpha  occ. eigenvalues --   -0.50041  -0.49744  -0.48956  -0.48487  -0.48197
 Alpha  occ. eigenvalues --   -0.47717  -0.47619  -0.47450  -0.47282  -0.46620
 Alpha  occ. eigenvalues --   -0.46407  -0.45564  -0.43476  -0.42704  -0.42471
 Alpha  occ. eigenvalues --   -0.42197  -0.41776  -0.41621  -0.41085  -0.39785
 Alpha  occ. eigenvalues --   -0.38984  -0.34244  -0.31926  -0.31491  -0.30883
 Alpha virt. eigenvalues --   -0.18986  -0.14902  -0.12339  -0.07883  -0.07352
 Alpha virt. eigenvalues --   -0.07155  -0.04925  -0.02999  -0.02309  -0.01558
 Alpha virt. eigenvalues --   -0.00670  -0.00524   0.00352   0.00664   0.01297

 Mulliken charges:
               1
     1  N   -0.686247
     2  H    0.320919
     3  H    0.317745
     4  C   -0.069026
     5  H    0.171714
     6  C    0.592958
     7  C   -0.356304
     8  H    0.166581
     9  H    0.131283
    10  O   -0.567949
    11  C    0.161055
    12  C   -0.194021
    13  H    0.108456
    14  C   -0.161474
    15  H    0.154710
    16  C   -0.127190
    17  H    0.141270
    18  C   -0.130673
    19  H    0.147172
    20  C   -0.126017
    21  H    0.147553
    22  N   -0.444672
    23  C   -0.079881
    24  H    0.224323
    25  C    0.630050
    26  C   -0.304519
    27  H    0.195177
    28  H    0.188589
    29  O   -0.557405
    30  C   -0.314402
    31  H    0.174011
    32  H    0.194849
    33  C   -0.142374
    34  H    0.189824
    35  H    0.195813
    36  N   -0.584119
    37  H    0.445344
    38  C   -0.077882
    39  H    0.207621
    40  C    0.635708
    41  C   -0.304155
    42  H    0.187198
    43  H    0.164012
    44  O   -0.383127
    45  C   -0.273820
    46  H    0.193298
    47  H    0.135613
    48  C   -0.262558
    49  H    0.141979
    50  H    0.138612
    51  C   -0.143386
    52  H    0.144753
    53  H    0.136280
    54  N   -0.721547
    55  H    0.302421
    56  H    0.311936
    57  O   -0.620992
    58  H    0.481497
    59  H    0.453416
 Sum of Mulliken charges =   1.00000

 Dipole moment (field-independent basis, Debye):
    X=             -5.2952    Y=             -0.1196    Z=             -7.5441  Tot=              9.2177
 Quadrupole moment (field-independent basis, Debye-Ang):
   XX=           -109.9245   YY=           -132.9461   ZZ=           -133.7515
   XY=             -6.7377   XZ=             24.6563   YZ=              7.4121

 Normal termination of Gaussian 16 at Thu Jun  2 03:00:38 2022.
