 Gaussian 16, Revision C.01,
 Gaussian 16:  ES64L-G16RevC.01  3-Jul-2019

 ----------------------------------------------------------------------
 # B3LYP/6-31G* empiricaldispersion=gd3 guess=read geom=check nosymm in
 tegral(ultrafinegrid)
 ----------------------------------------------------------------------

 ------------------------------------------------------
 Candidate Structure: Conf:304 Charge calc in gas phase
 ------------------------------------------------------
 Structure from the checkpoint file:  "conf-304.chk"
 Charge =  1 Multiplicity = 1

                          Input orientation:
 ---------------------------------------------------------------------
 Center     Atomic      Atomic             Coordinates (Angstroms)
 Number     Number       Type             X           Y           Z
 ---------------------------------------------------------------------
      1          7           0       -3.604164   -0.537141    4.235074
      2          1           0       -3.766661   -1.361022    3.662879
      3          1           0       -4.335180   -0.482847    4.939339
      4          6           0       -3.594871    0.678366    3.431487
      5          1           0       -4.602634    1.070203    3.199109
      6          6           0       -2.912129    0.367696    2.099902
      7          6           0       -2.827467    1.790956    4.219924
      8          1           0       -3.165015    2.782070    3.905711
      9          1           0       -3.140720    1.684388    5.264038
     10          8           0       -2.399570   -0.743345    1.892721
     11          6           0       -1.319956    1.709440    4.119655
     12          6           0       -0.604121    2.664641    3.384474
     13          1           0       -1.137038    3.475618    2.892548
     14          6           0       -0.609319    0.683880    4.762227
     15          1           0       -1.160902   -0.071402    5.312135
     16          6           0        0.791418    2.623473    3.317069
     17          1           0        1.330095    3.397003    2.775341
     18          6           0        0.783951    0.640836    4.698872
     19          1           0        1.321924   -0.144551    5.222727
     20          6           0        1.490436    1.615468    3.986222
     21          1           0        2.577051    1.600342    3.969461
     22          7           0       -2.843562    1.344088    1.149726
     23          6           0       -2.242385    1.024173   -0.160154
     24          1           0       -2.555223    0.021480   -0.470746
     25          6           0       -0.720691    0.982378   -0.018191
     26          6           0       -2.768305    2.122507   -1.097582
     27          1           0       -2.074418    2.356932   -1.906471
     28          1           0       -3.702427    1.768224   -1.544547
     29          8           0       -0.045445    1.991030   -0.494329
     30          6           0       -3.034789    3.305047   -0.155096
     31          1           0       -2.098831    3.827677    0.070040
     32          1           0       -3.739326    4.029565   -0.569399
     33          6           0       -3.576187    2.630639    1.109147
     34          1           0       -4.653838    2.438851    1.036464
     35          1           0       -3.387719    3.218231    2.005480
     36          7           0       -0.187031   -0.056573    0.566790
     37          1           0       -0.902302   -0.685600    0.981742
     38          6           0        1.213768   -0.268244    1.010743
     39          1           0        1.532327    0.635006    1.544636
     40          6           0        2.113321   -0.461150   -0.217462
     41          6           0        1.254747   -1.483130    1.937629
     42          1           0        0.975426   -2.365563    1.352176
     43          1           0        0.494622   -1.339078    2.713886
     44          8           0        2.594690   -1.486607   -0.608970
     45          6           0        2.629780   -1.679632    2.590393
     46          1           0        3.405293   -1.721205    1.817544
     47          1           0        2.853799   -0.809317    3.218122
     48          6           0        2.710625   -2.961500    3.432235
     49          1           0        1.973494   -2.920244    4.247443
     50          1           0        3.699726   -2.992884    3.908193
     51          6           0        2.501432   -4.261783    2.622360
     52          1           0        2.668207   -5.114858    3.290480
     53          1           0        1.454506   -4.339381    2.301586
     54          7           0        3.338204   -4.444653    1.438549
     55          1           0        4.325831   -4.390190    1.681235
     56          1           0        3.160855   -3.723903    0.741451
     57          8           0        2.305671    0.744835   -0.846056
     58          1           0        0.929318    1.817045   -0.536635
     59          1           0        2.856295    0.607568   -1.643265
 ---------------------------------------------------------------------

 SCF Done:  E(RB3LYP) =  -1300.57974364     A.U. after    2 cycles

 Alpha  occ. eigenvalues --  -19.37681 -19.36222 -19.29879 -19.26024 -14.55156
 Alpha  occ. eigenvalues --  -14.51002 -14.41842 -14.38028 -10.49306 -10.47689
 Alpha  occ. eigenvalues --  -10.42481 -10.39410 -10.39308 -10.35547 -10.34617
 Alpha  occ. eigenvalues --  -10.32798 -10.31928 -10.30976 -10.30188 -10.30111
 Alpha  occ. eigenvalues --  -10.29639 -10.29580 -10.29362 -10.29108 -10.28625
 Alpha  occ. eigenvalues --  -10.28548 -10.27989 -10.26562  -1.28090  -1.25985
 Alpha  occ. eigenvalues --   -1.18032  -1.17690  -1.12499  -1.08592  -0.99840
 Alpha  occ. eigenvalues --   -0.95985  -0.95649  -0.94884  -0.93390  -0.90099
 Alpha  occ. eigenvalues --   -0.88286  -0.86810  -0.84632  -0.82972  -0.82359
 Alpha  occ. eigenvalues --   -0.81056  -0.78932  -0.77159  -0.74877  -0.74219
 Alpha  occ. eigenvalues --   -0.73292  -0.71953  -0.70836  -0.70182  -0.68690
 Alpha  occ. eigenvalues --   -0.67155  -0.66643  -0.65612  -0.64663  -0.64109
 Alpha  occ. eigenvalues --   -0.62604  -0.61367  -0.60606  -0.59798  -0.59420
 Alpha  occ. eigenvalues --   -0.59197  -0.58139  -0.57178  -0.57072  -0.56814
 Alpha  occ. eigenvalues --   -0.56451  -0.55960  -0.55418  -0.54966  -0.54297
 Alpha  occ. eigenvalues --   -0.53878  -0.53032  -0.52924  -0.52036  -0.51446
 Alpha  occ. eigenvalues --   -0.51182  -0.50294  -0.49200  -0.49088  -0.48877
 Alpha  occ. eigenvalues --   -0.48657  -0.48469  -0.48045  -0.47745  -0.47317
 Alpha  occ. eigenvalues --   -0.46993  -0.46217  -0.45851  -0.44432  -0.43969
 Alpha  occ. eigenvalues --   -0.43582  -0.42687  -0.42246  -0.41091  -0.39537
 Alpha  occ. eigenvalues --   -0.38981  -0.35433  -0.35013  -0.33809  -0.30005
 Alpha virt. eigenvalues --   -0.18621  -0.15190  -0.12349  -0.10943  -0.10721
 Alpha virt. eigenvalues --   -0.07960  -0.05132  -0.02939  -0.02634  -0.01872
 Alpha virt. eigenvalues --   -0.01318  -0.00481   0.00208   0.00751   0.01055

 Mulliken charges:
               1
     1  N   -0.719941
     2  H    0.330247
     3  H    0.319083
     4  C   -0.058076
     5  H    0.154687
     6  C    0.628429
     7  C   -0.355048
     8  H    0.153715
     9  H    0.187421
    10  O   -0.555073
    11  C    0.148369
    12  C   -0.197958
    13  H    0.128993
    14  C   -0.165749
    15  H    0.175908
    16  C   -0.154380
    17  H    0.143901
    18  C   -0.138529
    19  H    0.158221
    20  C   -0.148032
    21  H    0.151335
    22  N   -0.447361
    23  C   -0.074648
    24  H    0.217174
    25  C    0.640801
    26  C   -0.307261
    27  H    0.191241
    28  H    0.188223
    29  O   -0.557702
    30  C   -0.311921
    31  H    0.178293
    32  H    0.192383
    33  C   -0.139053
    34  H    0.185272
    35  H    0.186430
    36  N   -0.583599
    37  H    0.441116
    38  C   -0.068815
    39  H    0.217056
    40  C    0.628114
    41  C   -0.316160
    42  H    0.180457
    43  H    0.187358
    44  O   -0.393107
    45  C   -0.289328
    46  H    0.147165
    47  H    0.144740
    48  C   -0.271527
    49  H    0.136493
    50  H    0.146942
    51  C   -0.150791
    52  H    0.162309
    53  H    0.141527
    54  N   -0.711311
    55  H    0.300301
    56  H    0.307042
    57  O   -0.617122
    58  H    0.479600
    59  H    0.452148
 Sum of Mulliken charges =   1.00000

 Dipole moment (field-independent basis, Debye):
    X=             -4.4600    Y=              7.1388    Z=              4.3225  Tot=              9.4624
 Quadrupole moment (field-independent basis, Debye-Ang):
   XX=           -109.9327   YY=           -158.7920   ZZ=           -134.6247
   XY=            -10.4485   XZ=            -11.6353   YZ=             -4.7854

 Normal termination of Gaussian 16 at Thu Jun  2 03:00:50 2022.
