 Gaussian 16, Revision C.01,
 Gaussian 16:  ES64L-G16RevC.01  3-Jul-2019

 ----------------------------------------------------------------------
 # B3LYP/6-31G* empiricaldispersion=gd3 guess=read geom=check nosymm in
 tegral(ultrafinegrid)
 ----------------------------------------------------------------------

 ------------------------------------------------------
 Candidate Structure: Conf:684 Charge calc in gas phase
 ------------------------------------------------------
 Structure from the checkpoint file:  "conf-684.chk"
 Charge =  1 Multiplicity = 1

                          Input orientation:
 ---------------------------------------------------------------------
 Center     Atomic      Atomic             Coordinates (Angstroms)
 Number     Number       Type             X           Y           Z
 ---------------------------------------------------------------------
      1          7           0       -2.156236   -0.180369   -5.014671
      2          1           0       -1.227904    0.227415   -5.088505
      3          1           0       -2.838617    0.526919   -5.273375
      4          6           0       -2.400204   -0.731701   -3.705261
      5          1           0       -3.440531   -1.060340   -3.667587
      6          6           0       -2.130529    0.228555   -2.546773
      7          6           0       -1.490625   -1.984923   -3.462847
      8          1           0       -0.469930   -1.704678   -3.752256
      9          1           0       -1.462463   -2.220131   -2.390251
     10          8           0       -1.196387    1.100319   -2.817060
     11          6           0       -1.977914   -3.190705   -4.229237
     12          6           0       -1.694223   -3.341125   -5.592360
     13          1           0       -1.100054   -2.589683   -6.102173
     14          6           0       -2.758821   -4.158356   -3.584461
     15          1           0       -2.975892   -4.058553   -2.521628
     16          6           0       -2.182202   -4.442998   -6.294596
     17          1           0       -1.953018   -4.552388   -7.350568
     18          6           0       -3.247744   -5.260885   -4.285567
     19          1           0       -3.844502   -6.008930   -3.771638
     20          6           0       -2.959682   -5.403881   -5.644169
     21          1           0       -3.335160   -6.262887   -6.192420
     22          7           0       -2.738004    0.130551   -1.383573
     23          6           0       -2.565822    1.066084   -0.221824
     24          1           0       -2.970824    2.039164   -0.515639
     25          6           0       -1.127445    1.323427    0.231130
     26          6           0       -3.419780    0.424352    0.887642
     27          1           0       -2.815988   -0.300543    1.446370
     28          1           0       -3.773459    1.180578    1.590331
     29          8           0       -0.850991    2.382535    0.768252
     30          6           0       -4.538056   -0.284328    0.117790
     31          1           0       -5.036377   -1.059899    0.703776
     32          1           0       -5.296450    0.434841   -0.209534
     33          6           0       -3.815275   -0.872323   -1.095197
     34          1           0       -4.463097   -0.998583   -1.962401
     35          1           0       -3.343008   -1.834467   -0.870524
     36          7           0       -0.207959    0.355713   -0.039115
     37          1           0       -0.488854   -0.551475   -0.386213
     38          6           0        1.211598    0.590638    0.213139
     39          1           0        1.382851    0.740781    1.282076
     40          6           0        1.675778    1.877994   -0.460915
     41          6           0        2.025201   -0.618471   -0.299605
     42          1           0        1.777728   -0.773447   -1.359658
     43          1           0        1.666386   -1.499276    0.251329
     44          8           0        2.601934    2.548732   -0.099153
     45          6           0        3.545080   -0.500178   -0.130334
     46          1           0        4.000162   -1.425987   -0.496628
     47          1           0        3.928039    0.310709   -0.762382
     48          6           0        4.007094   -0.272751    1.314623
     49          1           0        3.493220   -0.980021    1.985011
     50          1           0        3.737472    0.737197    1.646544
     51          6           0        5.523202   -0.453643    1.469021
     52          1           0        6.033892    0.218914    0.768203
     53          1           0        5.819803   -0.135087    2.482818
     54          7           0        5.914365   -1.829299    1.135932
     55          1           0        5.651706   -2.454545    1.897031
     56          1           0        6.926884   -1.895790    1.054587
     57          8           0        0.969536    2.162815   -1.611738
     58          1           0       -0.660830    1.516822   -2.091881
     59          1           0        1.345132    2.988536   -1.974369
 ---------------------------------------------------------------------

 SCF Done:  E(RB3LYP) =  -1300.56246941     A.U. after    2 cycles

 Alpha  occ. eigenvalues --  -19.36832 -19.32961 -19.26075 -19.25564 -14.56993
 Alpha  occ. eigenvalues --  -14.50577 -14.45034 -14.37880 -10.48737 -10.44211
 Alpha  occ. eigenvalues --  -10.43130 -10.39457 -10.38811 -10.37958 -10.36278
 Alpha  occ. eigenvalues --  -10.34009 -10.33727 -10.32682 -10.30730 -10.29472
 Alpha  occ. eigenvalues --  -10.28438 -10.27788 -10.27760 -10.27557 -10.27512
 Alpha  occ. eigenvalues --  -10.27456 -10.26696 -10.25765  -1.26947  -1.22810
 Alpha  occ. eigenvalues --   -1.17974  -1.14227  -1.13928  -1.06828  -1.03460
 Alpha  occ. eigenvalues --   -0.97183  -0.94810  -0.94679  -0.92697  -0.90391
 Alpha  occ. eigenvalues --   -0.89361  -0.85944  -0.84716  -0.83272  -0.81587
 Alpha  occ. eigenvalues --   -0.79423  -0.79307  -0.76552  -0.76359  -0.74423
 Alpha  occ. eigenvalues --   -0.72881  -0.72309  -0.69774  -0.69556  -0.68502
 Alpha  occ. eigenvalues --   -0.67278  -0.65992  -0.65356  -0.63939  -0.62729
 Alpha  occ. eigenvalues --   -0.62168  -0.60895  -0.60414  -0.59816  -0.59579
 Alpha  occ. eigenvalues --   -0.58634  -0.58290  -0.57787  -0.57184  -0.56416
 Alpha  occ. eigenvalues --   -0.55531  -0.55083  -0.54808  -0.54439  -0.54192
 Alpha  occ. eigenvalues --   -0.53909  -0.53238  -0.52241  -0.51600  -0.51404
 Alpha  occ. eigenvalues --   -0.50927  -0.50894  -0.50291  -0.49728  -0.49558
 Alpha  occ. eigenvalues --   -0.49453  -0.48711  -0.48508  -0.46816  -0.45458
 Alpha  occ. eigenvalues --   -0.45065  -0.44487  -0.44186  -0.43420  -0.43013
 Alpha  occ. eigenvalues --   -0.42003  -0.41429  -0.40833  -0.40782  -0.39273
 Alpha  occ. eigenvalues --   -0.38424  -0.37573  -0.33761  -0.33526  -0.30167
 Alpha virt. eigenvalues --   -0.18693  -0.12842  -0.10857  -0.09932  -0.08949
 Alpha virt. eigenvalues --   -0.08376  -0.06101  -0.04940  -0.03992  -0.03390
 Alpha virt. eigenvalues --   -0.02455  -0.02095  -0.01774  -0.00403   0.00117

 Mulliken charges:
               1
     1  N   -0.681765
     2  H    0.329638
     3  H    0.329754
     4  C   -0.060853
     5  H    0.189717
     6  C    0.584139
     7  C   -0.380440
     8  H    0.178192
     9  H    0.140391
    10  O   -0.584616
    11  C    0.173429
    12  C   -0.149220
    13  H    0.141942
    14  C   -0.188826
    15  H    0.109084
    16  C   -0.130850
    17  H    0.154766
    18  C   -0.126189
    19  H    0.149574
    20  C   -0.123233
    21  H    0.156079
    22  N   -0.447021
    23  C   -0.051397
    24  H    0.224044
    25  C    0.579750
    26  C   -0.311597
    27  H    0.179803
    28  H    0.218301
    29  O   -0.476745
    30  C   -0.309253
    31  H    0.202172
    32  H    0.189788
    33  C   -0.154781
    34  H    0.211168
    35  H    0.200177
    36  N   -0.653383
    37  H    0.340742
    38  C    0.009073
    39  H    0.219357
    40  C    0.635190
    41  C   -0.329949
    42  H    0.143423
    43  H    0.161138
    44  O   -0.419843
    45  C   -0.263771
    46  H    0.188417
    47  H    0.151742
    48  C   -0.267959
    49  H    0.122937
    50  H    0.155906
    51  C   -0.146786
    52  H    0.149971
    53  H    0.133047
    54  N   -0.719824
    55  H    0.298412
    56  H    0.310992
    57  O   -0.628181
    58  H    0.503318
    59  H    0.440909
 Sum of Mulliken charges =   1.00000

 Dipole moment (field-independent basis, Debye):
    X=             -8.7826    Y=             -3.0062    Z=             -7.6685  Tot=             12.0407
 Quadrupole moment (field-independent basis, Debye-Ang):
   XX=           -102.8197   YY=           -148.7379   ZZ=           -124.9220
   XY=              4.5260   XZ=             21.9832   YZ=             -3.0084

 Normal termination of Gaussian 16 at Thu Jun  2 03:00:18 2022.
