 Gaussian 16, Revision C.01,
 Gaussian 16:  ES64L-G16RevC.01  3-Jul-2019

 ----------------------------------------------------------------------
 # B3LYP/6-31G* empiricaldispersion=gd3 guess=read geom=check nosymm in
 tegral(ultrafinegrid)
 ----------------------------------------------------------------------

 ------------------------------------------------------
 Candidate Structure: Conf:503 Charge calc in gas phase
 ------------------------------------------------------
 Structure from the checkpoint file:  "conf-503.chk"
 Charge =  1 Multiplicity = 1

                          Input orientation:
 ---------------------------------------------------------------------
 Center     Atomic      Atomic             Coordinates (Angstroms)
 Number     Number       Type             X           Y           Z
 ---------------------------------------------------------------------
      1          7           0       -1.337383   -1.856600   -4.084574
      2          1           0       -2.007921   -2.614344   -4.215444
      3          1           0       -0.468665   -2.311494   -3.807790
      4          6           0       -1.820959   -1.002217   -3.013513
      5          1           0       -1.063815   -0.222845   -2.839060
      6          6           0       -2.067683   -1.784097   -1.706603
      7          6           0       -3.130206   -0.291350   -3.475469
      8          1           0       -3.420859    0.474665   -2.745313
      9          1           0       -2.875947    0.229679   -4.403735
     10          8           0       -2.303709   -2.977341   -1.705786
     11          6           0       -4.289729   -1.236880   -3.694415
     12          6           0       -4.474859   -1.865756   -4.932885
     13          1           0       -3.795773   -1.641931   -5.751658
     14          6           0       -5.180989   -1.524154   -2.652544
     15          1           0       -5.056802   -1.031831   -1.688606
     16          6           0       -5.522124   -2.769656   -5.119758
     17          1           0       -5.655254   -3.247636   -6.086073
     18          6           0       -6.229570   -2.424229   -2.836374
     19          1           0       -6.915148   -2.632695   -2.019821
     20          6           0       -6.400485   -3.051727   -4.072232
     21          1           0       -7.218221   -3.751173   -4.219343
     22          7           0       -2.003721   -1.101702   -0.484445
     23          6           0       -1.919805    0.341516   -0.311866
     24          1           0       -2.368685    0.909200   -1.130432
     25          6           0       -0.477202    0.800564   -0.224157
     26          6           0       -2.664967    0.612045    1.026425
     27          1           0       -2.310272    1.511094    1.536363
     28          1           0       -3.723366    0.755463    0.788234
     29          8           0       -0.289241    2.086924   -0.179047
     30          6           0       -2.452808   -0.693431    1.807630
     31          1           0       -1.463105   -0.700956    2.281280
     32          1           0       -3.195368   -0.831407    2.596749
     33          6           0       -2.544664   -1.774425    0.726712
     34          1           0       -3.576887   -2.084248    0.529796
     35          1           0       -1.969214   -2.675501    0.946473
     36          7           0        0.481365   -0.088621   -0.174700
     37          1           0        0.132877   -1.047262   -0.263429
     38          6           0        1.925995    0.106513    0.103893
     39          1           0        2.003930    0.801722    0.948905
     40          6           0        2.585973    0.764733   -1.119196
     41          6           0        2.564142   -1.238811    0.453208
     42          1           0        2.552453   -1.874852   -0.440334
     43          1           0        1.941699   -1.720799    1.218192
     44          8           0        3.307049    0.237199   -1.914528
     45          6           0        3.999786   -1.099093    0.978443
     46          1           0        4.626830   -0.630575    0.210611
     47          1           0        4.004272   -0.430015    1.851109
     48          6           0        4.592812   -2.456855    1.372441
     49          1           0        4.584663   -3.123758    0.497905
     50          1           0        3.972551   -2.937478    2.139240
     51          6           0        6.023081   -2.346163    1.910076
     52          1           0        6.656085   -1.845057    1.153186
     53          1           0        6.022352   -1.695948    2.794636
     54          7           0        6.500257   -3.665063    2.326280
     55          1           0        7.390878   -3.579832    2.811857
     56          1           0        6.678439   -4.246027    1.508118
     57          8           0        2.207772    2.082305   -1.185454
     58          1           0        0.648688    2.350972   -0.362879
     59          1           0        2.604106    2.495448   -1.979458
 ---------------------------------------------------------------------

 SCF Done:  E(RB3LYP) =  -1300.55450459     A.U. after    1 cycles

 Alpha  occ. eigenvalues --  -19.39170 -19.37492 -19.31129 -19.23545 -14.58122
 Alpha  occ. eigenvalues --  -14.49841 -14.41035 -14.38412 -10.50915 -10.49066
 Alpha  occ. eigenvalues --  -10.41948 -10.40138 -10.40065 -10.34300 -10.33900
 Alpha  occ. eigenvalues --  -10.33732 -10.33445 -10.32156 -10.30173 -10.29340
 Alpha  occ. eigenvalues --  -10.28859 -10.27667 -10.27497 -10.26826 -10.26388
 Alpha  occ. eigenvalues --  -10.26304 -10.26162 -10.26058  -1.29747  -1.27285
 Alpha  occ. eigenvalues --   -1.19078  -1.16192  -1.15027  -1.07912  -0.99142
 Alpha  occ. eigenvalues --   -0.97319  -0.95442  -0.93234  -0.93027  -0.90950
 Alpha  occ. eigenvalues --   -0.88476  -0.86478  -0.83722  -0.82580  -0.81839
 Alpha  occ. eigenvalues --   -0.81078  -0.78822  -0.77800  -0.76412  -0.74468
 Alpha  occ. eigenvalues --   -0.72288  -0.71850  -0.70275  -0.69301  -0.68480
 Alpha  occ. eigenvalues --   -0.68077  -0.67675  -0.66052  -0.65393  -0.64201
 Alpha  occ. eigenvalues --   -0.62862  -0.61428  -0.60178  -0.59777  -0.59410
 Alpha  occ. eigenvalues --   -0.58477  -0.58340  -0.58108  -0.57838  -0.56541
 Alpha  occ. eigenvalues --   -0.56047  -0.55648  -0.54612  -0.54151  -0.53933
 Alpha  occ. eigenvalues --   -0.53465  -0.53225  -0.52256  -0.51440  -0.50993
 Alpha  occ. eigenvalues --   -0.50633  -0.50056  -0.49552  -0.49371  -0.49188
 Alpha  occ. eigenvalues --   -0.49084  -0.48577  -0.47867  -0.47434  -0.46810
 Alpha  occ. eigenvalues --   -0.46445  -0.46004  -0.44830  -0.43775  -0.43340
 Alpha  occ. eigenvalues --   -0.43111  -0.42313  -0.41527  -0.41490  -0.38361
 Alpha  occ. eigenvalues --   -0.37021  -0.34065  -0.32370  -0.31809  -0.30708
 Alpha virt. eigenvalues --   -0.20149  -0.16532  -0.10610  -0.09359  -0.08100
 Alpha virt. eigenvalues --   -0.07565  -0.07172  -0.04946  -0.04715  -0.02467
 Alpha virt. eigenvalues --   -0.01928  -0.01556  -0.00604   0.00095   0.00425

 Mulliken charges:
               1
     1  N   -0.687527
     2  H    0.335510
     3  H    0.303035
     4  C   -0.074062
     5  H    0.105362
     6  C    0.573908
     7  C   -0.365599
     8  H    0.142703
     9  H    0.188774
    10  O   -0.463960
    11  C    0.162982
    12  C   -0.192113
    13  H    0.150659
    14  C   -0.171501
    15  H    0.098401
    16  C   -0.124934
    17  H    0.150516
    18  C   -0.124263
    19  H    0.141493
    20  C   -0.124857
    21  H    0.150179
    22  N   -0.525928
    23  C   -0.035847
    24  H    0.217492
    25  C    0.618379
    26  C   -0.307216
    27  H    0.193020
    28  H    0.199715
    29  O   -0.548428
    30  C   -0.314292
    31  H    0.151542
    32  H    0.199950
    33  C   -0.120232
    34  H    0.195624
    35  H    0.190757
    36  N   -0.566261
    37  H    0.405192
    38  C   -0.072737
    39  H    0.216966
    40  C    0.633690
    41  C   -0.306199
    42  H    0.186850
    43  H    0.168053
    44  O   -0.381891
    45  C   -0.287169
    46  H    0.169609
    47  H    0.146801
    48  C   -0.253026
    49  H    0.142212
    50  H    0.158578
    51  C   -0.136914
    52  H    0.122222
    53  H    0.144759
    54  N   -0.715499
    55  H    0.311267
    56  H    0.301429
    57  O   -0.616851
    58  H    0.482297
    59  H    0.457381
 Sum of Mulliken charges =   1.00000

 Dipole moment (field-independent basis, Debye):
    X=              1.5091    Y=              2.4364    Z=             -0.3596  Tot=              2.8884
 Quadrupole moment (field-independent basis, Debye-Ang):
   XX=           -106.4495   YY=           -153.6783   ZZ=           -153.2914
   XY=              5.1029   XZ=              5.2266   YZ=              0.0292

 Normal termination of Gaussian 16 at Thu Jun  2 03:00:21 2022.
