 Gaussian 16, Revision C.01,
 Gaussian 16:  ES64L-G16RevC.01  3-Jul-2019

 ----------------------------------------------------------------------
 # B3LYP/6-31G* empiricaldispersion=gd3 guess=read geom=check nosymm in
 tegral(ultrafinegrid)
 ----------------------------------------------------------------------

 ------------------------------------------------------
 Candidate Structure: Conf:961 Charge calc in gas phase
 ------------------------------------------------------
 Structure from the checkpoint file:  "conf-961.chk"
 Charge =  1 Multiplicity = 1

                          Input orientation:
 ---------------------------------------------------------------------
 Center     Atomic      Atomic             Coordinates (Angstroms)
 Number     Number       Type             X           Y           Z
 ---------------------------------------------------------------------
      1          7           0       -1.363821    2.381720   -0.212208
      2          1           0       -1.175609    3.376240   -0.077635
      3          1           0       -0.621664    2.060055   -0.837388
      4          6           0       -2.661173    2.262839   -0.913228
      5          1           0       -3.397912    2.781341   -0.282183
      6          6           0       -3.093624    0.787920   -0.987382
      7          6           0       -2.686380    2.916299   -2.310841
      8          1           0       -1.991667    2.373000   -2.962238
      9          1           0       -3.682810    2.775713   -2.740523
     10          8           0       -3.488542    0.269096   -2.015816
     11          6           0       -2.324912    4.382189   -2.228686
     12          6           0       -3.291467    5.331671   -1.867552
     13          1           0       -4.320159    5.014338   -1.708393
     14          6           0       -1.008626    4.813935   -2.445136
     15          1           0       -0.251208    4.093324   -2.748124
     16          6           0       -2.953118    6.677867   -1.729004
     17          1           0       -3.717029    7.401998   -1.460307
     18          6           0       -0.666067    6.161322   -2.307981
     19          1           0        0.355320    6.481200   -2.495287
     20          6           0       -1.637896    7.095987   -1.947370
     21          1           0       -1.375788    8.145307   -1.847914
     22          7           0       -3.019904    0.046674    0.187274
     23          6           0       -2.831795    0.616471    1.517593
     24          1           0       -3.281687    1.605056    1.634378
     25          6           0       -1.360227    0.787218    1.818649
     26          6           0       -3.489887   -0.420497    2.472869
     27          1           0       -3.004426   -0.461463    3.451751
     28          1           0       -4.528940   -0.115944    2.630693
     29          8           0       -1.075636    1.616545    2.782941
     30          6           0       -3.423745   -1.735947    1.680699
     31          1           0       -2.435427   -2.199666    1.786098
     32          1           0       -4.165926   -2.462607    2.018862
     33          6           0       -3.660323   -1.290280    0.235223
     34          1           0       -4.726413   -1.195203   -0.001806
     35          1           0       -3.214951   -1.945580   -0.515824
     36          7           0       -0.487679   -0.031723    1.270486
     37          1           0       -0.865966   -0.541073    0.472904
     38          6           0        0.977266   -0.035278    1.444606
     39          1           0        1.195195   -0.143559    2.512550
     40          6           0        1.508310    1.326231    0.960261
     41          6           0        1.598218   -1.178607    0.643283
     42          1           0        1.419705   -0.976656   -0.419537
     43          1           0        1.077720   -2.109955    0.897641
     44          8           0        1.825897    1.603638   -0.166102
     45          6           0        3.103115   -1.317936    0.922612
     46          1           0        3.590010   -0.336404    0.863272
     47          1           0        3.242058   -1.678396    1.949701
     48          6           0        3.823929   -2.251242   -0.060557
     49          1           0        3.378726   -3.255255   -0.026999
     50          1           0        4.863106   -2.344984    0.272712
     51          6           0        3.825835   -1.740545   -1.511687
     52          1           0        4.491276   -2.385382   -2.095212
     53          1           0        2.821437   -1.863735   -1.957128
     54          7           0        4.335466   -0.365803   -1.583495
     55          1           0        3.585124    0.304276   -1.425811
     56          1           0        4.698649   -0.172296   -2.513415
     57          8           0        1.503855    2.219437    1.989656
     58          1           0       -0.117877    1.839565    2.846461
     59          1           0        1.813145    3.088806    1.662369
 ---------------------------------------------------------------------

 SCF Done:  E(RB3LYP) =  -1300.57156359     A.U. after    3 cycles

 Alpha  occ. eigenvalues --  -19.37656 -19.37031 -19.30850 -19.23912 -14.55838
 Alpha  occ. eigenvalues --  -14.49508 -14.46313 -14.39143 -10.49791 -10.48755
 Alpha  occ. eigenvalues --  -10.40804 -10.40727 -10.38975 -10.34844 -10.34056
 Alpha  occ. eigenvalues --  -10.33195 -10.32673 -10.31715 -10.29393 -10.29123
 Alpha  occ. eigenvalues --  -10.28810 -10.28630 -10.27752 -10.27535 -10.27514
 Alpha  occ. eigenvalues --  -10.27370 -10.27203 -10.27045  -1.28334  -1.26912
 Alpha  occ. eigenvalues --   -1.18669  -1.16207  -1.13551  -1.07622  -1.02659
 Alpha  occ. eigenvalues --   -0.96609  -0.95726  -0.94128  -0.92558  -0.90306
 Alpha  occ. eigenvalues --   -0.87603  -0.87344  -0.83143  -0.82903  -0.82393
 Alpha  occ. eigenvalues --   -0.81666  -0.78183  -0.77812  -0.75641  -0.74122
 Alpha  occ. eigenvalues --   -0.73232  -0.72233  -0.69396  -0.69080  -0.68089
 Alpha  occ. eigenvalues --   -0.67890  -0.66888  -0.65983  -0.64834  -0.64588
 Alpha  occ. eigenvalues --   -0.63061  -0.61569  -0.60226  -0.59564  -0.59261
 Alpha  occ. eigenvalues --   -0.58939  -0.57821  -0.57594  -0.57345  -0.57109
 Alpha  occ. eigenvalues --   -0.56527  -0.55489  -0.54705  -0.54647  -0.54071
 Alpha  occ. eigenvalues --   -0.53784  -0.53455  -0.52920  -0.52395  -0.51228
 Alpha  occ. eigenvalues --   -0.50452  -0.50322  -0.49534  -0.49229  -0.48918
 Alpha  occ. eigenvalues --   -0.48527  -0.48363  -0.48067  -0.47743  -0.47445
 Alpha  occ. eigenvalues --   -0.46787  -0.46075  -0.44401  -0.43668  -0.43544
 Alpha  occ. eigenvalues --   -0.43064  -0.42574  -0.42470  -0.42048  -0.39188
 Alpha  occ. eigenvalues --   -0.38095  -0.36896  -0.33595  -0.33014  -0.31460
 Alpha virt. eigenvalues --   -0.18222  -0.15996  -0.11237  -0.09078  -0.08876
 Alpha virt. eigenvalues --   -0.08582  -0.06722  -0.04543  -0.03798  -0.03212
 Alpha virt. eigenvalues --   -0.01864  -0.00841  -0.00184   0.00384   0.00729

 Mulliken charges:
               1
     1  N   -0.788930
     2  H    0.337745
     3  H    0.326443
     4  C   -0.089373
     5  H    0.177806
     6  C    0.608482
     7  C   -0.357003
     8  H    0.164144
     9  H    0.188695
    10  O   -0.467480
    11  C    0.154257
    12  C   -0.184904
    13  H    0.135536
    14  C   -0.206048
    15  H    0.126626
    16  C   -0.126954
    17  H    0.151994
    18  C   -0.129748
    19  H    0.146263
    20  C   -0.129202
    21  H    0.152185
    22  N   -0.508005
    23  C   -0.025047
    24  H    0.205242
    25  C    0.679986
    26  C   -0.311054
    27  H    0.187062
    28  H    0.197073
    29  O   -0.561362
    30  C   -0.311692
    31  H    0.152639
    32  H    0.197058
    33  C   -0.124779
    34  H    0.191037
    35  H    0.191542
    36  N   -0.559682
    37  H    0.388713
    38  C   -0.062254
    39  H    0.210404
    40  C    0.627479
    41  C   -0.308825
    42  H    0.175108
    43  H    0.171224
    44  O   -0.425648
    45  C   -0.296013
    46  H    0.170357
    47  H    0.154391
    48  C   -0.240866
    49  H    0.136742
    50  H    0.167209
    51  C   -0.157604
    52  H    0.163671
    53  H    0.114548
    54  N   -0.730196
    55  H    0.304981
    56  H    0.313523
    57  O   -0.591858
    58  H    0.474592
    59  H    0.449768
 Sum of Mulliken charges =   1.00000

 Dipole moment (field-independent basis, Debye):
    X=             -3.4332    Y=              4.9008    Z=              6.4148  Tot=              8.7723
 Quadrupole moment (field-independent basis, Debye-Ang):
   XX=           -136.5502   YY=           -119.2559   ZZ=           -151.1538
   XY=             -5.3575   XZ=            -13.9244   YZ=             -0.4021

 Normal termination of Gaussian 16 at Thu Jun  2 03:00:31 2022.
