 Gaussian 16, Revision C.01,
 Gaussian 16:  ES64L-G16RevC.01  3-Jul-2019

 ----------------------------------------------------------------------
 # B3LYP/6-31G* empiricaldispersion=gd3 guess=read geom=check nosymm in
 tegral(ultrafinegrid)
 ----------------------------------------------------------------------

 ------------------------------------------------------
 Candidate Structure: Conf:126 Charge calc in gas phase
 ------------------------------------------------------
 Structure from the checkpoint file:  "conf-126.chk"
 Charge =  1 Multiplicity = 1

                          Input orientation:
 ---------------------------------------------------------------------
 Center     Atomic      Atomic             Coordinates (Angstroms)
 Number     Number       Type             X           Y           Z
 ---------------------------------------------------------------------
      1          7           0        0.841217   -2.055105    2.774966
      2          1           0        1.052568   -1.082335    2.413886
      3          1           0        1.035501   -2.146713    3.776274
      4          1           0        1.451606   -2.693547    2.249083
      5          6           0       -0.604482   -2.373150    2.409020
      6          1           0       -1.224424   -1.734701    3.045421
      7          6           0       -0.603179   -1.936793    0.924215
      8          6           0       -0.908655   -3.850748    2.616453
      9          1           0       -0.707268   -4.125618    3.659483
     10          1           0       -0.247345   -4.442863    1.976175
     11          8           0        0.125663   -2.557578    0.164630
     12          6           0       -2.371804   -4.162516    2.263892
     13          1           0       -2.548900   -3.942613    1.202503
     14          1           0       -3.070256   -3.559456    2.850725
     15          6           0       -2.749917   -5.617584    2.490670
     16          8           0       -3.794110   -5.987589    2.966474
     17          8           0       -1.771528   -6.452702    2.066989
     18          7           0       -1.297833   -0.802516    0.628951
     19          1           0       -1.794874   -0.391039    1.409579
     20          6           0       -0.737503    0.192046   -0.292525
     21          1           0       -1.464015    1.010077   -0.331120
     22          6           0        0.564790    0.759105    0.352630
     23          6           0       -0.561766   -0.346761   -1.742353
     24          1           0        0.160390   -1.163776   -1.732403
     25          1           0       -1.529887   -0.779595   -2.021416
     26          8           0        1.093378    0.239816    1.356657
     27          6           0       -0.141570    0.725844   -2.722445
     28          6           0       -0.981878    1.813431   -3.016792
     29          1           0       -1.986118    1.849205   -2.598523
     30          6           0        1.130253    0.701720   -3.307278
     31          1           0        1.800054   -0.129058   -3.100220
     32          6           0       -0.559010    2.854551   -3.836175
     33          1           0       -1.206912    3.694767   -4.062843
     34          6           0        1.566219    1.732629   -4.138493
     35          1           0        2.559352    1.693466   -4.580579
     36          8           0        1.090779    3.881337   -5.165601
     37          1           0        1.969700    3.727880   -5.547169
     38          6           0        0.726278    2.822971   -4.394502
     39          7           0        1.050548    1.865161   -0.214963
     40          1           0        0.631794    2.195036   -1.078810
     41          6           0        2.327333    2.472960    0.170732
     42          1           0        2.431743    2.396615    1.254276
     43          6           0        2.324888    3.954473   -0.182263
     44          6           0        3.508633    1.755756   -0.525581
     45          1           0        3.442329    0.696888   -0.245218
     46          1           0        3.349853    1.811712   -1.609592
     47          8           0        2.891016    4.807219    0.454576
     48          6           0        4.886843    2.314703   -0.159439
     49          1           0        5.016964    2.290424    0.932391
     50          1           0        4.943819    3.367761   -0.456286
     51          6           0        6.019707    1.536770   -0.839255
     52          1           0        5.981022    0.482248   -0.529600
     53          1           0        5.873651    1.563491   -1.927050
     54          6           0        7.411755    2.099584   -0.528129
     55          1           0        7.613620    1.990332    0.553592
     56          1           0        8.157438    1.486929   -1.047531
     57          7           0        7.541694    3.477427   -1.020058
     58          1           0        8.524986    3.733563   -1.078280
     59          1           0        7.126604    4.128476   -0.356313
     60          8           0        1.668273    4.183289   -1.346582
     61          1           0        1.735489    5.136341   -1.546684
     62          1           0       -2.089838   -7.364484    2.213042
 ---------------------------------------------------------------------

 SCF Done:  E(RB3LYP) =  -1526.27276161     A.U. after    1 cycles

 Alpha  occ. eigenvalues --  -19.29853 -19.29385 -19.26796 -19.26695 -19.26110
 Alpha  occ. eigenvalues --  -19.23813 -19.23533 -14.59980 -14.50512 -14.48583
 Alpha  occ. eigenvalues --  -14.37355 -10.44047 -10.42461 -10.42130 -10.42060
 Alpha  occ. eigenvalues --  -10.41035 -10.37148 -10.34440 -10.34376 -10.33897
 Alpha  occ. eigenvalues --  -10.32303 -10.30325 -10.29088 -10.28919 -10.28852
 Alpha  occ. eigenvalues --  -10.28535 -10.28375 -10.27979 -10.27209 -10.26329
 Alpha  occ. eigenvalues --  -10.25187  -1.20520  -1.20151  -1.19514  -1.16932
 Alpha  occ. eigenvalues --   -1.14905  -1.14231  -1.11677  -1.11315  -1.07149
 Alpha  occ. eigenvalues --   -1.05366  -0.95489  -0.94897  -0.94180  -0.91297
 Alpha  occ. eigenvalues --   -0.89108  -0.86824  -0.84756  -0.84371  -0.83082
 Alpha  occ. eigenvalues --   -0.78889  -0.78105  -0.76737  -0.74731  -0.73150
 Alpha  occ. eigenvalues --   -0.72916  -0.72038  -0.71642  -0.71000  -0.69695
 Alpha  occ. eigenvalues --   -0.69520  -0.68328  -0.66957  -0.65157  -0.64337
 Alpha  occ. eigenvalues --   -0.63782  -0.63760  -0.61536  -0.60650  -0.58851
 Alpha  occ. eigenvalues --   -0.58479  -0.57818  -0.57609  -0.57379  -0.57238
 Alpha  occ. eigenvalues --   -0.56739  -0.56065  -0.55755  -0.55329  -0.55108
 Alpha  occ. eigenvalues --   -0.54741  -0.54344  -0.53703  -0.53171  -0.53060
 Alpha  occ. eigenvalues --   -0.51718  -0.51073  -0.50978  -0.50556  -0.49903
 Alpha  occ. eigenvalues --   -0.49707  -0.49229  -0.48790  -0.48768  -0.48430
 Alpha  occ. eigenvalues --   -0.48037  -0.47319  -0.46847  -0.45797  -0.45377
 Alpha  occ. eigenvalues --   -0.44457  -0.43079  -0.42589  -0.42134  -0.41592
 Alpha  occ. eigenvalues --   -0.41448  -0.41410  -0.40714  -0.40501  -0.40223
 Alpha  occ. eigenvalues --   -0.39268  -0.38481  -0.37101  -0.36294  -0.34838
 Alpha  occ. eigenvalues --   -0.31211  -0.29709
 Alpha virt. eigenvalues --   -0.14742  -0.11488  -0.10271  -0.10051  -0.09312
 Alpha virt. eigenvalues --   -0.08636  -0.08509  -0.07070  -0.04680  -0.02786
 Alpha virt. eigenvalues --   -0.02437  -0.01356  -0.01243  -0.00558  -0.00163

 Mulliken charges:
               1
     1  N   -0.760714
     2  H    0.457947
     3  H    0.408780
     4  H    0.416690
     5  C   -0.110833
     6  H    0.194158
     7  C    0.609051
     8  C   -0.279746
     9  H    0.171740
    10  H    0.209920
    11  O   -0.487790
    12  C   -0.368571
    13  H    0.205221
    14  H    0.188524
    15  C    0.581826
    16  O   -0.427929
    17  O   -0.562545
    18  N   -0.565596
    19  H    0.345115
    20  C   -0.109710
    21  H    0.190307
    22  C    0.657251
    23  C   -0.348812
    24  H    0.201326
    25  H    0.183267
    26  O   -0.601508
    27  C    0.112908
    28  C   -0.210043
    29  H    0.139266
    30  C   -0.186746
    31  H    0.145103
    32  C   -0.149200
    33  H    0.164370
    34  C   -0.188743
    35  H    0.145004
    36  O   -0.629155
    37  H    0.420195
    38  C    0.360692
    39  N   -0.605786
    40  H    0.393940
    41  C   -0.043255
    42  H    0.196777
    43  C    0.590066
    44  C   -0.276085
    45  H    0.150494
    46  H    0.159961
    47  O   -0.438339
    48  C   -0.279079
    49  H    0.137105
    50  H    0.167206
    51  C   -0.234316
    52  H    0.121000
    53  H    0.142430
    54  C   -0.147753
    55  H    0.119300
    56  H    0.148601
    57  N   -0.720967
    58  H    0.309009
    59  H    0.302410
    60  O   -0.576017
    61  H    0.432445
    62  H    0.429833
 Sum of Mulliken charges =   1.00000

 Dipole moment (field-independent basis, Debye):
    X=              4.2593    Y=             -3.1976    Z=              5.5375  Tot=              7.6831
 Quadrupole moment (field-independent basis, Debye-Ang):
   XX=           -149.5714   YY=           -140.5956   ZZ=           -137.2545
   XY=              1.3313   XZ=             -0.7721   YZ=            -35.2079

 Normal termination of Gaussian 16 at Wed Jun  1 23:31:19 2022.
