 Gaussian 16, Revision C.01,
 Gaussian 16:  ES64L-G16RevC.01  3-Jul-2019

 ----------------------------------------------------------------------
 # B3LYP/6-31G* empiricaldispersion=gd3 guess=read geom=check nosymm in
 tegral(ultrafinegrid)
 ----------------------------------------------------------------------

 ------------------------------------------------------
 Candidate Structure: Conf:549 Charge calc in gas phase
 ------------------------------------------------------
 Structure from the checkpoint file:  "conf-549.chk"
 Charge =  1 Multiplicity = 1

                          Input orientation:
 ---------------------------------------------------------------------
 Center     Atomic      Atomic             Coordinates (Angstroms)
 Number     Number       Type             X           Y           Z
 ---------------------------------------------------------------------
      1          7           0       -1.202169   -2.663003    2.406238
      2          1           0       -1.247284   -2.775025    1.374414
      3          1           0       -1.420953   -3.552051    2.864195
      4          1           0       -1.897367   -1.926362    2.643635
      5          6           0        0.133873   -2.081516    2.828551
      6          1           0        0.892976   -2.559024    2.204742
      7          6           0       -0.036002   -0.590430    2.457864
      8          6           0        0.408867   -2.327147    4.313952
      9          1           0        1.390169   -1.898147    4.540812
     10          1           0        0.516269   -3.404499    4.490833
     11          8           0       -1.170594   -0.103700    2.510804
     12          6           0       -0.631457   -1.733976    5.270706
     13          1           0       -1.615571   -2.210529    5.176644
     14          1           0       -0.797301   -0.667556    5.079457
     15          6           0       -0.173168   -1.891434    6.711663
     16          8           0        0.919822   -2.288817    7.043573
     17          8           0       -1.143005   -1.519840    7.567358
     18          7           0        1.067133    0.043339    2.056901
     19          1           0        1.952433   -0.457588    1.960018
     20          6           0        1.024408    1.215303    1.189936
     21          1           0        0.684925    2.090726    1.752457
     22          6           0        2.484337    1.417505    0.730366
     23          6           0        0.062590    1.001633   -0.037765
     24          1           0       -0.920268    1.391750    0.235024
     25          1           0        0.433066    1.619239   -0.864472
     26          8           0        3.304400    0.504765    0.857886
     27          6           0       -0.091405   -0.444406   -0.473381
     28          6           0        1.013440   -1.267664   -0.765555
     29          1           0        2.018463   -0.863087   -0.714678
     30          6           0       -1.363729   -1.020167   -0.537953
     31          1           0       -2.236745   -0.415435   -0.307555
     32          6           0        0.855677   -2.609120   -1.096959
     33          1           0        1.710622   -3.232322   -1.338041
     34          6           0       -1.545326   -2.371017   -0.871841
     35          1           0       -2.550463   -2.780165   -0.961486
     36          8           0       -0.516711   -4.484117   -1.502648
     37          1           0       -1.432526   -4.717723   -1.724179
     38          6           0       -0.429120   -3.170606   -1.167070
     39          7           0        2.751232    2.599854    0.145711
     40          1           0        2.046022    3.325232    0.122618
     41          6           0        4.039441    2.889923   -0.484949
     42          1           0        4.780412    2.239897   -0.013843
     43          6           0        4.478966    4.327555   -0.243488
     44          6           0        4.026767    2.617103   -2.009465
     45          1           0        3.339798    3.323786   -2.495500
     46          1           0        5.031857    2.839589   -2.385267
     47          8           0        5.607398    4.714112   -0.415871
     48          6           0        3.627710    1.179209   -2.353792
     49          1           0        2.601339    0.999559   -2.006257
     50          1           0        4.265883    0.480399   -1.797120
     51          6           0        3.692643    0.862226   -3.851269
     52          1           0        3.076072    1.580188   -4.412327
     53          1           0        4.722331    0.984579   -4.215882
     54          6           0        3.207638   -0.566867   -4.156807
     55          1           0        3.820332   -1.282979   -3.591609
     56          1           0        2.180270   -0.684711   -3.782766
     57          7           0        3.222416   -0.978227   -5.558852
     58          1           0        4.171126   -0.926175   -5.927531
     59          1           0        2.666866   -0.332045   -6.118145
     60          8           0        3.447315    5.135288    0.111769
     61          1           0        3.807215    6.039136    0.196394
     62          1           0       -0.790666   -1.621065    8.472766
 ---------------------------------------------------------------------

 SCF Done:  E(RB3LYP) =  -1526.27789940     A.U. after    1 cycles

 Alpha  occ. eigenvalues --  -19.29729 -19.29474 -19.29347 -19.26889 -19.24357
 Alpha  occ. eigenvalues --  -19.23926 -19.23002 -14.60464 -14.49724 -14.47963
 Alpha  occ. eigenvalues --  -14.37515 -10.43844 -10.42820 -10.41413 -10.41020
 Alpha  occ. eigenvalues --  -10.40959 -10.37479 -10.36555 -10.34152 -10.33778
 Alpha  occ. eigenvalues --  -10.32874 -10.31593 -10.31580 -10.31490 -10.31391
 Alpha  occ. eigenvalues --  -10.30856 -10.30430 -10.28167 -10.27589 -10.26869
 Alpha  occ. eigenvalues --  -10.25556  -1.20780  -1.19900  -1.19456  -1.17739
 Alpha  occ. eigenvalues --   -1.15950  -1.14411  -1.12024  -1.10984  -1.06824
 Alpha  occ. eigenvalues --   -1.04444  -0.97562  -0.95108  -0.94439  -0.91423
 Alpha  occ. eigenvalues --   -0.89224  -0.87917  -0.86944  -0.85611  -0.83773
 Alpha  occ. eigenvalues --   -0.79733  -0.78417  -0.77511  -0.74535  -0.74196
 Alpha  occ. eigenvalues --   -0.73018  -0.72591  -0.71635  -0.71098  -0.70230
 Alpha  occ. eigenvalues --   -0.69770  -0.69442  -0.66898  -0.66630  -0.66109
 Alpha  occ. eigenvalues --   -0.63011  -0.62446  -0.61751  -0.60991  -0.60833
 Alpha  occ. eigenvalues --   -0.59927  -0.58660  -0.58130  -0.58105  -0.57192
 Alpha  occ. eigenvalues --   -0.57060  -0.56864  -0.55977  -0.55761  -0.55524
 Alpha  occ. eigenvalues --   -0.54873  -0.54271  -0.53681  -0.53511  -0.52931
 Alpha  occ. eigenvalues --   -0.52512  -0.51971  -0.51745  -0.50778  -0.50649
 Alpha  occ. eigenvalues --   -0.50591  -0.50029  -0.49117  -0.48924  -0.48866
 Alpha  occ. eigenvalues --   -0.48576  -0.48039  -0.46771  -0.46614  -0.45795
 Alpha  occ. eigenvalues --   -0.45046  -0.44555  -0.43695  -0.42860  -0.42032
 Alpha  occ. eigenvalues --   -0.41892  -0.41232  -0.41015  -0.40602  -0.39980
 Alpha  occ. eigenvalues --   -0.38294  -0.38083  -0.37886  -0.37463  -0.35525
 Alpha  occ. eigenvalues --   -0.34109  -0.29569
 Alpha virt. eigenvalues --   -0.13988  -0.13120  -0.11633  -0.10444  -0.09565
 Alpha virt. eigenvalues --   -0.09120  -0.08188  -0.05087  -0.04666  -0.03905
 Alpha virt. eigenvalues --   -0.02911  -0.02572  -0.01668  -0.01433  -0.00587

 Mulliken charges:
               1
     1  N   -0.756401
     2  H    0.418622
     3  H    0.407611
     4  H    0.422392
     5  C   -0.130382
     6  H    0.216043
     7  C    0.664068
     8  C   -0.287581
     9  H    0.220214
    10  H    0.187842
    11  O   -0.543247
    12  C   -0.387099
    13  H    0.168722
    14  H    0.221948
    15  C    0.594950
    16  O   -0.439935
    17  O   -0.557258
    18  N   -0.610927
    19  H    0.373919
    20  C   -0.039084
    21  H    0.198649
    22  C    0.633249
    23  C   -0.379757
    24  H    0.190118
    25  H    0.184257
    26  O   -0.538003
    27  C    0.134286
    28  C   -0.201593
    29  H    0.187152
    30  C   -0.188275
    31  H    0.163011
    32  C   -0.177164
    33  H    0.180125
    34  C   -0.285145
    35  H    0.152505
    36  O   -0.620058
    37  H    0.422972
    38  C    0.358941
    39  N   -0.607207
    40  H    0.356835
    41  C   -0.067934
    42  H    0.219341
    43  C    0.597051
    44  C   -0.267786
    45  H    0.145516
    46  H    0.185154
    47  O   -0.434418
    48  C   -0.275851
    49  H    0.124091
    50  H    0.158074
    51  C   -0.265906
    52  H    0.129898
    53  H    0.141669
    54  C   -0.143495
    55  H    0.139984
    56  H    0.133027
    57  N   -0.701991
    58  H    0.301226
    59  H    0.296979
    60  O   -0.585948
    61  H    0.430849
    62  H    0.431153
 Sum of Mulliken charges =   1.00000

 Dipole moment (field-independent basis, Debye):
    X=             -3.1728    Y=             -4.6709    Z=              7.0936  Tot=              9.0665
 Quadrupole moment (field-independent basis, Debye-Ang):
   XX=           -173.2830   YY=           -125.8803   ZZ=           -130.1613
   XY=             29.2589   XZ=            -18.5735   YZ=            -26.7275

 Normal termination of Gaussian 16 at Wed Jun  1 23:31:16 2022.
