 Gaussian 16, Revision C.01,
 Gaussian 16:  ES64L-G16RevC.01  3-Jul-2019

 ----------------------------------------------------------------------
 # B3LYP/6-31G* empiricaldispersion=gd3 guess=read geom=check nosymm in
 tegral(ultrafinegrid)
 ----------------------------------------------------------------------

 -----------------------------------------------------
 Candidate Structure: Conf:95 Charge calc in gas phase
 -----------------------------------------------------
 Structure from the checkpoint file:  "conf-95.chk"
 Charge =  1 Multiplicity = 1

                          Input orientation:
 ---------------------------------------------------------------------
 Center     Atomic      Atomic             Coordinates (Angstroms)
 Number     Number       Type             X           Y           Z
 ---------------------------------------------------------------------
      1          7           0        0.371377   -1.839466    2.945525
      2          1           0        0.657985   -0.901953    2.554421
      3          1           0        0.446711   -1.881944    3.972699
      4          1           0        0.984520   -2.535286    2.506607
      5          6           0       -1.064864   -2.093101    2.513232
      6          1           0       -1.669133   -1.414821    3.121343
      7          6           0       -0.996197   -1.681568    1.024650
      8          6           0       -1.478788   -3.550844    2.714567
      9          1           0       -1.010455   -4.152116    1.928211
     10          1           0       -2.561323   -3.598185    2.554081
     11          8           0       -0.304221   -2.365483    0.285589
     12          6           0       -1.134636   -4.165897    4.091362
     13          1           0       -0.055140   -4.328469    4.184699
     14          1           0       -1.624725   -5.138215    4.171565
     15          6           0       -1.609673   -3.315239    5.250978
     16          8           0       -2.648780   -3.414591    5.843798
     17          8           0       -0.688667   -2.326427    5.537890
     18          7           0       -1.592850   -0.498992    0.704129
     19          1           0       -2.063702   -0.035907    1.471778
     20          6           0       -0.950952    0.432098   -0.229400
     21          1           0       -1.614152    1.301077   -0.290643
     22          6           0        0.383088    0.914461    0.419857
     23          6           0       -0.803878   -0.146247   -1.666467
     24          1           0       -0.133051   -1.005501   -1.636957
     25          1           0       -1.795385   -0.525338   -1.941592
     26          8           0        0.846654    0.391366    1.452217
     27          6           0       -0.317404    0.878433   -2.667411
     28          6           0       -1.087197    2.011529   -2.982131
     29          1           0       -2.084912    2.120645   -2.561074
     30          6           0        0.947995    0.760867   -3.255025
     31          1           0        1.564457   -0.106035   -3.031152
     32          6           0       -0.602582    3.005785   -3.825036
     33          1           0       -1.196275    3.880967   -4.067335
     34          6           0        1.444933    1.743980   -4.109620
     35          1           0        2.431848    1.632529   -4.553348
     36          8           0        1.101996    3.894506   -5.184861
     37          1           0        1.968516    3.676951   -5.563266
     38          6           0        0.674996    2.879577   -4.387256
     39          7           0        0.967591    1.956888   -0.176295
     40          1           0        0.594933    2.286935   -1.060680
     41          6           0        2.274880    2.485060    0.225548
     42          1           0        2.357403    2.404043    1.310234
     43          6           0        2.353310    3.965590   -0.124529
     44          6           0        3.420866    1.701897   -0.454255
     45          1           0        3.300456    0.650301   -0.162818
     46          1           0        3.272271    1.753595   -1.540189
     47          8           0        2.854585    4.811785    0.571158
     48          6           0        4.817085    2.206342   -0.079139
     49          1           0        4.922112    2.218248    1.015202
     50          1           0        4.956212    3.240624   -0.410517
     51          6           0        5.931091    1.347226   -0.688188
     52          1           0        5.897587    0.331174   -0.270421
     53          1           0        5.763409    1.240097   -1.771128
     54          6           0        7.326873    1.941707   -0.460149
     55          1           0        7.470183    2.116648    0.613920
     56          1           0        8.088069    1.201577   -0.763004
     57          7           0        7.448845    3.235843   -1.143233
     58          1           0        7.559523    3.084811   -2.145227
     59          1           0        8.291381    3.717572   -0.836295
     60          8           0        1.834877    4.201229   -1.357232
     61          1           0        1.937156    5.153626   -1.544982
     62          1           0       -1.034199   -1.814151    6.295325
 ---------------------------------------------------------------------

 SCF Done:  E(RB3LYP) =  -1526.28178452     A.U. after    3 cycles

 Alpha  occ. eigenvalues --  -19.33460 -19.29209 -19.27050 -19.26510 -19.26232
 Alpha  occ. eigenvalues --  -19.25457 -19.23218 -14.58416 -14.50002 -14.48044
 Alpha  occ. eigenvalues --  -14.37484 -10.45161 -10.43530 -10.41881 -10.41388
 Alpha  occ. eigenvalues --  -10.40485 -10.36665 -10.34396 -10.34154 -10.33849
 Alpha  occ. eigenvalues --  -10.33779 -10.29962 -10.28831 -10.28672 -10.28621
 Alpha  occ. eigenvalues --  -10.28175 -10.27920 -10.27744 -10.27201 -10.25417
 Alpha  occ. eigenvalues --  -10.25271  -1.23417  -1.19860  -1.18850  -1.16344
 Alpha  occ. eigenvalues --   -1.14888  -1.14713  -1.13122  -1.11047  -1.06624
 Alpha  occ. eigenvalues --   -1.04792  -0.95246  -0.94881  -0.94244  -0.91028
 Alpha  occ. eigenvalues --   -0.88899  -0.87409  -0.84372  -0.84127  -0.82814
 Alpha  occ. eigenvalues --   -0.79284  -0.77731  -0.76650  -0.74426  -0.73155
 Alpha  occ. eigenvalues --   -0.72479  -0.72059  -0.71632  -0.70847  -0.69548
 Alpha  occ. eigenvalues --   -0.68977  -0.67944  -0.66094  -0.65164  -0.64293
 Alpha  occ. eigenvalues --   -0.63925  -0.63412  -0.61413  -0.61010  -0.60630
 Alpha  occ. eigenvalues --   -0.59335  -0.58218  -0.57750  -0.57217  -0.57142
 Alpha  occ. eigenvalues --   -0.56634  -0.56473  -0.55825  -0.55428  -0.55026
 Alpha  occ. eigenvalues --   -0.54633  -0.54226  -0.53623  -0.53102  -0.52508
 Alpha  occ. eigenvalues --   -0.52009  -0.51459  -0.51201  -0.50595  -0.50466
 Alpha  occ. eigenvalues --   -0.50231  -0.49508  -0.49451  -0.48929  -0.48805
 Alpha  occ. eigenvalues --   -0.48051  -0.47173  -0.46556  -0.45307  -0.45089
 Alpha  occ. eigenvalues --   -0.44859  -0.43424  -0.42856  -0.42558  -0.41799
 Alpha  occ. eigenvalues --   -0.41335  -0.40846  -0.40342  -0.40298  -0.40171
 Alpha  occ. eigenvalues --   -0.39680  -0.38769  -0.38080  -0.35720  -0.34584
 Alpha  occ. eigenvalues --   -0.30982  -0.29698
 Alpha virt. eigenvalues --   -0.14000  -0.12432  -0.10955  -0.09767  -0.08911
 Alpha virt. eigenvalues --   -0.08327  -0.08082  -0.06561  -0.05118  -0.02002
 Alpha virt. eigenvalues --   -0.01459  -0.01166  -0.00451  -0.00185   0.00139

 Mulliken charges:
               1
     1  N   -0.777989
     2  H    0.454491
     3  H    0.427229
     4  H    0.408419
     5  C   -0.108252
     6  H    0.194649
     7  C    0.609475
     8  C   -0.298067
     9  H    0.211403
    10  H    0.208310
    11  O   -0.488591
    12  C   -0.369559
    13  H    0.174851
    14  H    0.227493
    15  C    0.580131
    16  O   -0.400190
    17  O   -0.608004
    18  N   -0.565911
    19  H    0.343554
    20  C   -0.108463
    21  H    0.189012
    22  C    0.653988
    23  C   -0.348086
    24  H    0.200285
    25  H    0.183008
    26  O   -0.597086
    27  C    0.110338
    28  C   -0.206859
    29  H    0.138927
    30  C   -0.186602
    31  H    0.144334
    32  C   -0.150091
    33  H    0.163835
    34  C   -0.186206
    35  H    0.140828
    36  O   -0.629184
    37  H    0.418725
    38  C    0.360876
    39  N   -0.607116
    40  H    0.391266
    41  C   -0.040317
    42  H    0.196222
    43  C    0.587396
    44  C   -0.275403
    45  H    0.147133
    46  H    0.155536
    47  O   -0.435335
    48  C   -0.267705
    49  H    0.136953
    50  H    0.188291
    51  C   -0.251224
    52  H    0.127357
    53  H    0.124595
    54  C   -0.143818
    55  H    0.144255
    56  H    0.126874
    57  N   -0.715995
    58  H    0.295977
    59  H    0.309281
    60  O   -0.576941
    61  H    0.430448
    62  H    0.437252
 Sum of Mulliken charges =   1.00000

 Dipole moment (field-independent basis, Debye):
    X=              3.0751    Y=             -2.8468    Z=              5.7948  Tot=              7.1512
 Quadrupole moment (field-independent basis, Debye-Ang):
   XX=           -138.0100   YY=           -154.6902   ZZ=           -121.5238
   XY=              4.1471   XZ=            -18.1173   YZ=            -40.2110

 Normal termination of Gaussian 16 at Wed Jun  1 23:25:31 2022.
