 Gaussian 16, Revision C.01,
 Gaussian 16:  ES64L-G16RevC.01  3-Jul-2019

 ----------------------------------------------------------------------
 # B3LYP/6-31G* empiricaldispersion=gd3 guess=read geom=check nosymm in
 tegral(ultrafinegrid)
 ----------------------------------------------------------------------

 ------------------------------------------------------
 Candidate Structure: Conf:950 Charge calc in gas phase
 ------------------------------------------------------
 Structure from the checkpoint file:  "conf-950.chk"
 Charge =  1 Multiplicity = 1

                          Input orientation:
 ---------------------------------------------------------------------
 Center     Atomic      Atomic             Coordinates (Angstroms)
 Number     Number       Type             X           Y           Z
 ---------------------------------------------------------------------
      1          7           0        1.059704   -2.274527    3.202962
      2          1           0        1.307565   -1.294223    2.881495
      3          1           0        1.408743   -2.469319    4.145169
      4          1           0        1.499030   -2.913014    2.527794
      5          6           0       -0.456881   -2.418183    3.073998
      6          1           0       -0.887819   -1.761709    3.829905
      7          6           0       -0.614024   -1.871561    1.630555
      8          6           0       -0.870558   -3.885606    3.254415
      9          1           0       -0.139444   -4.399857    3.891366
     10          1           0       -0.823283   -4.370281    2.273206
     11          8           0       -0.011237   -2.481895    0.754380
     12          6           0       -2.251643   -4.090224    3.901421
     13          1           0       -2.218956   -3.785571    4.956495
     14          1           0       -2.514296   -5.150384    3.887230
     15          6           0       -3.360209   -3.275334    3.266315
     16          8           0       -3.237319   -2.116845    2.909494
     17          8           0       -4.508410   -3.955343    3.183776
     18          7           0       -1.211068   -0.664432    1.494237
     19          1           0       -1.762540   -0.351200    2.281840
     20          6           0       -0.675229    0.360374    0.604696
     21          1           0       -1.336970    1.226363    0.705599
     22          6           0        0.727923    0.783017    1.130481
     23          6           0       -0.678034   -0.060366   -0.895676
     24          1           0        0.004641   -0.901034   -1.027682
     25          1           0       -1.687612   -0.437483   -1.097312
     26          8           0        1.355089    0.129652    1.989650
     27          6           0       -0.325676    1.073710   -1.831087
     28          6           0       -1.165115    2.193349   -1.961448
     29          1           0       -2.115852    2.218807   -1.431980
     30          6           0        0.876695    1.068485   -2.547539
     31          1           0        1.544268    0.213961   -2.467893
     32          6           0       -0.811898    3.276069   -2.758368
     33          1           0       -1.458610    4.141316   -2.857467
     34          6           0        1.242693    2.143063   -3.357422
     35          1           0        2.179382    2.115463   -3.910210
     36          8           0        0.691580    4.344751   -4.220749
     37          1           0        1.539459    4.215397   -4.673828
     38          6           0        0.401139    3.257150   -3.459998
     39          7           0        1.214121    1.914734    0.616668
     40          1           0        0.712430    2.394461   -0.126481
     41          6           0        2.559625    2.410420    0.893600
     42          1           0        2.757445    2.322675    1.965203
     43          6           0        2.562937    3.878142    0.485260
     44          6           0        3.618889    1.603180    0.101054
     45          1           0        3.425320    0.546782    0.321495
     46          1           0        3.425206    1.747502   -0.969453
     47          8           0        1.814191    4.347810   -0.343760
     48          6           0        5.073538    1.939107    0.442260
     49          1           0        5.228945    1.827510    1.525471
     50          1           0        5.277346    2.990735    0.212077
     51          6           0        6.066513    1.046318   -0.311112
     52          1           0        5.851832   -0.009838   -0.089405
     53          1           0        5.919656    1.170741   -1.394800
     54          6           0        7.540024    1.340038    0.035674
     55          1           0        7.697431    1.174795    1.110131
     56          1           0        8.176806    0.613152   -0.483226
     57          7           0        8.041844    2.675912   -0.282978
     58          1           0        7.537940    3.389901    0.238431
     59          1           0        7.908059    2.881391   -1.271866
     60          8           0        3.515834    4.576642    1.125691
     61          1           0        3.484680    5.492219    0.785243
     62          1           0       -5.188752   -3.358870    2.813868
 ---------------------------------------------------------------------

 SCF Done:  E(RB3LYP) =  -1526.28345758     A.U. after    1 cycles

 Alpha  occ. eigenvalues --  -19.31388 -19.29949 -19.26154 -19.25634 -19.25324
 Alpha  occ. eigenvalues --  -19.25212 -19.24336 -14.58630 -14.48496 -14.47720
 Alpha  occ. eigenvalues --  -14.37419 -10.44442 -10.42566 -10.42374 -10.41513
 Alpha  occ. eigenvalues --  -10.39763 -10.35955 -10.34369 -10.33952 -10.33310
 Alpha  occ. eigenvalues --  -10.32964 -10.29252 -10.28571 -10.28012 -10.27887
 Alpha  occ. eigenvalues --  -10.27832 -10.27419 -10.27141 -10.26869 -10.26738
 Alpha  occ. eigenvalues --  -10.25592  -1.22551  -1.20927  -1.18126  -1.16007
 Alpha  occ. eigenvalues --   -1.13868  -1.13562  -1.12814  -1.12072  -1.05453
 Alpha  occ. eigenvalues --   -1.04519  -0.94469  -0.94294  -0.94097  -0.90722
 Alpha  occ. eigenvalues --   -0.88710  -0.86516  -0.84500  -0.83354  -0.82453
 Alpha  occ. eigenvalues --   -0.79161  -0.77822  -0.76071  -0.73692  -0.73525
 Alpha  occ. eigenvalues --   -0.72779  -0.71569  -0.70802  -0.70206  -0.69243
 Alpha  occ. eigenvalues --   -0.68259  -0.67372  -0.65980  -0.65668  -0.63695
 Alpha  occ. eigenvalues --   -0.63069  -0.62609  -0.61483  -0.60420  -0.59588
 Alpha  occ. eigenvalues --   -0.59221  -0.58519  -0.58170  -0.56953  -0.56798
 Alpha  occ. eigenvalues --   -0.56584  -0.55880  -0.55410  -0.55094  -0.54651
 Alpha  occ. eigenvalues --   -0.54386  -0.54069  -0.53223  -0.52545  -0.52171
 Alpha  occ. eigenvalues --   -0.51623  -0.50937  -0.50662  -0.50187  -0.49894
 Alpha  occ. eigenvalues --   -0.49352  -0.48981  -0.48952  -0.48226  -0.48108
 Alpha  occ. eigenvalues --   -0.47943  -0.47157  -0.46179  -0.45787  -0.44417
 Alpha  occ. eigenvalues --   -0.43709  -0.43634  -0.43086  -0.42420  -0.42032
 Alpha  occ. eigenvalues --   -0.41294  -0.40768  -0.40312  -0.40129  -0.39812
 Alpha  occ. eigenvalues --   -0.38949  -0.37987  -0.37567  -0.37169  -0.33802
 Alpha  occ. eigenvalues --   -0.30100  -0.29351
 Alpha virt. eigenvalues --   -0.13212  -0.11479  -0.10548  -0.09327  -0.08956
 Alpha virt. eigenvalues --   -0.08650  -0.07619  -0.04535  -0.03705  -0.02523
 Alpha virt. eigenvalues --   -0.02276  -0.01795  -0.00481  -0.00140   0.00307

 Mulliken charges:
               1
     1  N   -0.770014
     2  H    0.457148
     3  H    0.400671
     4  H    0.413309
     5  C   -0.072761
     6  H    0.199905
     7  C    0.611472
     8  C   -0.305238
     9  H    0.163146
    10  H    0.214544
    11  O   -0.507021
    12  C   -0.363894
    13  H    0.199660
    14  H    0.212641
    15  C    0.600468
    16  O   -0.483651
    17  O   -0.535427
    18  N   -0.565245
    19  H    0.362960
    20  C   -0.098022
    21  H    0.186815
    22  C    0.658099
    23  C   -0.349314
    24  H    0.195560
    25  H    0.181177
    26  O   -0.602429
    27  C    0.119143
    28  C   -0.208372
    29  H    0.135861
    30  C   -0.189237
    31  H    0.138427
    32  C   -0.141938
    33  H    0.163346
    34  C   -0.190714
    35  H    0.135541
    36  O   -0.626296
    37  H    0.416411
    38  C    0.367957
    39  N   -0.603119
    40  H    0.388840
    41  C   -0.030429
    42  H    0.191376
    43  C    0.583617
    44  C   -0.276253
    45  H    0.158253
    46  H    0.157729
    47  O   -0.452637
    48  C   -0.264297
    49  H    0.138255
    50  H    0.141093
    51  C   -0.262227
    52  H    0.125094
    53  H    0.128370
    54  C   -0.144939
    55  H    0.142957
    56  H    0.153590
    57  N   -0.700017
    58  H    0.298376
    59  H    0.295722
    60  O   -0.554369
    61  H    0.428832
    62  H    0.431493
 Sum of Mulliken charges =   1.00000

 Dipole moment (field-independent basis, Debye):
    X=              1.4601    Y=             -4.3241    Z=             10.9169  Tot=             11.8325
 Quadrupole moment (field-independent basis, Debye-Ang):
   XX=           -154.6710   YY=           -130.2842   ZZ=           -119.7207
   XY=             18.4179   XZ=            -14.9888   YZ=            -41.6104

 Normal termination of Gaussian 16 at Wed Jun  1 23:31:15 2022.
