 Gaussian 16, Revision C.01,
 Gaussian 16:  ES64L-G16RevC.01  3-Jul-2019

 ----------------------------------------------------------------------
 # B3LYP/6-31G* empiricaldispersion=gd3 guess=read geom=check nosymm in
 tegral(ultrafinegrid)
 ----------------------------------------------------------------------

 ------------------------------------------------------
 Candidate Structure: Conf:112 Charge calc in gas phase
 ------------------------------------------------------
 Structure from the checkpoint file:  "conf-112.chk"
 Charge =  1 Multiplicity = 1

                          Input orientation:
 ---------------------------------------------------------------------
 Center     Atomic      Atomic             Coordinates (Angstroms)
 Number     Number       Type             X           Y           Z
 ---------------------------------------------------------------------
      1          7           0       -3.747053   -1.348757    2.452182
      2          1           0       -4.199328   -2.264393    2.366069
      3          1           0       -4.027146   -0.922754    3.340794
      4          1           0       -4.046778   -0.754721    1.631012
      5          6           0       -2.240000   -1.408138    2.265388
      6          1           0       -1.887746   -2.394558    2.577236
      7          6           0       -2.091677   -1.157788    0.742368
      8          6           0       -1.612209   -0.276234    3.099062
      9          1           0       -1.953516   -0.374631    4.137253
     10          1           0       -1.989266    0.684637    2.730089
     11          8           0       -3.000600   -0.527753    0.186598
     12          6           0       -0.078436   -0.246447    3.096118
     13          1           0        0.337346   -0.073233    2.101720
     14          1           0        0.351085   -1.188285    3.460625
     15          6           0        0.393060    0.875689    4.000336
     16          8           0       -0.335111    1.597147    4.639296
     17          8           0        1.749087    0.972789    4.050802
     18          7           0       -0.978445   -1.608197    0.166407
     19          1           0       -0.231620   -1.994889    0.745905
     20          6           0       -0.442622   -1.043868   -1.079600
     21          1           0       -1.053244   -0.174558   -1.335365
     22          6           0        0.979342   -0.597167   -0.683691
     23          6           0       -0.452009   -2.040143   -2.260773
     24          1           0        0.111458   -2.935420   -1.975206
     25          1           0       -1.491482   -2.343815   -2.432002
     26          8           0        1.546778   -1.157576    0.262222
     27          6           0        0.149625   -1.392499   -3.488523
     28          6           0       -0.525837   -0.349189   -4.143027
     29          1           0       -1.532216   -0.078130   -3.828984
     30          6           0        1.433092   -1.727574   -3.930214
     31          1           0        1.982340   -2.524678   -3.435299
     32          6           0        0.061987    0.345347   -5.195231
     33          1           0       -0.460714    1.146216   -5.707833
     34          6           0        2.032754   -1.048511   -4.990232
     35          1           0        3.030352   -1.328313   -5.321785
     36          8           0        1.874003    0.712823   -6.655841
     37          1           0        2.740462    0.352358   -6.902032
     38          6           0        1.350333   -0.003882   -5.624482
     39          7           0        1.517243    0.443571   -1.338356
     40          1           0        1.003594    0.880996   -2.093048
     41          6           0        2.665545    1.140368   -0.761183
     42          1           0        3.535960    0.478755   -0.760199
     43          6           0        2.305077    1.466002    0.697250
     44          6           0        2.958401    2.415920   -1.565976
     45          1           0        3.076096    2.125141   -2.618949
     46          1           0        2.079414    3.073057   -1.507067
     47          8           0        1.196612    1.827356    1.046885
     48          6           0        4.212677    3.157148   -1.092282
     49          1           0        5.082273    2.492168   -1.134848
     50          1           0        4.099133    3.447892   -0.039169
     51          6           0        4.503793    4.407255   -1.929792
     52          1           0        4.555087    4.133225   -2.994847
     53          1           0        3.676790    5.124692   -1.836914
     54          6           0        5.812922    5.098778   -1.530242
     55          1           0        5.887379    6.061043   -2.066505
     56          1           0        5.779041    5.339081   -0.459557
     57          7           0        6.956562    4.203514   -1.749366
     58          1           0        7.799997    4.610329   -1.349578
     59          1           0        7.133978    4.116969   -2.749702
     60          8           0        3.334270    1.299343    1.531756
     61          1           0        2.982573    1.409155    2.440320
     62          1           0        1.943567    1.680239    4.696941
 ---------------------------------------------------------------------

 SCF Done:  E(RB3LYP) =  -1526.28044004     A.U. after    2 cycles

 Alpha  occ. eigenvalues --  -19.30807 -19.27852 -19.27589 -19.25757 -19.24944
 Alpha  occ. eigenvalues --  -19.23008 -19.22521 -14.61415 -14.50205 -14.46638
 Alpha  occ. eigenvalues --  -14.36906 -10.44424 -10.43339 -10.41919 -10.40742
 Alpha  occ. eigenvalues --  -10.39767 -10.35269 -10.34601 -10.33403 -10.32777
 Alpha  occ. eigenvalues --  -10.32209 -10.29747 -10.28065 -10.27881 -10.27802
 Alpha  occ. eigenvalues --  -10.27596 -10.27367 -10.27036 -10.26565 -10.24956
 Alpha  occ. eigenvalues --  -10.24547  -1.21429  -1.20148  -1.19204  -1.15354
 Alpha  occ. eigenvalues --   -1.14813  -1.13943  -1.12592  -1.10069  -1.06928
 Alpha  occ. eigenvalues --   -1.03194  -0.95492  -0.94305  -0.93651  -0.90305
 Alpha  occ. eigenvalues --   -0.88287  -0.87291  -0.83469  -0.83291  -0.82214
 Alpha  occ. eigenvalues --   -0.79659  -0.76777  -0.76020  -0.75048  -0.74163
 Alpha  occ. eigenvalues --   -0.73508  -0.71688  -0.70455  -0.69959  -0.68744
 Alpha  occ. eigenvalues --   -0.67942  -0.67604  -0.66282  -0.64466  -0.64234
 Alpha  occ. eigenvalues --   -0.62816  -0.62235  -0.60612  -0.60323  -0.60119
 Alpha  occ. eigenvalues --   -0.59143  -0.58702  -0.57806  -0.56934  -0.56553
 Alpha  occ. eigenvalues --   -0.55926  -0.55889  -0.55107  -0.54749  -0.53980
 Alpha  occ. eigenvalues --   -0.53863  -0.52936  -0.52481  -0.52214  -0.51639
 Alpha  occ. eigenvalues --   -0.51214  -0.51038  -0.50610  -0.50356  -0.49500
 Alpha  occ. eigenvalues --   -0.49109  -0.48785  -0.48365  -0.48175  -0.47961
 Alpha  occ. eigenvalues --   -0.46588  -0.46163  -0.45743  -0.44648  -0.44006
 Alpha  occ. eigenvalues --   -0.42970  -0.42740  -0.42105  -0.42066  -0.41635
 Alpha  occ. eigenvalues --   -0.40638  -0.40268  -0.40010  -0.39775  -0.39403
 Alpha  occ. eigenvalues --   -0.38634  -0.37189  -0.36764  -0.35708  -0.33809
 Alpha  occ. eigenvalues --   -0.30249  -0.29128
 Alpha virt. eigenvalues --   -0.13614  -0.11850  -0.09815  -0.09749  -0.09100
 Alpha virt. eigenvalues --   -0.07774  -0.07247  -0.07228  -0.05509  -0.03065
 Alpha virt. eigenvalues --   -0.02491  -0.01674  -0.00476  -0.00151   0.00586

 Mulliken charges:
               1
     1  N   -0.747677
     2  H    0.420223
     3  H    0.418365
     4  H    0.432933
     5  C   -0.127302
     6  H    0.212032
     7  C    0.645838
     8  C   -0.290935
     9  H    0.185510
    10  H    0.208326
    11  O   -0.528324
    12  C   -0.402086
    13  H    0.243913
    14  H    0.192051
    15  C    0.626517
    16  O   -0.442232
    17  O   -0.588468
    18  N   -0.587847
    19  H    0.370276
    20  C   -0.084706
    21  H    0.199882
    22  C    0.646059
    23  C   -0.344893
    24  H    0.166905
    25  H    0.175112
    26  O   -0.553199
    27  C    0.143018
    28  C   -0.217376
    29  H    0.141172
    30  C   -0.180709
    31  H    0.144443
    32  C   -0.159609
    33  H    0.161707
    34  C   -0.191896
    35  H    0.141028
    36  O   -0.628650
    37  H    0.417734
    38  C    0.352218
    39  N   -0.602992
    40  H    0.355318
    41  C    0.013817
    42  H    0.196794
    43  C    0.596907
    44  C   -0.319858
    45  H    0.159188
    46  H    0.156634
    47  O   -0.505530
    48  C   -0.260497
    49  H    0.177354
    50  H    0.141821
    51  C   -0.256636
    52  H    0.128723
    53  H    0.135898
    54  C   -0.142717
    55  H    0.127764
    56  H    0.141976
    57  N   -0.717162
    58  H    0.306857
    59  H    0.296265
    60  O   -0.562668
    61  H    0.432044
    62  H    0.431344
 Sum of Mulliken charges =   1.00000

 Dipole moment (field-independent basis, Debye):
    X=             -4.6435    Y=             -3.6629    Z=              4.6536  Tot=              7.5256
 Quadrupole moment (field-independent basis, Debye-Ang):
   XX=           -106.2878   YY=           -152.5176   ZZ=           -120.9699
   XY=             42.8514   XZ=            -48.5784   YZ=            -17.8079

 Normal termination of Gaussian 16 at Wed Jun  1 23:25:18 2022.
