 Gaussian 16, Revision C.01,
 Gaussian 16:  ES64L-G16RevC.01  3-Jul-2019

 ----------------------------------------------------------------------
 # B3LYP/6-31G* empiricaldispersion=gd3 guess=read geom=check nosymm in
 tegral(ultrafinegrid)
 ----------------------------------------------------------------------

 ------------------------------------------------------
 Candidate Structure: Conf:446 Charge calc in gas phase
 ------------------------------------------------------
 Structure from the checkpoint file:  "conf-446.chk"
 Charge =  1 Multiplicity = 1

                          Input orientation:
 ---------------------------------------------------------------------
 Center     Atomic      Atomic             Coordinates (Angstroms)
 Number     Number       Type             X           Y           Z
 ---------------------------------------------------------------------
      1          7           0        0.391881   -2.753062    2.866984
      2          1           0        0.971724   -1.894014    2.725062
      3          1           0        0.656627   -3.251724    3.721051
      4          1           0        0.541626   -3.345906    2.038405
      5          6           0       -1.051835   -2.282764    2.854585
      6          1           0       -1.145102   -1.567309    3.667814
      7          6           0       -1.112518   -1.596515    1.471283
      8          6           0       -2.024206   -3.451281    3.012840
      9          1           0       -1.913414   -3.888173    4.012853
     10          1           0       -1.772193   -4.226491    2.279550
     11          8           0       -0.665969   -2.225246    0.516863
     12          6           0       -3.493454   -3.048389    2.775119
     13          1           0       -4.142457   -3.912375    2.932353
     14          1           0       -3.623512   -2.737402    1.729752
     15          6           0       -3.967964   -1.888101    3.630584
     16          8           0       -3.327483   -0.869813    3.837650
     17          8           0       -5.197980   -2.088201    4.113361
     18          7           0       -1.550546   -0.309910    1.446815
     19          1           0       -1.908308    0.021242    2.337030
     20          6           0       -0.776788    0.667461    0.676881
     21          1           0       -1.172148    1.649495    0.956713
     22          6           0        0.693177    0.617579    1.202846
     23          6           0       -0.949291    0.491564   -0.853939
     24          1           0       -0.572630   -0.493795   -1.133757
     25          1           0       -2.032099    0.476184   -1.030607
     26          8           0        1.065533   -0.223450    2.041249
     27          6           0       -0.289975    1.564356   -1.695460
     28          6           0       -0.564236    2.930662   -1.508226
     29          1           0       -1.290036    3.242872   -0.759790
     30          6           0        0.622359    1.213546   -2.696949
     31          1           0        0.852338    0.165348   -2.869199
     32          6           0        0.069309    3.910599   -2.268908
     33          1           0       -0.140687    4.964627   -2.119792
     34          6           0        1.242973    2.180221   -3.487100
     35          1           0        1.941792    1.880929   -4.264353
     36          8           0        1.571321    4.536116   -3.978779
     37          1           0        2.178716    4.158041   -4.634328
     38          6           0        0.978354    3.536036   -3.266273
     39          7           0        1.516638    1.574871    0.765173
     40          1           0        1.168476    2.259092    0.103253
     41          6           0        2.861943    1.750885    1.310200
     42          1           0        3.450523    0.846892    1.129285
     43          6           0        2.843585    1.943649    2.826394
     44          6           0        3.528013    2.968604    0.643293
     45          1           0        2.858288    3.831598    0.763650
     46          1           0        4.442445    3.205589    1.197637
     47          8           0        3.717240    1.553673    3.561977
     48          6           0        3.861100    2.747387   -0.839324
     49          1           0        3.025773    2.250387   -1.349172
     50          1           0        4.716834    2.062371   -0.913950
     51          6           0        4.166854    4.065377   -1.558031
     52          1           0        3.257370    4.683655   -1.559871
     53          1           0        4.930875    4.637127   -1.017112
     54          6           0        4.632776    3.871440   -3.002576
     55          1           0        5.619084    3.390804   -3.006119
     56          1           0        3.946500    3.159104   -3.503293
     57          7           0        4.756257    5.168694   -3.663267
     58          1           0        3.843905    5.613961   -3.742314
     59          1           0        5.140759    5.075340   -4.600348
     60          8           0        1.780138    2.675045    3.237870
     61          1           0        1.895180    2.812582    4.197402
     62          1           0       -5.462487   -1.290640    4.613200
 ---------------------------------------------------------------------

 SCF Done:  E(RB3LYP) =  -1526.29005725     A.U. after    1 cycles

 Alpha  occ. eigenvalues --  -19.31908 -19.28860 -19.27108 -19.26736 -19.25933
 Alpha  occ. eigenvalues --  -19.25196 -19.22880 -14.59311 -14.48435 -14.47934
 Alpha  occ. eigenvalues --  -14.37511 -10.45049 -10.42926 -10.41527 -10.41122
 Alpha  occ. eigenvalues --  -10.39536 -10.36268 -10.34574 -10.34477 -10.33881
 Alpha  occ. eigenvalues --  -10.33357 -10.29806 -10.29184 -10.29013 -10.28772
 Alpha  occ. eigenvalues --  -10.28493 -10.28437 -10.28211 -10.27667 -10.26616
 Alpha  occ. eigenvalues --  -10.25149  -1.23087  -1.19666  -1.18650  -1.16112
 Alpha  occ. eigenvalues --   -1.15166  -1.14033  -1.13425  -1.10682  -1.05685
 Alpha  occ. eigenvalues --   -1.04631  -0.95381  -0.94859  -0.94448  -0.90841
 Alpha  occ. eigenvalues --   -0.88797  -0.86914  -0.84665  -0.84435  -0.82968
 Alpha  occ. eigenvalues --   -0.79563  -0.77593  -0.76488  -0.74172  -0.73204
 Alpha  occ. eigenvalues --   -0.72858  -0.71753  -0.70654  -0.70502  -0.69650
 Alpha  occ. eigenvalues --   -0.69097  -0.68051  -0.65957  -0.65923  -0.64223
 Alpha  occ. eigenvalues --   -0.63934  -0.63308  -0.61688  -0.60923  -0.60272
 Alpha  occ. eigenvalues --   -0.59096  -0.58412  -0.58162  -0.57522  -0.56585
 Alpha  occ. eigenvalues --   -0.56307  -0.55947  -0.55926  -0.55524  -0.54764
 Alpha  occ. eigenvalues --   -0.54181  -0.53619  -0.53216  -0.52885  -0.52287
 Alpha  occ. eigenvalues --   -0.52070  -0.51863  -0.51592  -0.50781  -0.50294
 Alpha  occ. eigenvalues --   -0.49898  -0.49450  -0.49110  -0.48916  -0.48488
 Alpha  occ. eigenvalues --   -0.48251  -0.47341  -0.46656  -0.46037  -0.45067
 Alpha  occ. eigenvalues --   -0.44167  -0.43635  -0.43154  -0.42420  -0.41968
 Alpha  occ. eigenvalues --   -0.41213  -0.40521  -0.40428  -0.40330  -0.39978
 Alpha  occ. eigenvalues --   -0.39594  -0.38927  -0.37847  -0.35700  -0.34914
 Alpha  occ. eigenvalues --   -0.31485  -0.29496
 Alpha virt. eigenvalues --   -0.13608  -0.12112  -0.10940  -0.10222  -0.09010
 Alpha virt. eigenvalues --   -0.08715  -0.07822  -0.03965  -0.03235  -0.02947
 Alpha virt. eigenvalues --   -0.02614  -0.02420  -0.01344  -0.00027   0.00146

 Mulliken charges:
               1
     1  N   -0.752235
     2  H    0.456477
     3  H    0.406430
     4  H    0.413945
     5  C   -0.100450
     6  H    0.226413
     7  C    0.602739
     8  C   -0.287570
     9  H    0.179760
    10  H    0.187522
    11  O   -0.509506
    12  C   -0.379644
    13  H    0.214551
    14  H    0.217347
    15  C    0.605922
    16  O   -0.486312
    17  O   -0.532767
    18  N   -0.575124
    19  H    0.372903
    20  C   -0.115926
    21  H    0.190365
    22  C    0.672037
    23  C   -0.344424
    24  H    0.197837
    25  H    0.182110
    26  O   -0.598627
    27  C    0.138963
    28  C   -0.229402
    29  H    0.141569
    30  C   -0.191398
    31  H    0.148656
    32  C   -0.156176
    33  H    0.166879
    34  C   -0.186749
    35  H    0.148032
    36  O   -0.638372
    37  H    0.418596
    38  C    0.369587
    39  N   -0.611186
    40  H    0.371705
    41  C    0.000183
    42  H    0.189022
    43  C    0.585820
    44  C   -0.321124
    45  H    0.160203
    46  H    0.186101
    47  O   -0.451361
    48  C   -0.287022
    49  H    0.146415
    50  H    0.148880
    51  C   -0.252343
    52  H    0.138024
    53  H    0.161675
    54  C   -0.133584
    55  H    0.151026
    56  H    0.081791
    57  N   -0.726188
    58  H    0.305642
    59  H    0.302730
    60  O   -0.574313
    61  H    0.421270
    62  H    0.432672
 Sum of Mulliken charges =   1.00000

 Dipole moment (field-independent basis, Debye):
    X=             -2.9585    Y=             -4.9123    Z=              8.0685  Tot=              9.8986
 Quadrupole moment (field-independent basis, Debye-Ang):
   XX=           -154.9794   YY=           -138.2278   ZZ=           -115.6327
   XY=              7.9563   XZ=            -35.4892   YZ=            -37.8911

 Normal termination of Gaussian 16 at Wed Jun  1 23:31:22 2022.
