 Gaussian 16, Revision C.01,
 Gaussian 16:  ES64L-G16RevC.01  3-Jul-2019

 ----------------------------------------------------------------------
 # B3LYP/6-31G* empiricaldispersion=gd3 guess=read geom=check nosymm in
 tegral(ultrafinegrid)
 ----------------------------------------------------------------------

 -----------------------------------------------------
 Candidate Structure: Conf:34 Charge calc in gas phase
 -----------------------------------------------------
 Structure from the checkpoint file:  "conf-34.chk"
 Charge =  1 Multiplicity = 1

                          Input orientation:
 ---------------------------------------------------------------------
 Center     Atomic      Atomic             Coordinates (Angstroms)
 Number     Number       Type             X           Y           Z
 ---------------------------------------------------------------------
      1          7           0        0.159994   -1.796266    2.929979
      2          1           0        0.581891   -0.906238    2.537530
      3          1           0        0.350146   -1.908454    3.929923
      4          1           0        0.596787   -2.570397    2.413911
      5          6           0       -1.328870   -1.786083    2.598881
      6          1           0       -1.774542   -1.016430    3.236304
      7          6           0       -1.266114   -1.377196    1.108445
      8          6           0       -1.942303   -3.155953    2.842325
      9          1           0       -1.783497   -3.465671    3.881337
     10          1           0       -1.438178   -3.888131    2.202371
     11          8           0       -0.749226   -2.167332    0.332075
     12          6           0       -3.441082   -3.164900    2.531986
     13          1           0       -3.634015   -2.940587    1.476158
     14          1           0       -3.983843   -2.409079    3.114519
     15          6           0       -4.041299   -4.523322    2.852162
     16          8           0       -3.433718   -5.439304    3.357891
     17          8           0       -5.340566   -4.570390    2.504711
     18          7           0       -1.647713   -0.101924    0.823592
     19          1           0       -1.970595    0.436853    1.618052
     20          6           0       -0.895023    0.697034   -0.149351
     21          1           0       -1.357013    1.689673   -0.133180
     22          6           0        0.543312    0.897890    0.416356
     23          6           0       -0.999635    0.149258   -1.598263
     24          1           0       -0.549857   -0.843815   -1.634113
     25          1           0       -2.072258    0.019684   -1.789744
     26          8           0        0.941450    0.331173    1.451764
     27          6           0       -0.365963    1.055815   -2.630697
     28          6           0       -0.782806    2.388741   -2.798032
     29          1           0       -1.629310    2.768116   -2.227753
     30          6           0        0.696402    0.602386   -3.421220
     31          1           0        1.028364   -0.429169   -3.328864
     32          6           0       -0.126081    3.250106   -3.671808
     33          1           0       -0.437269    4.283792   -3.783631
     34          6           0        1.342356    1.443518   -4.325379
     35          1           0        2.146799    1.062887   -4.946499
     36          8           0        1.594102    3.675520   -5.230742
     37          1           0        2.510505    3.347155   -5.480520
     38          6           0        0.962977    2.792432   -4.436441
     39          7           0        1.310428    1.783049   -0.231262
     40          1           0        0.919666    2.250441   -1.043218
     41          6           0        2.518705    2.341272    0.360335
     42          1           0        3.167040    1.523256    0.690821
     43          6           0        2.133529    3.154152    1.603747
     44          6           0        3.256288    3.212875   -0.673711
     45          1           0        2.548581    3.962765   -1.056130
     46          1           0        4.048502    3.764621   -0.159189
     47          8           0        1.004320    3.426977    1.939457
     48          6           0        3.833564    2.395214   -1.837227
     49          1           0        3.095089    1.653868   -2.164611
     50          1           0        4.711258    1.833927   -1.488357
     51          6           0        4.193553    3.272193   -3.042778
     52          1           0        3.294941    3.813350   -3.359108
     53          1           0        4.930766    4.033620   -2.755335
     54          6           0        4.713007    2.453468   -4.237740
     55          1           0        5.805204    2.337579   -4.178909
     56          1           0        4.286917    1.444897   -4.205453
     57          7           0        4.274409    3.060094   -5.515287
     58          1           0        4.629206    2.519799   -6.303951
     59          1           0        4.675986    3.993636   -5.611292
     60          8           0        3.237408    3.538597    2.274260
     61          1           0        2.945752    4.079177    3.033019
     62          1           0       -5.673949   -5.458614    2.736507
 ---------------------------------------------------------------------

 SCF Done:  E(RB3LYP) =  -1526.30148531     A.U. after    1 cycles

 Alpha  occ. eigenvalues --  -19.29562 -19.28904 -19.26000 -19.25510 -19.23974
 Alpha  occ. eigenvalues --  -19.23537 -19.22456 -14.59229 -14.49668 -14.47786
 Alpha  occ. eigenvalues --  -14.42471 -10.43210 -10.41988 -10.41963 -10.41791
 Alpha  occ. eigenvalues --  -10.40258 -10.36190 -10.34525 -10.32843 -10.32513
 Alpha  occ. eigenvalues --  -10.31892 -10.30014 -10.29346 -10.29095 -10.27813
 Alpha  occ. eigenvalues --  -10.27702 -10.27506 -10.27476 -10.26811 -10.26631
 Alpha  occ. eigenvalues --  -10.26528  -1.20519  -1.19950  -1.18717  -1.16403
 Alpha  occ. eigenvalues --   -1.13502  -1.11634  -1.11213  -1.11178  -1.06340
 Alpha  occ. eigenvalues --   -1.04760  -0.98139  -0.94423  -0.93780  -0.91037
 Alpha  occ. eigenvalues --   -0.88849  -0.86173  -0.85424  -0.82948  -0.82253
 Alpha  occ. eigenvalues --   -0.78911  -0.78311  -0.75933  -0.74092  -0.73852
 Alpha  occ. eigenvalues --   -0.72063  -0.71608  -0.70273  -0.69763  -0.69532
 Alpha  occ. eigenvalues --   -0.68223  -0.67734  -0.66814  -0.65960  -0.63448
 Alpha  occ. eigenvalues --   -0.63024  -0.61746  -0.60905  -0.60468  -0.59792
 Alpha  occ. eigenvalues --   -0.58480  -0.58139  -0.58090  -0.57445  -0.57254
 Alpha  occ. eigenvalues --   -0.56825  -0.56117  -0.55494  -0.55083  -0.54646
 Alpha  occ. eigenvalues --   -0.54341  -0.53930  -0.53535  -0.52907  -0.51846
 Alpha  occ. eigenvalues --   -0.51538  -0.51311  -0.50262  -0.50152  -0.49994
 Alpha  occ. eigenvalues --   -0.49693  -0.49237  -0.49012  -0.47870  -0.47812
 Alpha  occ. eigenvalues --   -0.47408  -0.47019  -0.46005  -0.45920  -0.45023
 Alpha  occ. eigenvalues --   -0.43588  -0.43024  -0.42676  -0.42443  -0.41673
 Alpha  occ. eigenvalues --   -0.41338  -0.41198  -0.40571  -0.39744  -0.39395
 Alpha  occ. eigenvalues --   -0.38718  -0.38171  -0.37267  -0.36979  -0.34760
 Alpha  occ. eigenvalues --   -0.33563  -0.29315
 Alpha virt. eigenvalues --   -0.13922  -0.10876  -0.09326  -0.08920  -0.08863
 Alpha virt. eigenvalues --   -0.08533  -0.07414  -0.06178  -0.03900  -0.02187
 Alpha virt. eigenvalues --   -0.01807  -0.01312  -0.00296  -0.00035   0.00051

 Mulliken charges:
               1
     1  N   -0.761192
     2  H    0.457730
     3  H    0.407913
     4  H    0.416151
     5  C   -0.115761
     6  H    0.192070
     7  C    0.607486
     8  C   -0.268324
     9  H    0.181861
    10  H    0.199946
    11  O   -0.489364
    12  C   -0.379486
    13  H    0.207881
    14  H    0.190529
    15  C    0.596893
    16  O   -0.446098
    17  O   -0.557767
    18  N   -0.565997
    19  H    0.347549
    20  C   -0.116545
    21  H    0.197644
    22  C    0.674999
    23  C   -0.345003
    24  H    0.198214
    25  H    0.179588
    26  O   -0.600319
    27  C    0.124659
    28  C   -0.225041
    29  H    0.134904
    30  C   -0.188055
    31  H    0.138429
    32  C   -0.164782
    33  H    0.157454
    34  C   -0.195655
    35  H    0.142257
    36  O   -0.681080
    37  H    0.463440
    38  C    0.368344
    39  N   -0.592858
    40  H    0.376513
    41  C   -0.035290
    42  H    0.194677
    43  C    0.596389
    44  C   -0.310881
    45  H    0.159075
    46  H    0.186511
    47  O   -0.466082
    48  C   -0.282172
    49  H    0.159891
    50  H    0.148264
    51  C   -0.285644
    52  H    0.168126
    53  H    0.149786
    54  C   -0.141542
    55  H    0.151927
    56  H    0.151754
    57  N   -0.772516
    58  H    0.331248
    59  H    0.332444
    60  O   -0.560503
    61  H    0.426135
    62  H    0.429277
 Sum of Mulliken charges =   1.00000

 Dipole moment (field-independent basis, Debye):
    X=              3.8067    Y=              0.1229    Z=              5.7587  Tot=              6.9043
 Quadrupole moment (field-independent basis, Debye-Ang):
   XX=           -119.0214   YY=           -153.1406   ZZ=           -120.2605
   XY=             34.6629   XZ=            -37.2629   YZ=            -22.9146

 Normal termination of Gaussian 16 at Wed Jun  1 23:25:11 2022.
