 Gaussian 16, Revision C.01,
 Gaussian 16:  ES64L-G16RevC.01  3-Jul-2019

 ----------------------------------------------------------------------
 # B3LYP/6-31G* empiricaldispersion=gd3 guess=read geom=check nosymm in
 tegral(ultrafinegrid)
 ----------------------------------------------------------------------

 ------------------------------------------------------
 Candidate Structure: Conf:538 Charge calc in gas phase
 ------------------------------------------------------
 Structure from the checkpoint file:  "conf-538.chk"
 Charge =  1 Multiplicity = 1

                          Input orientation:
 ---------------------------------------------------------------------
 Center     Atomic      Atomic             Coordinates (Angstroms)
 Number     Number       Type             X           Y           Z
 ---------------------------------------------------------------------
      1          7           0        0.722208   -1.400521    2.791657
      2          1           0        1.441173   -0.668519    2.603890
      3          1           0        0.648664   -1.605243    3.790932
      4          1           0        1.045656   -2.227221    2.259570
      5          6           0       -0.595688   -1.004921    2.159231
      6          1           0       -0.822499    0.009115    2.499716
      7          6           0       -0.266816   -1.058600    0.654170
      8          6           0       -1.706681   -1.997728    2.503902
      9          1           0       -1.395522   -3.003680    2.198761
     10          1           0       -2.565863   -1.766210    1.865988
     11          8           0        0.582583   -1.866426    0.281421
     12          6           0       -2.156748   -1.999590    3.965579
     13          1           0       -2.481412   -1.003282    4.291518
     14          1           0       -1.367589   -2.308706    4.664740
     15          6           0       -3.325100   -2.960322    4.148048
     16          8           0       -3.838948   -3.589169    3.251613
     17          8           0       -3.706389   -3.013408    5.435777
     18          7           0       -0.899943   -0.178326   -0.141637
     19          1           0       -1.734048    0.278434    0.205037
     20          6           0       -0.669491   -0.178643   -1.600478
     21          1           0       -1.191063    0.709532   -1.973700
     22          6           0        0.845789    0.002037   -1.865470
     23          6           0       -1.238149   -1.436659   -2.294290
     24          1           0       -1.179839   -1.268182   -3.373632
     25          1           0       -0.579918   -2.279414   -2.070801
     26          8           0        1.421461   -0.593339   -2.755889
     27          6           0       -2.651750   -1.706327   -1.833556
     28          6           0       -2.897646   -2.593162   -0.773714
     29          1           0       -2.070062   -3.168170   -0.363529
     30          6           0       -3.741030   -1.006096   -2.364796
     31          1           0       -3.587788   -0.320380   -3.195563
     32          6           0       -4.172417   -2.765511   -0.240105
     33          1           0       -4.352482   -3.443123    0.588654
     34          6           0       -5.028454   -1.173810   -1.853965
     35          1           0       -5.862685   -0.627196   -2.288933
     36          8           0       -6.473230   -2.247876   -0.222206
     37          1           0       -7.146174   -1.759065   -0.721672
     38          6           0       -5.247771   -2.049392   -0.783081
     39          7           0        1.455558    0.905090   -1.027463
     40          1           0        0.907928    1.256386   -0.254782
     41          6           0        2.890367    0.901005   -0.829582
     42          1           0        3.300705    0.108881   -1.466078
     43          6           0        3.192448    0.530938    0.618238
     44          6           0        3.567255    2.239505   -1.209443
     45          1           0        4.650567    2.108372   -1.125583
     46          1           0        3.340847    2.413826   -2.267198
     47          8           0        2.354233    0.422197    1.509707
     48          6           0        3.094723    3.431582   -0.367326
     49          1           0        3.377963    3.277060    0.685714
     50          1           0        1.997483    3.474892   -0.393135
     51          6           0        3.649749    4.779207   -0.850795
     52          1           0        3.364068    4.951277   -1.895883
     53          1           0        3.179286    5.582077   -0.265917
     54          6           0        5.171977    4.914111   -0.732197
     55          1           0        5.473396    4.670905    0.306538
     56          1           0        5.661893    4.174787   -1.377733
     57          7           0        5.589872    6.238333   -1.192423
     58          1           0        6.605563    6.304486   -1.208260
     59          1           0        5.266747    6.952655   -0.541357
     60          8           0        4.497369    0.373064    0.831185
     61          1           0        4.647657    0.187828    1.777675
     62          1           0       -4.459830   -3.632414    5.496990
 ---------------------------------------------------------------------

 SCF Done:  E(RB3LYP) =  -1526.28083785     A.U. after    3 cycles

 Alpha  occ. eigenvalues --  -19.33298 -19.30540 -19.28798 -19.27067 -19.25736
 Alpha  occ. eigenvalues --  -19.25287 -19.21890 -14.60342 -14.50809 -14.46186
 Alpha  occ. eigenvalues --  -14.37330 -10.46178 -10.44157 -10.43721 -10.41423
 Alpha  occ. eigenvalues --  -10.39292 -10.35216 -10.34773 -10.34295 -10.33987
 Alpha  occ. eigenvalues --  -10.33318 -10.28418 -10.28213 -10.27803 -10.27753
 Alpha  occ. eigenvalues --  -10.27707 -10.27553 -10.27477 -10.27420 -10.26811
 Alpha  occ. eigenvalues --  -10.25510  -1.24649  -1.21632  -1.19806  -1.15667
 Alpha  occ. eigenvalues --   -1.14638  -1.13883  -1.13822  -1.12892  -1.07243
 Alpha  occ. eigenvalues --   -1.03215  -0.95653  -0.94306  -0.94010  -0.90707
 Alpha  occ. eigenvalues --   -0.89369  -0.87297  -0.85085  -0.83272  -0.82566
 Alpha  occ. eigenvalues --   -0.79440  -0.78234  -0.76135  -0.75206  -0.74708
 Alpha  occ. eigenvalues --   -0.73551  -0.72581  -0.71105  -0.70909  -0.70314
 Alpha  occ. eigenvalues --   -0.68616  -0.67766  -0.66299  -0.65094  -0.64612
 Alpha  occ. eigenvalues --   -0.63747  -0.63292  -0.62760  -0.61420  -0.60587
 Alpha  occ. eigenvalues --   -0.59685  -0.59230  -0.58995  -0.58532  -0.57391
 Alpha  occ. eigenvalues --   -0.56450  -0.55851  -0.55474  -0.55183  -0.54898
 Alpha  occ. eigenvalues --   -0.54279  -0.53869  -0.53226  -0.52966  -0.52223
 Alpha  occ. eigenvalues --   -0.51573  -0.51471  -0.51086  -0.50962  -0.50386
 Alpha  occ. eigenvalues --   -0.49926  -0.49502  -0.49331  -0.48851  -0.48407
 Alpha  occ. eigenvalues --   -0.47667  -0.46889  -0.46260  -0.45472  -0.45292
 Alpha  occ. eigenvalues --   -0.44815  -0.43784  -0.42850  -0.42387  -0.42030
 Alpha  occ. eigenvalues --   -0.41713  -0.41267  -0.41073  -0.40964  -0.40244
 Alpha  occ. eigenvalues --   -0.39940  -0.38945  -0.36093  -0.35486  -0.33794
 Alpha  occ. eigenvalues --   -0.30143  -0.29553
 Alpha virt. eigenvalues --   -0.13845  -0.12773  -0.11212  -0.09649  -0.09201
 Alpha virt. eigenvalues --   -0.08613  -0.07499  -0.05908  -0.05164  -0.04419
 Alpha virt. eigenvalues --   -0.03860  -0.02221  -0.01073  -0.00597  -0.00389

 Mulliken charges:
               1
     1  N   -0.754146
     2  H    0.445497
     3  H    0.405491
     4  H    0.417711
     5  C   -0.138385
     6  H    0.203052
     7  C    0.680697
     8  C   -0.289825
     9  H    0.195495
    10  H    0.220497
    11  O   -0.528035
    12  C   -0.381801
    13  H    0.201451
    14  H    0.170277
    15  C    0.601288
    16  O   -0.434765
    17  O   -0.556402
    18  N   -0.626467
    19  H    0.356242
    20  C   -0.067632
    21  H    0.190087
    22  C    0.630676
    23  C   -0.361669
    24  H    0.188174
    25  H    0.193660
    26  O   -0.484724
    27  C    0.158142
    28  C   -0.225380
    29  H    0.133945
    30  C   -0.201530
    31  H    0.141166
    32  C   -0.176093
    33  H    0.178645
    34  C   -0.190027
    35  H    0.139571
    36  O   -0.631072
    37  H    0.416698
    38  C    0.347761
    39  N   -0.590444
    40  H    0.330756
    41  C   -0.071559
    42  H    0.229150
    43  C    0.621974
    44  C   -0.263314
    45  H    0.174115
    46  H    0.179843
    47  O   -0.544085
    48  C   -0.285762
    49  H    0.127198
    50  H    0.132242
    51  C   -0.250045
    52  H    0.161280
    53  H    0.135397
    54  C   -0.133811
    55  H    0.106676
    56  H    0.145210
    57  N   -0.713615
    58  H    0.306179
    59  H    0.298047
    60  O   -0.522531
    61  H    0.424832
    62  H    0.433997
 Sum of Mulliken charges =   1.00000

 Dipole moment (field-independent basis, Debye):
    X=             -0.2086    Y=             -0.1770    Z=             12.9546  Tot=             12.9575
 Quadrupole moment (field-independent basis, Debye-Ang):
   XX=           -114.5414   YY=           -165.6636   ZZ=           -136.7352
   XY=             11.7753   XZ=             15.2180   YZ=            -20.2782

 Normal termination of Gaussian 16 at Wed Jun  1 23:31:43 2022.
