 Gaussian 16, Revision C.01,
 Gaussian 16:  ES64L-G16RevC.01  3-Jul-2019

 ----------------------------------------------------------------------
 # B3LYP/6-31G* empiricaldispersion=gd3 guess=read geom=check nosymm in
 tegral(ultrafinegrid)
 ----------------------------------------------------------------------

 ------------------------------------------------------
 Candidate Structure: Conf:474 Charge calc in gas phase
 ------------------------------------------------------
 Structure from the checkpoint file:  "conf-474.chk"
 Charge =  1 Multiplicity = 1

                          Input orientation:
 ---------------------------------------------------------------------
 Center     Atomic      Atomic             Coordinates (Angstroms)
 Number     Number       Type             X           Y           Z
 ---------------------------------------------------------------------
      1          7           0       -0.462778   -2.224185    2.873254
      2          1           0        0.172697   -1.458289    2.518653
      3          1           0       -0.237185   -2.491561    3.834992
      4          1           0       -0.321121   -3.028748    2.248819
      5          6           0       -1.896139   -1.731331    2.695635
      6          1           0       -2.022177   -0.919536    3.418108
      7          6           0       -1.826955   -1.242263    1.229168
      8          6           0       -2.908840   -2.848767    2.914154
      9          1           0       -2.749754   -3.626595    2.160239
     10          1           0       -3.898687   -2.419999    2.716345
     11          8           0       -1.562664   -2.080831    0.380117
     12          6           0       -2.884044   -3.446464    4.332416
     13          1           0       -3.042369   -2.678285    5.094116
     14          1           0       -1.925513   -3.945438    4.530755
     15          6           0       -3.977131   -4.489634    4.512027
     16          8           0       -4.881053   -4.416603    5.305826
     17          8           0       -3.802748   -5.512646    3.643084
     18          7           0       -1.919596    0.103287    1.031627
     19          1           0       -2.063694    0.645727    1.874709
     20          6           0       -1.030072    0.763737    0.066679
     21          1           0       -1.246315    1.834092    0.148483
     22          6           0        0.430766    0.570142    0.575772
     23          6           0       -1.307291    0.334460   -1.399308
     24          1           0       -1.137050   -0.738909   -1.487318
     25          1           0       -2.381364    0.496674   -1.555335
     26          8           0        0.709255   -0.183171    1.529298
     27          6           0       -0.490040    1.076266   -2.435393
     28          6           0        0.318836    0.364587   -3.334348
     29          1           0        0.340592   -0.721531   -3.285367
     30          6           0       -0.505516    2.476148   -2.539506
     31          1           0       -1.157299    3.063804   -1.894393
     32          6           0        1.102976    1.014593   -4.280911
     33          1           0        1.738467    0.458558   -4.962589
     34          6           0        0.291026    3.143164   -3.471451
     35          1           0        0.259729    4.226315   -3.544525
     36          8           0        1.967844    3.004358   -5.213512
     37          1           0        2.258407    3.902616   -4.869066
     38          6           0        1.129281    2.417779   -4.338914
     39          7           0        1.368487    1.322474   -0.005225
     40          1           0        1.105637    1.899280   -0.797679
     41          6           0        2.761624    1.322696    0.443454
     42          1           0        3.195037    0.328748    0.296864
     43          6           0        2.880820    1.619684    1.937655
     44          6           0        3.563501    2.380288   -0.342983
     45          1           0        3.085828    3.353322   -0.171522
     46          1           0        4.565713    2.438966    0.096097
     47          8           0        3.718686    1.129708    2.654290
     48          6           0        3.659084    2.062997   -1.842270
     49          1           0        2.675720    1.780742   -2.232642
     50          1           0        4.298297    1.181864   -1.979353
     51          6           0        4.188989    3.219357   -2.706500
     52          1           0        5.238162    3.426460   -2.461520
     53          1           0        4.163247    2.884386   -3.749475
     54          6           0        3.354291    4.513349   -2.588016
     55          1           0        2.362120    4.282277   -2.184888
     56          1           0        3.829253    5.213768   -1.885749
     57          7           0        3.126957    5.123374   -3.918094
     58          1           0        4.020517    5.315085   -4.372100
     59          1           0        2.661789    6.025371   -3.819334
     60          8           0        2.001800    2.568148    2.343914
     61          1           0        2.212594    2.753443    3.278830
     62          1           0       -4.529814   -6.148012    3.790657
 ---------------------------------------------------------------------

 SCF Done:  E(RB3LYP) =  -1526.28886017     A.U. after    2 cycles

 Alpha  occ. eigenvalues --  -19.29744 -19.29548 -19.26523 -19.26081 -19.24085
 Alpha  occ. eigenvalues --  -19.23574 -19.22446 -14.59685 -14.50135 -14.48604
 Alpha  occ. eigenvalues --  -14.42844 -10.43803 -10.42594 -10.42301 -10.41861
 Alpha  occ. eigenvalues --  -10.40912 -10.36876 -10.34677 -10.33959 -10.33045
 Alpha  occ. eigenvalues --  -10.32682 -10.30406 -10.29747 -10.29429 -10.28331
 Alpha  occ. eigenvalues --  -10.28278 -10.27678 -10.27665 -10.27287 -10.27097
 Alpha  occ. eigenvalues --  -10.26501  -1.20560  -1.20372  -1.19289  -1.16940
 Alpha  occ. eigenvalues --   -1.13972  -1.11815  -1.11380  -1.11278  -1.06817
 Alpha  occ. eigenvalues --   -1.05305  -0.98511  -0.94991  -0.94200  -0.91426
 Alpha  occ. eigenvalues --   -0.89422  -0.87079  -0.85638  -0.83259  -0.82559
 Alpha  occ. eigenvalues --   -0.78867  -0.78293  -0.76207  -0.74729  -0.73999
 Alpha  occ. eigenvalues --   -0.73095  -0.72097  -0.71351  -0.70533  -0.70311
 Alpha  occ. eigenvalues --   -0.69721  -0.67326  -0.66933  -0.66473  -0.63877
 Alpha  occ. eigenvalues --   -0.63599  -0.62058  -0.61659  -0.60430  -0.59599
 Alpha  occ. eigenvalues --   -0.59047  -0.58294  -0.58129  -0.57515  -0.57133
 Alpha  occ. eigenvalues --   -0.56772  -0.56348  -0.56135  -0.55547  -0.55331
 Alpha  occ. eigenvalues --   -0.54676  -0.54273  -0.54010  -0.53637  -0.53298
 Alpha  occ. eigenvalues --   -0.52426  -0.51568  -0.50924  -0.50512  -0.50339
 Alpha  occ. eigenvalues --   -0.49678  -0.49528  -0.49041  -0.48711  -0.48610
 Alpha  occ. eigenvalues --   -0.48025  -0.47545  -0.47359  -0.46371  -0.45165
 Alpha  occ. eigenvalues --   -0.44149  -0.43225  -0.42776  -0.42259  -0.41906
 Alpha  occ. eigenvalues --   -0.41637  -0.41316  -0.41055  -0.40141  -0.39505
 Alpha  occ. eigenvalues --   -0.39335  -0.38699  -0.37501  -0.36527  -0.35101
 Alpha  occ. eigenvalues --   -0.33949  -0.29622
 Alpha virt. eigenvalues --   -0.14436  -0.11432  -0.10732  -0.09398  -0.08665
 Alpha virt. eigenvalues --   -0.08491  -0.07747  -0.06654  -0.04310  -0.02341
 Alpha virt. eigenvalues --   -0.02319  -0.02127  -0.01667  -0.00948  -0.00389

 Mulliken charges:
               1
     1  N   -0.758939
     2  H    0.461214
     3  H    0.408780
     4  H    0.417565
     5  C   -0.112668
     6  H    0.193741
     7  C    0.616055
     8  C   -0.288566
     9  H    0.213486
    10  H    0.204153
    11  O   -0.488540
    12  C   -0.365484
    13  H    0.193229
    14  H    0.161626
    15  C    0.576253
    16  O   -0.420478
    17  O   -0.559797
    18  N   -0.565244
    19  H    0.344046
    20  C   -0.117232
    21  H    0.190031
    22  C    0.672801
    23  C   -0.347470
    24  H    0.202253
    25  H    0.183167
    26  O   -0.600368
    27  C    0.135284
    28  C   -0.189677
    29  H    0.142194
    30  C   -0.234157
    31  H    0.131521
    32  C   -0.162120
    33  H    0.157469
    34  C   -0.190247
    35  H    0.141868
    36  O   -0.679044
    37  H    0.461492
    38  C    0.369884
    39  N   -0.616001
    40  H    0.375960
    41  C    0.005111
    42  H    0.193195
    43  C    0.586482
    44  C   -0.322433
    45  H    0.164597
    46  H    0.183989
    47  O   -0.450434
    48  C   -0.297592
    49  H    0.160000
    50  H    0.156950
    51  C   -0.283203
    52  H    0.152757
    53  H    0.176455
    54  C   -0.143662
    55  H    0.145638
    56  H    0.150178
    57  N   -0.775907
    58  H    0.334300
    59  H    0.328698
    60  O   -0.575462
    61  H    0.420350
    62  H    0.431954
 Sum of Mulliken charges =   1.00000

 Dipole moment (field-independent basis, Debye):
    X=              0.1160    Y=              1.6117    Z=              7.3359  Tot=              7.5118
 Quadrupole moment (field-independent basis, Debye-Ang):
   XX=           -159.1500   YY=           -104.5122   ZZ=           -151.9037
   XY=             32.6650   XZ=            -23.1195   YZ=            -36.0102

 Normal termination of Gaussian 16 at Wed Jun  1 23:31:34 2022.
