 Gaussian 16, Revision C.01,
 Gaussian 16:  ES64L-G16RevC.01  3-Jul-2019

 ----------------------------------------------------------------------
 # B3LYP/6-31G* empiricaldispersion=gd3 guess=read geom=check nosymm in
 tegral(ultrafinegrid)
 ----------------------------------------------------------------------

 ------------------------------------------------------
 Candidate Structure: Conf:883 Charge calc in gas phase
 ------------------------------------------------------
 Structure from the checkpoint file:  "conf-883.chk"
 Charge =  1 Multiplicity = 1

                          Input orientation:
 ---------------------------------------------------------------------
 Center     Atomic      Atomic             Coordinates (Angstroms)
 Number     Number       Type             X           Y           Z
 ---------------------------------------------------------------------
      1          7           0        0.687874   -2.192123    3.282857
      2          1           0        1.304242   -1.357824    3.384376
      3          1           0        0.595487   -2.681158    4.177541
      4          1           0        1.135967   -2.796391    2.566084
      5          6           0       -0.643690   -1.788001    2.678652
      6          1           0       -0.948064   -0.865750    3.180258
      7          6           0       -0.244868   -1.536986    1.208520
      8          6           0       -1.703797   -2.877861    2.860308
      9          1           0       -2.632381   -2.514465    2.407953
     10          1           0       -1.927145   -2.989406    3.928714
     11          8           0        0.663400   -2.228272    0.744190
     12          6           0       -1.352256   -4.238791    2.247945
     13          1           0       -0.524416   -4.736886    2.767285
     14          1           0       -1.038059   -4.144523    1.201999
     15          6           0       -2.561738   -5.160391    2.292732
     16          8           0       -3.684059   -4.801667    2.567027
     17          8           0       -2.217372   -6.419356    1.972040
     18          7           0       -0.845952   -0.532484    0.551847
     19          1           0       -1.583220   -0.014453    1.011787
     20          6           0       -0.207297    0.055067   -0.651678
     21          1           0       -0.684987    1.031442   -0.789924
     22          6           0        1.294527    0.274867   -0.307185
     23          6           0       -0.401034   -0.778301   -1.933019
     24          1           0        0.286015   -1.627007   -1.898301
     25          1           0       -1.422924   -1.174063   -1.906713
     26          8           0        2.208080   -0.155111   -0.981035
     27          6           0       -0.197681    0.050443   -3.184658
     28          6           0        1.039401    0.098381   -3.844187
     29          1           0        1.871909   -0.476507   -3.453228
     30          6           0       -1.252427    0.813050   -3.700774
     31          1           0       -2.228824    0.781873   -3.219762
     32          6           0        1.218311    0.879820   -4.980007
     33          1           0        2.172231    0.913603   -5.496133
     34          6           0       -1.087782    1.604197   -4.836715
     35          1           0       -1.922725    2.182193   -5.227451
     36          8           0        0.393006    2.384303   -6.597038
     37          1           0       -0.418584    2.842378   -6.866026
     38          6           0        0.153976    1.638906   -5.482297
     39          7           0        1.502627    0.915629    0.901324
     40          1           0        0.783613    1.550508    1.227071
     41          6           0        2.870387    1.170642    1.348422
     42          1           0        3.434867    0.265455    1.088147
     43          6           0        2.885026    1.287690    2.867662
     44          6           0        3.533341    2.380317    0.668024
     45          1           0        3.284244    2.307721   -0.396096
     46          1           0        3.081803    3.303364    1.052707
     47          8           0        3.427211    2.142135    3.513718
     48          6           0        5.057824    2.427702    0.828419
     49          1           0        5.488064    1.489271    0.447524
     50          1           0        5.312314    2.491510    1.891956
     51          6           0        5.685235    3.609394    0.079966
     52          1           0        5.425790    3.545415   -0.986726
     53          1           0        5.249499    4.548874    0.452012
     54          6           0        7.219080    3.676057    0.221037
     55          1           0        7.659374    2.750130   -0.172896
     56          1           0        7.596799    4.488178   -0.411731
     57          7           0        7.750457    3.881533    1.568789
     58          1           0        7.485723    3.116158    2.185298
     59          1           0        7.363216    4.731572    1.976123
     60          8           0        2.185885    0.273626    3.529327
     61          1           0        2.322821    0.485162    4.474968
     62          1           0       -3.029418   -6.962235    1.988189
 ---------------------------------------------------------------------

 SCF Done:  E(RB3LYP) =  -1526.25436250     A.U. after    2 cycles

 Alpha  occ. eigenvalues --  -19.34700 -19.30373 -19.28156 -19.28110 -19.25025
 Alpha  occ. eigenvalues --  -19.24404 -19.24074 -14.61197 -14.51948 -14.48590
 Alpha  occ. eigenvalues --  -14.36799 -10.45851 -10.45157 -10.43517 -10.42435
 Alpha  occ. eigenvalues --  -10.41066 -10.36498 -10.36037 -10.35268 -10.33625
 Alpha  occ. eigenvalues --  -10.31873 -10.28712 -10.28337 -10.26674 -10.26600
 Alpha  occ. eigenvalues --  -10.26411 -10.26323 -10.26034 -10.25801 -10.25166
 Alpha  occ. eigenvalues --  -10.24824  -1.24443  -1.21449  -1.20897  -1.16197
 Alpha  occ. eigenvalues --   -1.15782  -1.15150  -1.12698  -1.12544  -1.08234
 Alpha  occ. eigenvalues --   -1.04816  -0.96173  -0.93651  -0.92985  -0.90934
 Alpha  occ. eigenvalues --   -0.89437  -0.87571  -0.84769  -0.82118  -0.81741
 Alpha  occ. eigenvalues --   -0.79971  -0.78616  -0.76051  -0.75511  -0.74972
 Alpha  occ. eigenvalues --   -0.74290  -0.72712  -0.71027  -0.70526  -0.69486
 Alpha  occ. eigenvalues --   -0.69108  -0.68245  -0.66517  -0.65343  -0.64673
 Alpha  occ. eigenvalues --   -0.63686  -0.63155  -0.62340  -0.61433  -0.61276
 Alpha  occ. eigenvalues --   -0.60689  -0.59915  -0.59050  -0.58797  -0.57619
 Alpha  occ. eigenvalues --   -0.56685  -0.56066  -0.55657  -0.55292  -0.54972
 Alpha  occ. eigenvalues --   -0.54394  -0.54007  -0.53799  -0.53005  -0.52373
 Alpha  occ. eigenvalues --   -0.52102  -0.51347  -0.50845  -0.50252  -0.49656
 Alpha  occ. eigenvalues --   -0.49512  -0.49226  -0.48995  -0.48262  -0.47434
 Alpha  occ. eigenvalues --   -0.47315  -0.47120  -0.46644  -0.45869  -0.44891
 Alpha  occ. eigenvalues --   -0.43549  -0.43330  -0.42823  -0.42671  -0.42042
 Alpha  occ. eigenvalues --   -0.41637  -0.41355  -0.40568  -0.40246  -0.39922
 Alpha  occ. eigenvalues --   -0.39782  -0.38769  -0.37917  -0.36539  -0.32157
 Alpha  occ. eigenvalues --   -0.28808  -0.28760
 Alpha virt. eigenvalues --   -0.15230  -0.13522  -0.11861  -0.10700  -0.09885
 Alpha virt. eigenvalues --   -0.07806  -0.07307  -0.06521  -0.06124  -0.04523
 Alpha virt. eigenvalues --   -0.03464  -0.02929  -0.01837  -0.00988  -0.00112

 Mulliken charges:
               1
     1  N   -0.771766
     2  H    0.446275
     3  H    0.406625
     4  H    0.428668
     5  C   -0.130788
     6  H    0.199867
     7  C    0.671979
     8  C   -0.286398
     9  H    0.216199
    10  H    0.187670
    11  O   -0.515639
    12  C   -0.389471
    13  H    0.173072
    14  H    0.226091
    15  C    0.596357
    16  O   -0.441461
    17  O   -0.554211
    18  N   -0.612790
    19  H    0.348737
    20  C   -0.066721
    21  H    0.184061
    22  C    0.629213
    23  C   -0.347979
    24  H    0.195523
    25  H    0.155022
    26  O   -0.470013
    27  C    0.137361
    28  C   -0.179032
    29  H    0.159845
    30  C   -0.193121
    31  H    0.118700
    32  C   -0.160291
    33  H    0.155319
    34  C   -0.190261
    35  H    0.131720
    36  O   -0.630845
    37  H    0.414369
    38  C    0.355247
    39  N   -0.629976
    40  H    0.325518
    41  C   -0.040498
    42  H    0.212059
    43  C    0.592622
    44  C   -0.262536
    45  H    0.174895
    46  H    0.148935
    47  O   -0.404017
    48  C   -0.278047
    49  H    0.140750
    50  H    0.147803
    51  C   -0.265337
    52  H    0.137396
    53  H    0.131199
    54  C   -0.147673
    55  H    0.144834
    56  H    0.155387
    57  N   -0.700276
    58  H    0.294761
    59  H    0.296582
    60  O   -0.632103
    61  H    0.427570
    62  H    0.433018
 Sum of Mulliken charges =   1.00000

 Dipole moment (field-independent basis, Debye):
    X=             -2.4879    Y=             -4.9045    Z=             12.4756  Tot=             13.6340
 Quadrupole moment (field-independent basis, Debye-Ang):
   XX=           -189.0076   YY=           -136.0334   ZZ=           -118.8747
   XY=             -3.2429   XZ=             16.4886   YZ=            -37.7362

 Normal termination of Gaussian 16 at Wed Jun  1 23:31:22 2022.
