 Gaussian 16, Revision C.01,
 Gaussian 16:  ES64L-G16RevC.01  3-Jul-2019

 ----------------------------------------------------------------------
 # B3LYP/6-31G* empiricaldispersion=gd3 guess=read geom=check nosymm in
 tegral(ultrafinegrid)
 ----------------------------------------------------------------------

 ------------------------------------------------------
 Candidate Structure: Conf:222 Charge calc in gas phase
 ------------------------------------------------------
 Structure from the checkpoint file:  "conf-222.chk"
 Charge =  1 Multiplicity = 1

                          Input orientation:
 ---------------------------------------------------------------------
 Center     Atomic      Atomic             Coordinates (Angstroms)
 Number     Number       Type             X           Y           Z
 ---------------------------------------------------------------------
      1          7           0       -0.224483   -1.853393    2.971891
      2          1           0        0.347616   -1.042446    2.613288
      3          1           0       -0.036271   -2.052451    3.958794
      4          1           0        0.042584   -2.667540    2.403463
      5          6           0       -1.689280   -1.540101    2.690249
      6          1           0       -1.953440   -0.711691    3.354391
      7          6           0       -1.596872   -1.120562    1.203736
      8          6           0       -2.555831   -2.766893    2.933144
      9          1           0       -2.430597   -3.124045    3.961472
     10          1           0       -2.226151   -3.571288    2.266692
     11          8           0       -1.203973   -1.966077    0.413466
     12          6           0       -4.035371   -2.471949    2.674356
     13          1           0       -4.213000   -2.185968    1.630697
     14          1           0       -4.399956   -1.639980    3.290901
     15          6           0       -4.882194   -3.694060    2.988431
     16          8           0       -4.451043   -4.724361    3.453193
     17          8           0       -6.174987   -3.474721    2.686903
     18          7           0       -1.827848    0.194901    0.925574
     19          1           0       -2.077720    0.758792    1.729087
     20          6           0       -0.964571    0.903555   -0.026935
     21          1           0       -1.305890    1.944194   -0.027555
     22          6           0        0.481993    0.900161    0.554792
     23          6           0       -1.091945    0.367305   -1.483539
     24          1           0       -0.814935   -0.687039   -1.496006
     25          1           0       -2.158193    0.422818   -1.733124
     26          8           0        0.805243    0.212325    1.542219
     27          6           0       -0.255646    1.147504   -2.473221
     28          6           0       -0.517915    2.501783   -2.743215
     29          1           0       -1.396161    2.978564   -2.311982
     30          6           0        0.866601    0.564320   -3.072786
     31          1           0        1.093199   -0.481698   -2.883027
     32          6           0        0.328825    3.257929   -3.549146
     33          1           0        0.129255    4.304432   -3.754479
     34          6           0        1.717236    1.303048   -3.894758
     35          1           0        2.584830    0.829469   -4.348761
     36          8           0        2.263381    3.454821   -4.881125
     37          1           0        2.988687    2.930315   -5.255714
     38          6           0        1.458753    2.659919   -4.124220
     39          7           0        1.355453    1.710731   -0.044668
     40          1           0        1.050447    2.258044   -0.841011
     41          6           0        2.765637    1.779582    0.330591
     42          1           0        3.175546    0.765934    0.362404
     43          6           0        2.965933    2.357428    1.729076
     44          6           0        3.511018    2.622078   -0.724787
     45          1           0        3.201138    2.245541   -1.706431
     46          1           0        3.162147    3.661765   -0.656530
     47          8           0        3.866721    2.034387    2.465448
     48          6           0        5.038426    2.564961   -0.603112
     49          1           0        5.368115    1.525351   -0.739497
     50          1           0        5.339338    2.848536    0.411691
     51          6           0        5.758611    3.468556   -1.614682
     52          1           0        5.463321    4.514855   -1.444383
     53          1           0        6.838593    3.418335   -1.437421
     54          6           0        5.513410    3.110330   -3.085419
     55          1           0        5.747348    2.046820   -3.235558
     56          1           0        4.441411    3.239913   -3.327994
     57          7           0        6.409757    3.890164   -3.942527
     58          1           0        6.167468    4.878719   -3.889993
     59          1           0        6.301630    3.620980   -4.918460
     60          8           0        2.064877    3.325405    2.018916
     61          1           0        2.318773    3.686351    2.889876
     62          1           0       -6.670849   -4.285359    2.912606
 ---------------------------------------------------------------------

 SCF Done:  E(RB3LYP) =  -1526.27595877     A.U. after    3 cycles

 Alpha  occ. eigenvalues --  -19.29368 -19.29332 -19.27460 -19.26800 -19.26170
 Alpha  occ. eigenvalues --  -19.23967 -19.23446 -14.59816 -14.50464 -14.48667
 Alpha  occ. eigenvalues --  -14.37680 -10.44026 -10.42407 -10.42407 -10.41626
 Alpha  occ. eigenvalues --  -10.40879 -10.37303 -10.35053 -10.34434 -10.33413
 Alpha  occ. eigenvalues --  -10.32434 -10.30539 -10.29618 -10.29497 -10.29369
 Alpha  occ. eigenvalues --  -10.29017 -10.28793 -10.28673 -10.27841 -10.26536
 Alpha  occ. eigenvalues --  -10.25177  -1.20381  -1.20184  -1.19498  -1.17046
 Alpha  occ. eigenvalues --   -1.15598  -1.14098  -1.11620  -1.11202  -1.07122
 Alpha  occ. eigenvalues --   -1.05479  -0.95934  -0.94803  -0.94577  -0.91491
 Alpha  occ. eigenvalues --   -0.89302  -0.86946  -0.85012  -0.84834  -0.83319
 Alpha  occ. eigenvalues --   -0.79190  -0.77692  -0.76896  -0.74604  -0.74261
 Alpha  occ. eigenvalues --   -0.72595  -0.72334  -0.71672  -0.70385  -0.70263
 Alpha  occ. eigenvalues --   -0.68912  -0.68601  -0.66782  -0.64977  -0.64547
 Alpha  occ. eigenvalues --   -0.64168  -0.63982  -0.61679  -0.60977  -0.59394
 Alpha  occ. eigenvalues --   -0.59112  -0.58643  -0.58140  -0.57577  -0.57067
 Alpha  occ. eigenvalues --   -0.56482  -0.56239  -0.55851  -0.55314  -0.54996
 Alpha  occ. eigenvalues --   -0.54889  -0.54259  -0.53652  -0.52880  -0.52395
 Alpha  occ. eigenvalues --   -0.52244  -0.52078  -0.51019  -0.50753  -0.50555
 Alpha  occ. eigenvalues --   -0.49820  -0.49724  -0.49028  -0.48324  -0.48293
 Alpha  occ. eigenvalues --   -0.47949  -0.47431  -0.47251  -0.46644  -0.45770
 Alpha  occ. eigenvalues --   -0.43898  -0.43657  -0.42951  -0.41963  -0.41626
 Alpha  occ. eigenvalues --   -0.41479  -0.41389  -0.40859  -0.40392  -0.40199
 Alpha  occ. eigenvalues --   -0.39644  -0.38877  -0.37699  -0.36273  -0.35441
 Alpha  occ. eigenvalues --   -0.31881  -0.29759
 Alpha virt. eigenvalues --   -0.14682  -0.11589  -0.10766  -0.09788  -0.09321
 Alpha virt. eigenvalues --   -0.08967  -0.08664  -0.06937  -0.04366  -0.03203
 Alpha virt. eigenvalues --   -0.02710  -0.01998  -0.01019  -0.00653  -0.00383

 Mulliken charges:
               1
     1  N   -0.757374
     2  H    0.459184
     3  H    0.410405
     4  H    0.418219
     5  C   -0.115638
     6  H    0.191064
     7  C    0.613021
     8  C   -0.269361
     9  H    0.184360
    10  H    0.201096
    11  O   -0.488795
    12  C   -0.380222
    13  H    0.206285
    14  H    0.190245
    15  C    0.597661
    16  O   -0.444308
    17  O   -0.557830
    18  N   -0.565102
    19  H    0.344431
    20  C   -0.113718
    21  H    0.190379
    22  C    0.663826
    23  C   -0.350297
    24  H    0.205287
    25  H    0.182745
    26  O   -0.597667
    27  C    0.125465
    28  C   -0.219713
    29  H    0.143146
    30  C   -0.181459
    31  H    0.148770
    32  C   -0.154645
    33  H    0.169033
    34  C   -0.197045
    35  H    0.146956
    36  O   -0.626535
    37  H    0.421384
    38  C    0.361396
    39  N   -0.606853
    40  H    0.372864
    41  C    0.002472
    42  H    0.189454
    43  C    0.594227
    44  C   -0.335924
    45  H    0.171121
    46  H    0.162519
    47  O   -0.447403
    48  C   -0.277141
    49  H    0.142980
    50  H    0.169190
    51  C   -0.256077
    52  H    0.133001
    53  H    0.171450
    54  C   -0.151546
    55  H    0.136465
    56  H    0.104623
    57  N   -0.709162
    58  H    0.301329
    59  H    0.296543
    60  O   -0.571360
    61  H    0.422301
    62  H    0.430280
 Sum of Mulliken charges =   1.00000

 Dipole moment (field-independent basis, Debye):
    X=             -3.4415    Y=              0.6164    Z=              5.7936  Tot=              6.7667
 Quadrupole moment (field-independent basis, Debye-Ang):
   XX=           -155.6343   YY=           -152.8776   ZZ=           -123.9461
   XY=             13.7131   XZ=            -32.5081   YZ=            -21.0587

 Normal termination of Gaussian 16 at Wed Jun  1 23:31:46 2022.
