 Gaussian 16, Revision C.01,
 Gaussian 16:  ES64L-G16RevC.01  3-Jul-2019

 ----------------------------------------------------------------------
 # B3LYP/6-31G* empiricaldispersion=gd3 guess=read geom=check nosymm in
 tegral(ultrafinegrid)
 ----------------------------------------------------------------------

 ------------------------------------------------------
 Candidate Structure: Conf:472 Charge calc in gas phase
 ------------------------------------------------------
 Structure from the checkpoint file:  "conf-472.chk"
 Charge =  1 Multiplicity = 1

                          Input orientation:
 ---------------------------------------------------------------------
 Center     Atomic      Atomic             Coordinates (Angstroms)
 Number     Number       Type             X           Y           Z
 ---------------------------------------------------------------------
      1          7           0        1.034628   -2.017381    2.483538
      2          1           0        1.235314   -1.046398    2.107831
      3          1           0        1.317868   -2.122083    3.461994
      4          1           0        1.577820   -2.665790    1.899488
      5          6           0       -0.445950   -2.298283    2.250613
      6          1           0       -0.988998   -1.650759    2.945672
      7          6           0       -0.566523   -1.848542    0.774705
      8          6           0       -0.766952   -3.769172    2.476823
      9          1           0       -0.463770   -4.072433    3.484553
     10          1           0       -0.192476   -4.361864    1.755272
     11          8           0        0.075345   -2.481781   -0.050305
     12          6           0       -2.268796   -4.035934    2.287437
     13          1           0       -2.600127   -3.762251    1.282167
     14          1           0       -2.849681   -3.441069    3.005667
     15          6           0       -2.653511   -5.492123    2.495712
     16          8           0       -3.433496   -6.100946    1.807707
     17          8           0       -2.026635   -6.017894    3.576811
     18          7           0       -1.248656   -0.691493    0.551739
     19          1           0       -1.664566   -0.273972    1.375320
     20          6           0       -0.745405    0.294289   -0.411345
     21          1           0       -1.451971    1.129951   -0.385370
     22          6           0        0.622317    0.821739    0.116587
     23          6           0       -0.704255   -0.238766   -1.872966
     24          1           0        0.022313   -1.049671   -1.936074
     25          1           0       -1.690453   -0.680612   -2.059002
     26          8           0        1.227289    0.284039    1.068432
     27          6           0       -0.393383    0.840484   -2.885683
     28          6           0       -1.279584    1.909246   -3.104061
     29          1           0       -2.236052    1.932376   -2.584841
     30          6           0        0.814592    0.833687   -3.593425
     31          1           0        1.517233    0.016785   -3.447888
     32          6           0       -0.965941    2.943716   -3.977696
     33          1           0       -1.648573    3.769894   -4.145318
     34          6           0        1.141373    1.860037   -4.478593
     35          1           0        2.083676    1.832412   -5.021462
     36          8           0        0.504044    3.965885   -5.504764
     37          1           0        1.363441    3.844299   -5.938084
     38          6           0        0.253652    2.926038   -4.668346
     39          7           0        1.089490    1.910274   -0.493479
     40          1           0        0.601113    2.288434   -1.301939
     41          6           0        2.404498    2.488721   -0.225234
     42          1           0        2.574747    2.503196    0.854233
     43          6           0        2.356313    3.913757   -0.763098
     44          6           0        3.514220    1.663635   -0.923098
     45          1           0        3.389143    0.629376   -0.580168
     46          1           0        3.310383    1.670618   -2.001224
     47          8           0        1.630141    4.265181   -1.667374
     48          6           0        4.945908    2.131069   -0.642741
     49          1           0        5.112552    2.173700    0.442987
     50          1           0        5.084902    3.154765   -1.010098
     51          6           0        5.982530    1.209874   -1.296184
     52          1           0        5.868113    0.188855   -0.900387
     53          1           0        5.804314    1.143186   -2.377001
     54          6           0        7.423101    1.678712   -1.075516
     55          1           0        7.538427    2.684727   -1.499230
     56          1           0        7.610236    1.775187    0.011212
     57          7           0        8.356522    0.791494   -1.774176
     58          1           0        8.389702   -0.113533   -1.306330
     59          1           0        9.301260    1.168188   -1.724432
     60          8           0        3.236538    4.714721   -0.141303
     61          1           0        3.186813    5.592780   -0.567627
     62          1           0       -2.336760   -6.939783    3.665992
 ---------------------------------------------------------------------

 SCF Done:  E(RB3LYP) =  -1526.27477523     A.U. after    2 cycles

 Alpha  occ. eigenvalues --  -19.30109 -19.29386 -19.26566 -19.25919 -19.25780
 Alpha  occ. eigenvalues --  -19.24522 -19.23494 -14.59834 -14.50284 -14.48299
 Alpha  occ. eigenvalues --  -14.37376 -10.43818 -10.42572 -10.42229 -10.42080
 Alpha  occ. eigenvalues --  -10.40899 -10.36792 -10.34691 -10.33759 -10.33514
 Alpha  occ. eigenvalues --  -10.32237 -10.29848 -10.28783 -10.28336 -10.28137
 Alpha  occ. eigenvalues --  -10.28113 -10.27587 -10.27399 -10.27078 -10.26848
 Alpha  occ. eigenvalues --  -10.25514  -1.21108  -1.20109  -1.19310  -1.16725
 Alpha  occ. eigenvalues --   -1.14071  -1.14034  -1.12276  -1.11281  -1.06920
 Alpha  occ. eigenvalues --   -1.05111  -0.95064  -0.94458  -0.94254  -0.91154
 Alpha  occ. eigenvalues --   -0.89089  -0.86613  -0.84900  -0.83586  -0.82799
 Alpha  occ. eigenvalues --   -0.78651  -0.78044  -0.76456  -0.74645  -0.74060
 Alpha  occ. eigenvalues --   -0.72391  -0.71532  -0.71146  -0.70750  -0.69885
 Alpha  occ. eigenvalues --   -0.68630  -0.67638  -0.66607  -0.65988  -0.64226
 Alpha  occ. eigenvalues --   -0.63992  -0.62976  -0.60861  -0.59734  -0.59340
 Alpha  occ. eigenvalues --   -0.58934  -0.58101  -0.57330  -0.57199  -0.57022
 Alpha  occ. eigenvalues --   -0.56730  -0.56120  -0.55701  -0.55221  -0.55096
 Alpha  occ. eigenvalues --   -0.54811  -0.54032  -0.53400  -0.52515  -0.52161
 Alpha  occ. eigenvalues --   -0.51570  -0.51061  -0.50817  -0.50538  -0.49915
 Alpha  occ. eigenvalues --   -0.49825  -0.49165  -0.48821  -0.48499  -0.48129
 Alpha  occ. eigenvalues --   -0.47944  -0.47801  -0.46190  -0.45690  -0.44694
 Alpha  occ. eigenvalues --   -0.43719  -0.43087  -0.42276  -0.41861  -0.41667
 Alpha  occ. eigenvalues --   -0.41438  -0.41266  -0.41124  -0.40441  -0.39976
 Alpha  occ. eigenvalues --   -0.38818  -0.38264  -0.37586  -0.37044  -0.34030
 Alpha  occ. eigenvalues --   -0.30342  -0.29622
 Alpha virt. eigenvalues --   -0.14487  -0.11245  -0.10011  -0.09504  -0.09176
 Alpha virt. eigenvalues --   -0.08902  -0.07968  -0.06855  -0.04537  -0.02686
 Alpha virt. eigenvalues --   -0.01899  -0.01244  -0.00649  -0.00315   0.00112

 Mulliken charges:
               1
     1  N   -0.761120
     2  H    0.457170
     3  H    0.407628
     4  H    0.416047
     5  C   -0.111363
     6  H    0.191449
     7  C    0.611477
     8  C   -0.281163
     9  H    0.187090
    10  H    0.195740
    11  O   -0.487578
    12  C   -0.368934
    13  H    0.204948
    14  H    0.188162
    15  C    0.583617
    16  O   -0.425162
    17  O   -0.566556
    18  N   -0.565726
    19  H    0.343923
    20  C   -0.108876
    21  H    0.191379
    22  C    0.656909
    23  C   -0.349337
    24  H    0.198490
    25  H    0.184043
    26  O   -0.605488
    27  C    0.113397
    28  C   -0.206104
    29  H    0.135815
    30  C   -0.190541
    31  H    0.140725
    32  C   -0.142239
    33  H    0.164415
    34  C   -0.189161
    35  H    0.139956
    36  O   -0.625372
    37  H    0.417848
    38  C    0.369779
    39  N   -0.601751
    40  H    0.391655
    41  C   -0.033821
    42  H    0.191261
    43  C    0.585014
    44  C   -0.275097
    45  H    0.154945
    46  H    0.160640
    47  O   -0.452831
    48  C   -0.269074
    49  H    0.139048
    50  H    0.152190
    51  C   -0.247302
    52  H    0.120732
    53  H    0.152782
    54  C   -0.135703
    55  H    0.144624
    56  H    0.114692
    57  N   -0.714911
    58  H    0.294052
    59  H    0.306634
    60  O   -0.552701
    61  H    0.429834
    62  H    0.429797
 Sum of Mulliken charges =   1.00000

 Dipole moment (field-independent basis, Debye):
    X=              5.9595    Y=             -1.6382    Z=              8.2483  Tot=             10.3070
 Quadrupole moment (field-independent basis, Debye-Ang):
   XX=           -140.4552   YY=           -137.7560   ZZ=           -136.4189
   XY=              9.2925   XZ=             -5.6583   YZ=            -40.4303

 Normal termination of Gaussian 16 at Wed Jun  1 23:31:30 2022.
