 Gaussian 16, Revision C.01,
 Gaussian 16:  ES64L-G16RevC.01  3-Jul-2019

 ----------------------------------------------------------------------
 # B3LYP/6-31G* empiricaldispersion=gd3 guess=read geom=check nosymm in
 tegral(ultrafinegrid)
 ----------------------------------------------------------------------

 ------------------------------------------------------
 Candidate Structure: Conf:879 Charge calc in gas phase
 ------------------------------------------------------
 Structure from the checkpoint file:  "conf-879.chk"
 Charge =  1 Multiplicity = 1

                          Input orientation:
 ---------------------------------------------------------------------
 Center     Atomic      Atomic             Coordinates (Angstroms)
 Number     Number       Type             X           Y           Z
 ---------------------------------------------------------------------
      1          7           0        0.434065   -2.223071    3.197391
      2          1           0        1.272704   -1.647629    2.966154
      3          1           0        0.326731   -2.289703    4.229428
      4          1           0        0.542196   -3.133795    2.734708
      5          6           0       -0.786866   -1.536250    2.639222
      6          1           0       -0.801176   -0.552230    3.113174
      7          6           0       -0.519022   -1.488726    1.117461
      8          6           0       -2.081403   -2.322482    2.919260
      9          1           0       -2.154442   -3.134185    2.188026
     10          1           0       -2.911166   -1.637416    2.715612
     11          8           0       -0.089500   -2.510557    0.598820
     12          6           0       -2.255483   -2.945971    4.327668
     13          1           0       -1.632615   -3.844241    4.415786
     14          1           0       -3.293733   -3.260730    4.449510
     15          6           0       -1.845161   -2.033040    5.462301
     16          8           0       -0.687191   -1.672769    5.643592
     17          8           0       -2.854392   -1.654094    6.240883
     18          7           0       -0.787942   -0.317749    0.494246
     19          1           0       -1.027149    0.463086    1.091182
     20          6           0       -0.246952    0.036946   -0.844495
     21          1           0       -0.640318    1.035243   -1.063360
     22          6           0        1.284783    0.096147   -0.653911
     23          6           0       -0.664497   -0.918850   -1.970298
     24          1           0       -0.172805   -1.879194   -1.808270
     25          1           0       -1.746125   -1.076460   -1.891010
     26          8           0        2.020226   -0.850972   -0.888138
     27          6           0       -0.304622   -0.334076   -3.319621
     28          6           0       -1.178767    0.548334   -3.972345
     29          1           0       -2.143587    0.778571   -3.523687
     30          6           0        0.921838   -0.623159   -3.929255
     31          1           0        1.618051   -1.293009   -3.433734
     32          6           0       -0.849419    1.124158   -5.194245
     33          1           0       -1.529251    1.797310   -5.706266
     34          6           0        1.265746   -0.054878   -5.155103
     35          1           0        2.220385   -0.295976   -5.618582
     36          8           0        0.649845    1.412555   -6.990991
     37          1           0        1.507514    1.102727   -7.321569
     38          6           0        0.380208    0.821519   -5.792818
     39          7           0        1.753402    1.229676   -0.046960
     40          1           0        1.114423    1.963695    0.225831
     41          6           0        3.070870    1.207734    0.560589
     42          1           0        3.817084    0.997703   -0.208653
     43          6           0        3.136918    0.066161    1.577125
     44          6           0        3.362461    2.563526    1.239137
     45          1           0        3.251775    3.331532    0.463170
     46          1           0        2.581191    2.745400    1.990892
     47          8           0        2.187526   -0.300599    2.260318
     48          6           0        4.746948    2.692259    1.891126
     49          1           0        4.845418    1.971372    2.714120
     50          1           0        4.793134    3.687104    2.351275
     51          6           0        5.926977    2.526784    0.926361
     52          1           0        5.931988    1.510512    0.510852
     53          1           0        5.804586    3.216668    0.077662
     54          6           0        7.294744    2.783117    1.594047
     55          1           0        7.426338    2.077041    2.425293
     56          1           0        8.085282    2.552907    0.869822
     57          7           0        7.545087    4.126645    2.109996
     58          1           0        6.893596    4.368531    2.852964
     59          1           0        7.431925    4.822359    1.374758
     60          8           0        4.361291   -0.444247    1.682602
     61          1           0        4.365405   -1.135767    2.371281
     62          1           0       -2.501551   -1.087884    6.956547
 ---------------------------------------------------------------------

 SCF Done:  E(RB3LYP) =  -1526.28486593     A.U. after    3 cycles

 Alpha  occ. eigenvalues --  -19.33829 -19.32874 -19.28787 -19.28049 -19.25339
 Alpha  occ. eigenvalues --  -19.24055 -19.22604 -14.57455 -14.50058 -14.47411
 Alpha  occ. eigenvalues --  -14.37725 -10.46845 -10.45571 -10.42853 -10.40050
 Alpha  occ. eigenvalues --  -10.39601 -10.35196 -10.35097 -10.34959 -10.34532
 Alpha  occ. eigenvalues --  -10.31481 -10.30377 -10.27933 -10.27556 -10.27530
 Alpha  occ. eigenvalues --  -10.26087 -10.26027 -10.25960 -10.25648 -10.25440
 Alpha  occ. eigenvalues --  -10.25028  -1.25071  -1.24084  -1.18007  -1.16070
 Alpha  occ. eigenvalues --   -1.15291  -1.14557  -1.12244  -1.12177  -1.06152
 Alpha  occ. eigenvalues --   -1.03875  -0.95121  -0.94657  -0.92497  -0.91046
 Alpha  occ. eigenvalues --   -0.89270  -0.86923  -0.84682  -0.81570  -0.81335
 Alpha  occ. eigenvalues --   -0.79475  -0.79314  -0.75957  -0.74422  -0.74073
 Alpha  occ. eigenvalues --   -0.72881  -0.71775  -0.71263  -0.70826  -0.69094
 Alpha  occ. eigenvalues --   -0.68419  -0.66408  -0.65483  -0.65333  -0.64475
 Alpha  occ. eigenvalues --   -0.63856  -0.62845  -0.62540  -0.61485  -0.60927
 Alpha  occ. eigenvalues --   -0.60567  -0.59954  -0.59063  -0.58055  -0.57744
 Alpha  occ. eigenvalues --   -0.57272  -0.56081  -0.55560  -0.54994  -0.54548
 Alpha  occ. eigenvalues --   -0.54424  -0.53715  -0.53357  -0.53178  -0.51784
 Alpha  occ. eigenvalues --   -0.51362  -0.50978  -0.50774  -0.50140  -0.49971
 Alpha  occ. eigenvalues --   -0.49655  -0.49167  -0.48783  -0.48518  -0.47592
 Alpha  occ. eigenvalues --   -0.47043  -0.46694  -0.46492  -0.45971  -0.45400
 Alpha  occ. eigenvalues --   -0.44494  -0.44035  -0.43441  -0.42763  -0.42576
 Alpha  occ. eigenvalues --   -0.41900  -0.41468  -0.40670  -0.40524  -0.40232
 Alpha  occ. eigenvalues --   -0.39356  -0.38858  -0.37010  -0.35342  -0.31799
 Alpha  occ. eigenvalues --   -0.29649  -0.28404
 Alpha virt. eigenvalues --   -0.14003  -0.12683  -0.12483  -0.08757  -0.07610
 Alpha virt. eigenvalues --   -0.06818  -0.06661  -0.05564  -0.04900  -0.04328
 Alpha virt. eigenvalues --   -0.02729  -0.01047  -0.00501  -0.00011   0.00266

 Mulliken charges:
               1
     1  N   -0.773011
     2  H    0.432347
     3  H    0.424231
     4  H    0.404910
     5  C   -0.108661
     6  H    0.196456
     7  C    0.649370
     8  C   -0.299592
     9  H    0.211744
    10  H    0.198702
    11  O   -0.497617
    12  C   -0.380533
    13  H    0.193990
    14  H    0.222404
    15  C    0.607776
    16  O   -0.490975
    17  O   -0.522422
    18  N   -0.609218
    19  H    0.335699
    20  C   -0.075749
    21  H    0.168735
    22  C    0.664176
    23  C   -0.356615
    24  H    0.208505
    25  H    0.154286
    26  O   -0.504285
    27  C    0.135020
    28  C   -0.191789
    29  H    0.123225
    30  C   -0.187358
    31  H    0.159497
    32  C   -0.156042
    33  H    0.152404
    34  C   -0.195127
    35  H    0.131693
    36  O   -0.632990
    37  H    0.414134
    38  C    0.354603
    39  N   -0.616904
    40  H    0.329039
    41  C   -0.003218
    42  H    0.216734
    43  C    0.629361
    44  C   -0.317482
    45  H    0.176419
    46  H    0.144621
    47  O   -0.533374
    48  C   -0.264447
    49  H    0.137771
    50  H    0.142943
    51  C   -0.273125
    52  H    0.144229
    53  H    0.133673
    54  C   -0.145270
    55  H    0.141678
    56  H    0.157839
    57  N   -0.700075
    58  H    0.298136
    59  H    0.299462
    60  O   -0.521052
    61  H    0.422738
    62  H    0.438385
 Sum of Mulliken charges =   1.00000

 Dipole moment (field-independent basis, Debye):
    X=              0.2619    Y=             -2.3320    Z=             13.5365  Tot=             13.7384
 Quadrupole moment (field-independent basis, Debye-Ang):
   XX=           -157.5483   YY=           -151.5682   ZZ=           -105.4794
   XY=              7.3980   XZ=            -23.1219   YZ=            -28.3075

 Normal termination of Gaussian 16 at Wed Jun  1 23:31:31 2022.
