 Gaussian 16, Revision C.01,
 Gaussian 16:  ES64L-G16RevC.01  3-Jul-2019

 ----------------------------------------------------------------------
 # B3LYP/6-31G* empiricaldispersion=gd3 guess=read geom=check nosymm in
 tegral(ultrafinegrid)
 ----------------------------------------------------------------------

 ------------------------------------------------------
 Candidate Structure: Conf:156 Charge calc in gas phase
 ------------------------------------------------------
 Structure from the checkpoint file:  "conf-156.chk"
 Charge =  1 Multiplicity = 1

                          Input orientation:
 ---------------------------------------------------------------------
 Center     Atomic      Atomic             Coordinates (Angstroms)
 Number     Number       Type             X           Y           Z
 ---------------------------------------------------------------------
      1          7           0       -0.028921    2.281221    3.187387
      2          1           0       -0.181379    2.727670    4.094890
      3          1           0        0.916592    1.845071    3.126485
      4          1           0       -0.044236    2.975449    2.421183
      5          6           0       -1.086287    1.258111    2.827030
      6          1           0       -2.036495    1.802747    2.845143
      7          6           0       -0.798894    1.011577    1.320702
      8          6           0       -1.180675    0.113087    3.856263
      9          1           0       -1.799018   -0.676782    3.417755
     10          1           0       -1.770896    0.498114    4.696211
     11          8           0       -0.486962    2.001436    0.650137
     12          6           0        0.105092   -0.486775    4.461105
     13          1           0       -0.210151   -1.159773    5.269140
     14          1           0        0.728096    0.272322    4.944189
     15          6           0        1.031881   -1.298830    3.572409
     16          8           0        2.231585   -1.343380    3.734700
     17          8           0        0.373845   -1.992210    2.627173
     18          7           0       -0.940106   -0.230159    0.851501
     19          1           0       -1.021893   -0.990627    1.515781
     20          6           0       -0.443708   -0.619737   -0.479881
     21          1           0       -0.735385    0.167256   -1.179075
     22          6           0        1.086189   -0.681263   -0.293645
     23          6           0       -1.036870   -1.978504   -0.895632
     24          1           0       -0.794100   -2.133094   -1.952882
     25          1           0       -0.512143   -2.762259   -0.339345
     26          8           0        1.628560   -1.655532    0.240905
     27          6           0       -2.524973   -2.058078   -0.648551
     28          6           0       -3.019924   -2.675564    0.510119
     29          1           0       -2.327840   -3.164923    1.194254
     30          6           0       -3.442139   -1.468442   -1.524906
     31          1           0       -3.088405   -0.991661   -2.436480
     32          6           0       -4.381654   -2.700440    0.794287
     33          1           0       -4.767637   -3.192355    1.681265
     34          6           0       -4.809859   -1.486879   -1.257562
     35          1           0       -5.508539   -1.031110   -1.955947
     36          8           0       -6.605239   -2.154907    0.237531
     37          1           0       -7.138834   -1.763500   -0.471877
     38          6           0       -5.285403   -2.101944   -0.092430
     39          7           0        1.771085    0.442183   -0.606936
     40          1           0        1.227213    1.276284   -0.799333
     41          6           0        3.112820    0.631683   -0.058702
     42          1           0        3.752696   -0.182651   -0.405004
     43          6           0        3.020288    0.545546    1.465791
     44          6           0        3.694039    1.990212   -0.483444
     45          1           0        3.034667    2.786565   -0.108105
     46          1           0        4.657784    2.115686    0.025681
     47          8           0        2.105382    1.069479    2.098520
     48          6           0        3.891609    2.110211   -1.998715
     49          1           0        2.927656    1.993940   -2.513206
     50          1           0        4.530984    1.296623   -2.358074
     51          6           0        4.520583    3.447998   -2.403862
     52          1           0        3.864796    4.280187   -2.111888
     53          1           0        5.463168    3.590690   -1.853918
     54          6           0        4.802524    3.537928   -3.909192
     55          1           0        3.865367    3.381743   -4.459482
     56          1           0        5.140257    4.561660   -4.147442
     57          7           0        5.740232    2.486200   -4.320178
     58          1           0        6.675062    2.708094   -3.979115
     59          1           0        5.811149    2.457117   -5.335347
     60          8           0        4.010767   -0.124143    2.021265
     61          1           0        3.776560   -0.306231    2.957631
     62          1           0        1.007785   -2.273043    1.918994
 ---------------------------------------------------------------------

 SCF Done:  E(RB3LYP) =  -1526.30186576     A.U. after    2 cycles

 Alpha  occ. eigenvalues --  -19.31292 -19.31124 -19.27057 -19.26359 -19.26080
 Alpha  occ. eigenvalues --  -19.25807 -19.24357 -14.59838 -14.50015 -14.47990
 Alpha  occ. eigenvalues --  -14.37748 -10.44802 -10.44731 -10.43818 -10.41348
 Alpha  occ. eigenvalues --  -10.41020 -10.35736 -10.35506 -10.34711 -10.34132
 Alpha  occ. eigenvalues --  -10.33404 -10.29568 -10.29392 -10.28125 -10.27957
 Alpha  occ. eigenvalues --  -10.27891 -10.27595 -10.27479 -10.27032 -10.26471
 Alpha  occ. eigenvalues --  -10.25804  -1.23073  -1.22274  -1.19039  -1.16097
 Alpha  occ. eigenvalues --   -1.14413  -1.13970  -1.13655  -1.13582  -1.06907
 Alpha  occ. eigenvalues --   -1.04568  -0.95500  -0.94583  -0.94211  -0.91045
 Alpha  occ. eigenvalues --   -0.89487  -0.87727  -0.84880  -0.83411  -0.82734
 Alpha  occ. eigenvalues --   -0.80020  -0.78577  -0.76480  -0.74784  -0.74055
 Alpha  occ. eigenvalues --   -0.73112  -0.72847  -0.71779  -0.70823  -0.70079
 Alpha  occ. eigenvalues --   -0.69768  -0.68081  -0.65889  -0.65729  -0.64787
 Alpha  occ. eigenvalues --   -0.62953  -0.62729  -0.62270  -0.61893  -0.60922
 Alpha  occ. eigenvalues --   -0.60569  -0.60215  -0.59492  -0.58390  -0.57604
 Alpha  occ. eigenvalues --   -0.57094  -0.56824  -0.55940  -0.55750  -0.54950
 Alpha  occ. eigenvalues --   -0.54346  -0.53831  -0.52942  -0.52673  -0.52487
 Alpha  occ. eigenvalues --   -0.52084  -0.51777  -0.51337  -0.51069  -0.50823
 Alpha  occ. eigenvalues --   -0.50260  -0.49554  -0.49234  -0.49152  -0.48739
 Alpha  occ. eigenvalues --   -0.48366  -0.47719  -0.45762  -0.45687  -0.44538
 Alpha  occ. eigenvalues --   -0.44247  -0.44182  -0.43845  -0.42212  -0.42194
 Alpha  occ. eigenvalues --   -0.41691  -0.41296  -0.41040  -0.40872  -0.40400
 Alpha  occ. eigenvalues --   -0.40275  -0.39563  -0.38252  -0.36839  -0.33871
 Alpha  occ. eigenvalues --   -0.30265  -0.30005
 Alpha virt. eigenvalues --   -0.13939  -0.12739  -0.11633  -0.10289  -0.09418
 Alpha virt. eigenvalues --   -0.09148  -0.07527  -0.04319  -0.04118  -0.02522
 Alpha virt. eigenvalues --   -0.01665  -0.01226  -0.00748  -0.00483   0.00350

 Mulliken charges:
               1
     1  N   -0.752700
     2  H    0.405969
     3  H    0.447814
     4  H    0.423928
     5  C   -0.124122
     6  H    0.235889
     7  C    0.668521
     8  C   -0.319903
     9  H    0.209715
    10  H    0.187318
    11  O   -0.553346
    12  C   -0.376080
    13  H    0.227812
    14  H    0.172263
    15  C    0.625162
    16  O   -0.478125
    17  O   -0.604070
    18  N   -0.604415
    19  H    0.390094
    20  C   -0.062808
    21  H    0.190276
    22  C    0.641144
    23  C   -0.408343
    24  H    0.185579
    25  H    0.181150
    26  O   -0.559299
    27  C    0.181395
    28  C   -0.220529
    29  H    0.132432
    30  C   -0.188637
    31  H    0.137447
    32  C   -0.160741
    33  H    0.154727
    34  C   -0.189650
    35  H    0.139885
    36  O   -0.630857
    37  H    0.417579
    38  C    0.354661
    39  N   -0.581185
    40  H    0.365308
    41  C   -0.020833
    42  H    0.213462
    43  C    0.624863
    44  C   -0.312832
    45  H    0.143223
    46  H    0.173272
    47  O   -0.559040
    48  C   -0.253194
    49  H    0.131943
    50  H    0.183004
    51  C   -0.258279
    52  H    0.131575
    53  H    0.135157
    54  C   -0.141310
    55  H    0.141229
    56  H    0.130798
    57  N   -0.718330
    58  H    0.300043
    59  H    0.309600
    60  O   -0.533776
    61  H    0.453675
    62  H    0.464489
 Sum of Mulliken charges =   1.00000

 Dipole moment (field-independent basis, Debye):
    X=             -0.8872    Y=              7.8965    Z=              8.4613  Tot=             11.6076
 Quadrupole moment (field-independent basis, Debye-Ang):
   XX=           -133.5625   YY=           -158.6263   ZZ=           -111.9066
   XY=             18.6051   XZ=            -10.7268   YZ=             12.4444

 Normal termination of Gaussian 16 at Wed Jun  1 23:31:37 2022.
