 Gaussian 16, Revision C.01,
 Gaussian 16:  ES64L-G16RevC.01  3-Jul-2019

 ----------------------------------------------------------------------
 # B3LYP/6-31G* empiricaldispersion=gd3 guess=read geom=check nosymm in
 tegral(ultrafinegrid)
 ----------------------------------------------------------------------

 ------------------------------------------------------
 Candidate Structure: Conf:231 Charge calc in gas phase
 ------------------------------------------------------
 Structure from the checkpoint file:  "conf-231.chk"
 Charge =  1 Multiplicity = 1

                          Input orientation:
 ---------------------------------------------------------------------
 Center     Atomic      Atomic             Coordinates (Angstroms)
 Number     Number       Type             X           Y           Z
 ---------------------------------------------------------------------
      1          7           0        1.067794   -1.853441    2.795261
      2          1           0        1.729786   -1.067402    2.611226
      3          1           0        1.133108   -2.155420    3.771863
      4          1           0        1.350941   -2.617307    2.152998
      5          6           0       -0.347846   -1.494036    2.375757
      6          1           0       -0.584886   -0.526571    2.826973
      7          6           0       -0.186403   -1.424860    0.840635
      8          6           0       -1.316562   -2.590520    2.823475
      9          1           0       -1.233323   -2.746377    3.905325
     10          1           0       -1.031405   -3.525404    2.324862
     11          8           0        0.530147   -2.281371    0.323625
     12          6           0       -2.773096   -2.234675    2.474254
     13          1           0       -2.897130   -2.038072    1.407049
     14          1           0       -3.082638   -1.343457    3.034987
     15          6           0       -3.717807   -3.370730    2.831545
     16          8           0       -4.447178   -3.939581    2.056940
     17          8           0       -3.625418   -3.677346    4.146748
     18          7           0       -0.714540   -0.371810    0.196619
     19          1           0       -1.446682    0.170056    0.636579
     20          6           0       -0.366304   -0.099954   -1.211165
     21          1           0       -0.782891    0.891184   -1.424761
     22          6           0        1.175444   -0.004966   -1.342642
     23          6           0       -0.967460   -1.118121   -2.202353
     24          1           0       -0.715367   -0.769898   -3.208217
     25          1           0       -0.460243   -2.075610   -2.063142
     26          8           0        1.756105   -0.369327   -2.347138
     27          6           0       -2.458579   -1.250499   -2.005951
     28          6           0       -2.989913   -2.282089   -1.216991
     29          1           0       -2.321945   -3.042118   -0.815287
     30          6           0       -3.346932   -0.309620   -2.539398
     31          1           0       -2.968400    0.493014   -3.169309
     32          6           0       -4.353984   -2.372142   -0.951290
     33          1           0       -4.754845   -3.164527   -0.328464
     34          6           0       -4.717203   -0.385761   -2.290953
     35          1           0       -5.391659    0.349961   -2.724261
     36          8           0       -6.548276   -1.545569   -1.194161
     37          1           0       -7.059678   -0.873302   -1.671348
     38          6           0       -5.225285   -1.416171   -1.489955
     39          7           0        1.817069    0.510958   -0.240179
     40          1           0        1.272458    1.013715    0.446410
     41          6           0        3.255103    0.708115   -0.225634
     42          1           0        3.679552    0.016223   -0.958629
     43          6           0        3.858087    0.353542    1.121297
     44          6           0        3.648990    2.155764   -0.628877
     45          1           0        3.099939    2.351506   -1.557759
     46          1           0        3.259103    2.855106    0.124540
     47          8           0        5.024315    0.186376    1.346174
     48          6           0        5.144988    2.394762   -0.856591
     49          1           0        5.516677    1.667819   -1.591879
     50          1           0        5.703535    2.208560    0.067748
     51          6           0        5.422317    3.821317   -1.345777
     52          1           0        4.877404    4.000132   -2.284926
     53          1           0        5.042514    4.554052   -0.622064
     54          6           0        6.912457    4.093791   -1.567770
     55          1           0        7.448682    3.937051   -0.622711
     56          1           0        7.313148    3.349241   -2.281493
     57          7           0        7.115321    5.488173   -1.970026
     58          1           0        6.752999    5.630526   -2.912275
     59          1           0        8.111225    5.695263   -2.019156
     60          8           0        2.935051    0.322070    2.184652
     61          1           0        3.508079    0.333708    2.978251
     62          1           0       -4.252649   -4.405945    4.320701
 ---------------------------------------------------------------------

 SCF Done:  E(RB3LYP) =  -1526.26098172     A.U. after    1 cycles

 Alpha  occ. eigenvalues --  -19.34478 -19.30497 -19.27913 -19.27669 -19.25489
 Alpha  occ. eigenvalues --  -19.24912 -19.22954 -14.61636 -14.51881 -14.47765
 Alpha  occ. eigenvalues --  -14.36660 -10.45384 -10.45038 -10.43332 -10.42525
 Alpha  occ. eigenvalues --  -10.40423 -10.36105 -10.35625 -10.35595 -10.33197
 Alpha  occ. eigenvalues --  -10.33089 -10.29242 -10.28546 -10.27743 -10.27674
 Alpha  occ. eigenvalues --  -10.27558 -10.27277 -10.26697 -10.26445 -10.26421
 Alpha  occ. eigenvalues --  -10.24906  -1.23948  -1.21325  -1.20753  -1.15834
 Alpha  occ. eigenvalues --   -1.15292  -1.14950  -1.13650  -1.12524  -1.08139
 Alpha  occ. eigenvalues --   -1.04347  -0.96489  -0.93980  -0.93560  -0.90935
 Alpha  occ. eigenvalues --   -0.89411  -0.87554  -0.84970  -0.83098  -0.82728
 Alpha  occ. eigenvalues --   -0.79929  -0.78447  -0.76283  -0.75751  -0.74753
 Alpha  occ. eigenvalues --   -0.73966  -0.72821  -0.71955  -0.70574  -0.70189
 Alpha  occ. eigenvalues --   -0.68968  -0.68332  -0.66836  -0.65859  -0.65417
 Alpha  occ. eigenvalues --   -0.64727  -0.62695  -0.62030  -0.61820  -0.60710
 Alpha  occ. eigenvalues --   -0.59964  -0.59215  -0.58615  -0.58062  -0.57868
 Alpha  occ. eigenvalues --   -0.57039  -0.56631  -0.55977  -0.55044  -0.54667
 Alpha  occ. eigenvalues --   -0.54372  -0.53926  -0.53669  -0.53296  -0.52685
 Alpha  occ. eigenvalues --   -0.51933  -0.51483  -0.51359  -0.50734  -0.50378
 Alpha  occ. eigenvalues --   -0.49992  -0.49769  -0.49299  -0.48663  -0.48309
 Alpha  occ. eigenvalues --   -0.48116  -0.47417  -0.46322  -0.45429  -0.45222
 Alpha  occ. eigenvalues --   -0.44015  -0.43651  -0.42692  -0.42250  -0.42014
 Alpha  occ. eigenvalues --   -0.41761  -0.41296  -0.41139  -0.40866  -0.40817
 Alpha  occ. eigenvalues --   -0.39733  -0.38303  -0.36895  -0.35983  -0.33621
 Alpha  occ. eigenvalues --   -0.29982  -0.28934
 Alpha virt. eigenvalues --   -0.15159  -0.12915  -0.11715  -0.10286  -0.09771
 Alpha virt. eigenvalues --   -0.08736  -0.07521  -0.07215  -0.06929  -0.04419
 Alpha virt. eigenvalues --   -0.04256  -0.02448  -0.01606  -0.01408  -0.00959

 Mulliken charges:
               1
     1  N   -0.771220
     2  H    0.440536
     3  H    0.408602
     4  H    0.425177
     5  C   -0.120060
     6  H    0.199920
     7  C    0.665349
     8  C   -0.292900
     9  H    0.191471
    10  H    0.197763
    11  O   -0.516611
    12  C   -0.378492
    13  H    0.208496
    14  H    0.186249
    15  C    0.583359
    16  O   -0.421169
    17  O   -0.562173
    18  N   -0.619434
    19  H    0.357477
    20  C   -0.070830
    21  H    0.189764
    22  C    0.641986
    23  C   -0.360757
    24  H    0.191693
    25  H    0.193617
    26  O   -0.482534
    27  C    0.159280
    28  C   -0.225578
    29  H    0.132842
    30  C   -0.201958
    31  H    0.137441
    32  C   -0.170839
    33  H    0.186572
    34  C   -0.189408
    35  H    0.138590
    36  O   -0.629303
    37  H    0.416184
    38  C    0.349224
    39  N   -0.627719
    40  H    0.324603
    41  C   -0.058855
    42  H    0.231426
    43  C    0.599604
    44  C   -0.274006
    45  H    0.176310
    46  H    0.139117
    47  O   -0.399521
    48  C   -0.274220
    49  H    0.150876
    50  H    0.160698
    51  C   -0.251504
    52  H    0.131934
    53  H    0.149494
    54  C   -0.135985
    55  H    0.142589
    56  H    0.119700
    57  N   -0.716649
    58  H    0.296907
    59  H    0.305599
    60  O   -0.636979
    61  H    0.425798
    62  H    0.432457
 Sum of Mulliken charges =   1.00000

 Dipole moment (field-independent basis, Debye):
    X=              0.2781    Y=             -1.7064    Z=             11.4864  Tot=             11.6158
 Quadrupole moment (field-independent basis, Debye-Ang):
   XX=           -136.5656   YY=           -166.8582   ZZ=           -127.1311
   XY=              2.7957   XZ=              3.4276   YZ=            -38.8951

 Normal termination of Gaussian 16 at Wed Jun  1 23:31:20 2022.
