 Gaussian 16, Revision C.01,
 Gaussian 16:  ES64L-G16RevC.01  3-Jul-2019

 ----------------------------------------------------------------------
 # B3LYP/6-31G* empiricaldispersion=gd3 guess=read geom=check nosymm in
 tegral(ultrafinegrid)
 ----------------------------------------------------------------------

 ------------------------------------------------------
 Candidate Structure: Conf:962 Charge calc in gas phase
 ------------------------------------------------------
 Structure from the checkpoint file:  "conf-962.chk"
 Charge =  1 Multiplicity = 1

                          Input orientation:
 ---------------------------------------------------------------------
 Center     Atomic      Atomic             Coordinates (Angstroms)
 Number     Number       Type             X           Y           Z
 ---------------------------------------------------------------------
      1          7           0        0.328580   -1.169667    2.992679
      2          1           0        1.129434   -0.601063    2.645522
      3          1           0        0.119755   -0.949907    3.987682
      4          1           0        0.589891   -2.150417    2.844645
      5          6           0       -0.903775   -0.852324    2.184803
      6          1           0       -1.128329    0.194708    2.401416
      7          6           0       -0.477717   -1.072990    0.724184
      8          6           0       -2.088460   -1.767491    2.545702
      9          1           0       -1.933693   -2.742593    2.072975
     10          1           0       -2.975441   -1.342581    2.065255
     11          8           0        0.330826   -1.964027    0.484793
     12          6           0       -2.365357   -2.008823    4.051594
     13          1           0       -1.647335   -2.736157    4.449418
     14          1           0       -3.360461   -2.443663    4.163493
     15          6           0       -2.229501   -0.772091    4.913442
     16          8           0       -1.164103   -0.187847    5.079267
     17          8           0       -3.369316   -0.376858    5.471765
     18          7           0       -0.986690   -0.222743   -0.192714
     19          1           0       -1.796482    0.331674    0.053517
     20          6           0       -0.666812   -0.376140   -1.623963
     21          1           0       -1.123837    0.490443   -2.114021
     22          6           0        0.867031   -0.282955   -1.818552
     23          6           0       -1.237176   -1.675836   -2.237274
     24          1           0       -1.169500   -1.580478   -3.325268
     25          1           0       -0.585299   -2.504541   -1.954322
     26          8           0        1.454182   -0.970726   -2.632717
     27          6           0       -2.653955   -1.920627   -1.774431
     28          6           0       -2.922818   -2.872098   -0.779910
     29          1           0       -2.109630   -3.493335   -0.410912
     30          6           0       -3.723847   -1.153331   -2.252132
     31          1           0       -3.552085   -0.418502   -3.036111
     32          6           0       -4.206222   -3.050130   -0.268556
     33          1           0       -4.418753   -3.804379    0.483015
     34          6           0       -5.015138   -1.315931   -1.750715
     35          1           0       -5.832921   -0.714654   -2.142585
     36          8           0       -6.492010   -2.474733   -0.204465
     37          1           0       -7.155605   -1.945679   -0.674591
     38          6           0       -5.261102   -2.265750   -0.750879
     39          7           0        1.478342    0.655514   -1.024508
     40          1           0        0.915258    1.077376   -0.299249
     41          6           0        2.902009    0.604350   -0.758117
     42          1           0        3.310045   -0.230252   -1.338288
     43          6           0        3.116999    0.293159    0.718653
     44          6           0        3.642660    1.901509   -1.161069
     45          1           0        4.715884    1.755684   -0.991947
     46          1           0        3.495841    2.016142   -2.239214
     47          8           0        2.237406    0.297980    1.573516
     48          6           0        3.153937    3.147623   -0.410546
     49          1           0        3.254447    2.983714    0.672668
     50          1           0        2.081232    3.290262   -0.604704
     51          6           0        3.906592    4.434307   -0.780214
     52          1           0        3.581332    5.248206   -0.122012
     53          1           0        4.981469    4.293020   -0.591962
     54          6           0        3.700246    4.897086   -2.226608
     55          1           0        4.079117    4.129072   -2.925769
     56          1           0        2.622655    4.989254   -2.419899
     57          7           0        4.301205    6.220360   -2.414769
     58          1           0        4.114217    6.558412   -3.357126
     59          1           0        5.315539    6.151821   -2.337815
     60          8           0        4.397515    0.056023    0.998745
     61          1           0        4.491239   -0.087809    1.959795
     62          1           0       -3.189999    0.408716    6.026918
 ---------------------------------------------------------------------

 SCF Done:  E(RB3LYP) =  -1526.29284405     A.U. after    3 cycles

 Alpha  occ. eigenvalues --  -19.33967 -19.32571 -19.28946 -19.27987 -19.26400
 Alpha  occ. eigenvalues --  -19.25939 -19.21563 -14.57969 -14.50179 -14.45827
 Alpha  occ. eigenvalues --  -14.37107 -10.47018 -10.45410 -10.43269 -10.40434
 Alpha  occ. eigenvalues --  -10.38971 -10.35201 -10.34969 -10.34733 -10.34281
 Alpha  occ. eigenvalues --  -10.33957 -10.28291 -10.28214 -10.28168 -10.28152
 Alpha  occ. eigenvalues --  -10.28152 -10.28031 -10.27646 -10.27272 -10.27182
 Alpha  occ. eigenvalues --  -10.25292  -1.25223  -1.23913  -1.18586  -1.16234
 Alpha  occ. eigenvalues --   -1.14921  -1.14529  -1.13672  -1.12689  -1.06539
 Alpha  occ. eigenvalues --   -1.02825  -0.95487  -0.94481  -0.94045  -0.90554
 Alpha  occ. eigenvalues --   -0.89219  -0.87359  -0.84782  -0.83856  -0.82767
 Alpha  occ. eigenvalues --   -0.79987  -0.77837  -0.76165  -0.74517  -0.74317
 Alpha  occ. eigenvalues --   -0.73136  -0.72439  -0.71598  -0.71145  -0.70195
 Alpha  occ. eigenvalues --   -0.68275  -0.67762  -0.65815  -0.64875  -0.64817
 Alpha  occ. eigenvalues --   -0.63600  -0.63334  -0.62980  -0.62473  -0.61158
 Alpha  occ. eigenvalues --   -0.60501  -0.59669  -0.58754  -0.57987  -0.57543
 Alpha  occ. eigenvalues --   -0.56911  -0.55760  -0.55347  -0.55231  -0.55103
 Alpha  occ. eigenvalues --   -0.54346  -0.54169  -0.53725  -0.53083  -0.52704
 Alpha  occ. eigenvalues --   -0.52421  -0.51681  -0.51472  -0.51208  -0.50643
 Alpha  occ. eigenvalues --   -0.50225  -0.50122  -0.49364  -0.48671  -0.48058
 Alpha  occ. eigenvalues --   -0.47678  -0.46701  -0.46654  -0.46118  -0.45496
 Alpha  occ. eigenvalues --   -0.45203  -0.44099  -0.43560  -0.42782  -0.42578
 Alpha  occ. eigenvalues --   -0.41844  -0.41650  -0.41468  -0.40367  -0.40267
 Alpha  occ. eigenvalues --   -0.40058  -0.39372  -0.35758  -0.35151  -0.34390
 Alpha  occ. eigenvalues --   -0.30705  -0.29334
 Alpha virt. eigenvalues --   -0.14215  -0.12860  -0.12061  -0.09778  -0.08794
 Alpha virt. eigenvalues --   -0.07849  -0.07531  -0.05601  -0.04546  -0.04271
 Alpha virt. eigenvalues --   -0.02340  -0.01834  -0.01112  -0.00619  -0.00168

 Mulliken charges:
               1
     1  N   -0.773722
     2  H    0.447599
     3  H    0.426304
     4  H    0.403553
     5  C   -0.124121
     6  H    0.206203
     7  C    0.664667
     8  C   -0.299655
     9  H    0.203294
    10  H    0.206803
    11  O   -0.522921
    12  C   -0.379512
    13  H    0.192816
    14  H    0.224457
    15  C    0.608048
    16  O   -0.491056
    17  O   -0.521643
    18  N   -0.629701
    19  H    0.350661
    20  C   -0.065378
    21  H    0.186490
    22  C    0.632020
    23  C   -0.362615
    24  H    0.187452
    25  H    0.195982
    26  O   -0.487810
    27  C    0.161216
    28  C   -0.214960
    29  H    0.141654
    30  C   -0.203834
    31  H    0.141108
    32  C   -0.172766
    33  H    0.146907
    34  C   -0.191534
    35  H    0.141001
    36  O   -0.633908
    37  H    0.418253
    38  C    0.350396
    39  N   -0.589897
    40  H    0.331690
    41  C   -0.071720
    42  H    0.227058
    43  C    0.621967
    44  C   -0.264523
    45  H    0.168478
    46  H    0.179448
    47  O   -0.535245
    48  C   -0.286665
    49  H    0.131427
    50  H    0.133392
    51  C   -0.252908
    52  H    0.161138
    53  H    0.134023
    54  C   -0.134918
    55  H    0.119521
    56  H    0.136989
    57  N   -0.714535
    58  H    0.305103
    59  H    0.298544
    60  O   -0.525138
    61  H    0.425766
    62  H    0.439258
 Sum of Mulliken charges =   1.00000

 Dipole moment (field-independent basis, Debye):
    X=             -3.6914    Y=             -0.4753    Z=             10.7344  Tot=             11.3613
 Quadrupole moment (field-independent basis, Debye-Ang):
   XX=           -116.3277   YY=           -176.2347   ZZ=           -122.7962
   XY=              7.9766   XZ=             -4.9183   YZ=            -26.4433

 Normal termination of Gaussian 16 at Wed Jun  1 23:31:33 2022.
