 Gaussian 16, Revision C.01,
 Gaussian 16:  ES64L-G16RevC.01  3-Jul-2019

 ----------------------------------------------------------------------
 # B3LYP/6-31G* empiricaldispersion=gd3 guess=read geom=check nosymm in
 tegral(ultrafinegrid)
 ----------------------------------------------------------------------

 ------------------------------------------------------
 Candidate Structure: Conf:578 Charge calc in gas phase
 ------------------------------------------------------
 Structure from the checkpoint file:  "conf-578.chk"
 Charge =  1 Multiplicity = 1

                          Input orientation:
 ---------------------------------------------------------------------
 Center     Atomic      Atomic             Coordinates (Angstroms)
 Number     Number       Type             X           Y           Z
 ---------------------------------------------------------------------
      1          7           0        0.648316   -2.527130    3.385299
      2          1           0        1.271476   -1.946891    3.955507
      3          1           0        0.316059   -3.310729    3.954347
      4          1           0        1.194649   -2.860143    2.534836
      5          6           0       -0.461048   -1.724925    2.730759
      6          1           0       -0.661988   -0.838007    3.330595
      7          6           0        0.171699   -1.380919    1.353703
      8          6           0       -1.707111   -2.624988    2.611496
      9          1           0       -2.057663   -2.867441    3.622977
     10          1           0       -1.411089   -3.564252    2.127828
     11          8           0        1.073479   -2.131878    0.954479
     12          6           0       -2.877402   -2.035818    1.797434
     13          1           0       -3.709040   -2.742946    1.810457
     14          1           0       -2.572467   -1.901254    0.753415
     15          6           0       -3.336703   -0.684169    2.307556
     16          8           0       -2.602737    0.290513    2.400020
     17          8           0       -4.624652   -0.663850    2.644310
     18          7           0       -0.308753   -0.313491    0.723189
     19          1           0       -1.079234    0.182410    1.171286
     20          6           0        0.127687    0.082622   -0.631690
     21          1           0       -0.272869    1.090885   -0.783061
     22          6           0        1.675339    0.177961   -0.683349
     23          6           0       -0.435000   -0.849938   -1.727318
     24          1           0        0.193954   -1.742818   -1.772097
     25          1           0       -1.438133   -1.161022   -1.406176
     26          8           0        2.331013   -0.398581   -1.530298
     27          6           0       -0.529732   -0.170754   -3.076346
     28          6           0       -1.659799    0.597172   -3.395615
     29          1           0       -2.477512    0.674637   -2.680299
     30          6           0        0.497878   -0.260626   -4.021518
     31          1           0        1.389504   -0.830657   -3.785443
     32          6           0       -1.770428    1.257028   -4.614127
     33          1           0       -2.646777    1.845943   -4.864243
     34          6           0        0.399750    0.391652   -5.249086
     35          1           0        1.207365    0.309629   -5.973796
     36          8           0       -0.894393    1.818221   -6.729893
     37          1           0       -0.119539    1.669379   -7.294064
     38          6           0       -0.734088    1.154803   -5.550143
     39          7           0        2.227195    0.930966    0.325720
     40          1           0        1.615301    1.637251    0.716983
     41          6           0        3.634273    1.325197    0.231750
     42          1           0        3.833053    1.944767    1.116333
     43          6           0        3.805084    2.255699   -0.979308
     44          6           0        4.605590    0.122112    0.267631
     45          1           0        4.089266   -0.695245    0.785930
     46          1           0        4.787966   -0.229185   -0.750770
     47          8           0        2.887193    2.798680   -1.550428
     48          6           0        5.921611    0.440575    0.985484
     49          1           0        5.724417    0.698220    2.034181
     50          1           0        6.388582    1.319087    0.524389
     51          6           0        6.910957   -0.728511    0.946438
     52          1           0        6.414356   -1.649997    1.289928
     53          1           0        7.222071   -0.917745   -0.089750
     54          6           0        8.154436   -0.484146    1.809432
     55          1           0        8.914187   -1.250823    1.578969
     56          1           0        8.594082    0.483949    1.537544
     57          7           0        7.791235   -0.425046    3.234935
     58          1           0        8.583975   -0.088194    3.778676
     59          1           0        7.608279   -1.370406    3.571158
     60          8           0        5.100481    2.438209   -1.302347
     61          1           0        5.120837    3.058640   -2.056106
     62          1           0       -4.856614    0.241356    2.934451
 ---------------------------------------------------------------------

 SCF Done:  E(RB3LYP) =  -1526.26165871     A.U. after    3 cycles

 Alpha  occ. eigenvalues --  -19.33854 -19.28719 -19.27665 -19.27326 -19.23595
 Alpha  occ. eigenvalues --  -19.21484 -19.21196 -14.61653 -14.50408 -14.45040
 Alpha  occ. eigenvalues --  -14.37282 -10.46966 -10.44312 -10.42192 -10.39613
 Alpha  occ. eigenvalues --  -10.38276 -10.37036 -10.35095 -10.34477 -10.32263
 Alpha  occ. eigenvalues --  -10.30984 -10.28051 -10.26504 -10.25705 -10.25632
 Alpha  occ. eigenvalues --  -10.25624 -10.25015 -10.24855 -10.24587 -10.24099
 Alpha  occ. eigenvalues --  -10.23938  -1.25070  -1.20344  -1.18215  -1.16003
 Alpha  occ. eigenvalues --   -1.15290  -1.13198  -1.11713  -1.09218  -1.07082
 Alpha  occ. eigenvalues --   -1.01498  -0.96900  -0.93812  -0.92063  -0.90020
 Alpha  occ. eigenvalues --   -0.87860  -0.86605  -0.82670  -0.81951  -0.80865
 Alpha  occ. eigenvalues --   -0.80152  -0.75965  -0.75858  -0.75403  -0.74729
 Alpha  occ. eigenvalues --   -0.72919  -0.72515  -0.69899  -0.68798  -0.68362
 Alpha  occ. eigenvalues --   -0.67431  -0.65745  -0.65303  -0.64832  -0.64309
 Alpha  occ. eigenvalues --   -0.63717  -0.61921  -0.61672  -0.61521  -0.60432
 Alpha  occ. eigenvalues --   -0.58824  -0.58390  -0.57969  -0.56356  -0.55970
 Alpha  occ. eigenvalues --   -0.55887  -0.55260  -0.54726  -0.54469  -0.53811
 Alpha  occ. eigenvalues --   -0.52810  -0.52633  -0.52484  -0.51955  -0.51615
 Alpha  occ. eigenvalues --   -0.51250  -0.50719  -0.49961  -0.49656  -0.49165
 Alpha  occ. eigenvalues --   -0.48332  -0.47944  -0.47392  -0.46687  -0.46317
 Alpha  occ. eigenvalues --   -0.46151  -0.46051  -0.46024  -0.43703  -0.43006
 Alpha  occ. eigenvalues --   -0.42899  -0.42255  -0.42073  -0.41605  -0.40390
 Alpha  occ. eigenvalues --   -0.40115  -0.39665  -0.39306  -0.39242  -0.38850
 Alpha  occ. eigenvalues --   -0.38661  -0.35949  -0.35022  -0.33850  -0.31256
 Alpha  occ. eigenvalues --   -0.29490  -0.27878
 Alpha virt. eigenvalues --   -0.14427  -0.13653  -0.11950  -0.08307  -0.07621
 Alpha virt. eigenvalues --   -0.06507  -0.06327  -0.05541  -0.05196  -0.04211
 Alpha virt. eigenvalues --   -0.02947  -0.02368  -0.01211  -0.01064   0.00368

 Mulliken charges:
               1
     1  N   -0.753779
     2  H    0.422205
     3  H    0.413933
     4  H    0.434885
     5  C   -0.115453
     6  H    0.231616
     7  C    0.647006
     8  C   -0.308397
     9  H    0.189803
    10  H    0.197172
    11  O   -0.532976
    12  C   -0.378113
    13  H    0.220418
    14  H    0.218180
    15  C    0.605635
    16  O   -0.482675
    17  O   -0.524543
    18  N   -0.625604
    19  H    0.391277
    20  C   -0.080982
    21  H    0.195089
    22  C    0.652714
    23  C   -0.361439
    24  H    0.191568
    25  H    0.133977
    26  O   -0.489186
    27  C    0.145779
    28  C   -0.188220
    29  H    0.107731
    30  C   -0.172169
    31  H    0.163252
    32  C   -0.154156
    33  H    0.149008
    34  C   -0.192905
    35  H    0.131188
    36  O   -0.634005
    37  H    0.414018
    38  C    0.356099
    39  N   -0.597747
    40  H    0.328247
    41  C   -0.067310
    42  H    0.177532
    43  C    0.603048
    44  C   -0.254656
    45  H    0.133970
    46  H    0.179892
    47  O   -0.463952
    48  C   -0.273811
    49  H    0.148926
    50  H    0.157281
    51  C   -0.250105
    52  H    0.114335
    53  H    0.141104
    54  C   -0.146836
    55  H    0.126403
    56  H    0.145656
    57  N   -0.719528
    58  H    0.305196
    59  H    0.289002
    60  O   -0.556997
    61  H    0.423386
    62  H    0.439013
 Sum of Mulliken charges =   1.00000

 Dipole moment (field-independent basis, Debye):
    X=              0.4279    Y=             -7.3057    Z=             13.8992  Tot=             15.7081
 Quadrupole moment (field-independent basis, Debye-Ang):
   XX=           -118.0150   YY=           -151.4933   ZZ=           -109.0137
   XY=              5.4874   XZ=             -8.7989   YZ=            -36.9444

 Normal termination of Gaussian 16 at Wed Jun  1 23:31:31 2022.
