 Gaussian 16, Revision C.01,
 Gaussian 16:  ES64L-G16RevC.01  3-Jul-2019

 ----------------------------------------------------------------------
 # B3LYP/6-31G* empiricaldispersion=gd3 guess=read geom=check nosymm in
 tegral(ultrafinegrid)
 ----------------------------------------------------------------------

 ------------------------------------------------------
 Candidate Structure: Conf:123 Charge calc in gas phase
 ------------------------------------------------------
 Structure from the checkpoint file:  "conf-123.chk"
 Charge =  1 Multiplicity = 1

                          Input orientation:
 ---------------------------------------------------------------------
 Center     Atomic      Atomic             Coordinates (Angstroms)
 Number     Number       Type             X           Y           Z
 ---------------------------------------------------------------------
      1          7           0        0.183950   -2.920638    3.161768
      2          1           0        0.588569   -1.961461    2.980987
      3          1           0        0.240684   -3.179863    4.150205
      4          1           0        0.740091   -3.577433    2.599501
      5          6           0       -1.241800   -2.916453    2.613143
      6          1           0       -1.809259   -2.254719    3.274487
      7          6           0       -0.981682   -2.305664    1.216502
      8          6           0       -1.835554   -4.316394    2.564179
      9          1           0       -1.258189   -4.922613    1.857386
     10          1           0       -2.839768   -4.235708    2.134852
     11          8           0       -0.236358   -2.924152    0.470398
     12          6           0       -1.932429   -5.006019    3.928011
     13          1           0       -2.415052   -4.358704    4.673592
     14          1           0       -0.952400   -5.278168    4.340042
     15          6           0       -2.763332   -6.278835    3.832398
     16          8           0       -3.434386   -6.588013    2.876312
     17          8           0       -2.660877   -7.002279    4.962771
     18          7           0       -1.478492   -1.056350    0.994559
     19          1           0       -2.005854   -0.663007    1.764373
     20          6           0       -0.656973   -0.068225    0.286049
     21          1           0       -1.220288    0.870424    0.319737
     22          6           0        0.638568    0.156456    1.123927
     23          6           0       -0.428748   -0.427215   -1.210443
     24          1           0        0.125996   -1.364423   -1.267231
     25          1           0       -1.424524   -0.619505   -1.627465
     26          8           0        0.898328   -0.508414    2.146176
     27          6           0        0.282306    0.660942   -1.985315
     28          6           0       -0.292931    1.932877   -2.152841
     29          1           0       -1.300099    2.123292   -1.786853
     30          6           0        1.568576    0.451114   -2.497119
     31          1           0        2.038357   -0.522518   -2.383309
     32          6           0        0.397531    2.964682   -2.780573
     33          1           0       -0.046749    3.945997   -2.909981
     34          6           0        2.270622    1.470977   -3.139554
     35          1           0        3.266956    1.282702   -3.533524
     36          8           0        2.315125    3.787861   -3.869578
     37          1           0        3.183378    3.514602   -4.206109
     38          6           0        1.690029    2.738640   -3.276275
     39          7           0        1.441763    1.139478    0.714336
     40          1           0        1.184843    1.673346   -0.107719
     41          6           0        2.696892    1.467398    1.385243
     42          1           0        3.288287    0.554719    1.500546
     43          6           0        2.475505    2.002480    2.798278
     44          6           0        3.462415    2.491932    0.524501
     45          1           0        3.502451    2.091349   -0.497221
     46          1           0        2.876301    3.419980    0.478488
     47          8           0        3.244065    1.822653    3.712019
     48          6           0        4.883583    2.787080    1.014064
     49          1           0        5.444389    1.844520    1.083322
     50          1           0        4.854947    3.198590    2.030331
     51          6           0        5.613688    3.752416    0.073948
     52          1           0        5.640301    3.344021   -0.944791
     53          1           0        5.053507    4.697896    0.014050
     54          6           0        7.051179    4.044562    0.510468
     55          1           0        7.042016    4.442882    1.542549
     56          1           0        7.611928    3.101483    0.547190
     57          7           0        7.707135    4.915852   -0.469078
     58          1           0        8.691773    5.025577   -0.233121
     59          1           0        7.302864    5.850663   -0.421991
     60          8           0        1.358788    2.762200    2.889662
     61          1           0        1.340400    3.118310    3.798549
     62          1           0       -3.227506   -7.791353    4.859783
 ---------------------------------------------------------------------

 SCF Done:  E(RB3LYP) =  -1526.27386126     A.U. after    1 cycles

 Alpha  occ. eigenvalues --  -19.29819 -19.29275 -19.26660 -19.26502 -19.25948
 Alpha  occ. eigenvalues --  -19.24428 -19.23344 -14.59623 -14.50135 -14.48448
 Alpha  occ. eigenvalues --  -14.36856 -10.43752 -10.42918 -10.42201 -10.41520
 Alpha  occ. eigenvalues --  -10.40794 -10.36969 -10.34506 -10.34291 -10.33338
 Alpha  occ. eigenvalues --  -10.33271 -10.30153 -10.29144 -10.29013 -10.28917
 Alpha  occ. eigenvalues --  -10.28775 -10.28476 -10.28081 -10.26829 -10.26426
 Alpha  occ. eigenvalues --  -10.25013  -1.20851  -1.20085  -1.19269  -1.16807
 Alpha  occ. eigenvalues --   -1.14915  -1.13899  -1.12114  -1.11105  -1.06820
 Alpha  occ. eigenvalues --   -1.05251  -0.95446  -0.94671  -0.93725  -0.91301
 Alpha  occ. eigenvalues --   -0.89238  -0.87332  -0.84636  -0.84416  -0.83011
 Alpha  occ. eigenvalues --   -0.78875  -0.77584  -0.76694  -0.74624  -0.74020
 Alpha  occ. eigenvalues --   -0.72307  -0.71857  -0.71155  -0.70455  -0.69951
 Alpha  occ. eigenvalues --   -0.69175  -0.67877  -0.66183  -0.65473  -0.64119
 Alpha  occ. eigenvalues --   -0.63870  -0.63490  -0.61759  -0.60777  -0.59491
 Alpha  occ. eigenvalues --   -0.59071  -0.58661  -0.58081  -0.57654  -0.56951
 Alpha  occ. eigenvalues --   -0.56365  -0.55960  -0.55792  -0.55222  -0.54566
 Alpha  occ. eigenvalues --   -0.54290  -0.54136  -0.53159  -0.52591  -0.52409
 Alpha  occ. eigenvalues --   -0.51737  -0.51352  -0.51185  -0.50388  -0.50086
 Alpha  occ. eigenvalues --   -0.49704  -0.49284  -0.48757  -0.48567  -0.48441
 Alpha  occ. eigenvalues --   -0.48397  -0.47147  -0.46732  -0.45767  -0.45311
 Alpha  occ. eigenvalues --   -0.43234  -0.43059  -0.42420  -0.42091  -0.41866
 Alpha  occ. eigenvalues --   -0.41289  -0.41028  -0.40703  -0.40197  -0.39904
 Alpha  occ. eigenvalues --   -0.39551  -0.38730  -0.38107  -0.36145  -0.34922
 Alpha  occ. eigenvalues --   -0.31282  -0.29149
 Alpha virt. eigenvalues --   -0.14344  -0.11422  -0.10141  -0.10044  -0.09357
 Alpha virt. eigenvalues --   -0.08997  -0.08354  -0.06584  -0.04429  -0.02111
 Alpha virt. eigenvalues --   -0.01915  -0.01715  -0.01419  -0.00834  -0.00088

 Mulliken charges:
               1
     1  N   -0.758363
     2  H    0.460321
     3  H    0.408410
     4  H    0.415659
     5  C   -0.118902
     6  H    0.191563
     7  C    0.617153
     8  C   -0.273578
     9  H    0.202635
    10  H    0.217756
    11  O   -0.491076
    12  C   -0.391300
    13  H    0.194374
    14  H    0.172057
    15  C    0.599158
    16  O   -0.434500
    17  O   -0.558095
    18  N   -0.564542
    19  H    0.344935
    20  C   -0.115661
    21  H    0.192620
    22  C    0.665996
    23  C   -0.346714
    24  H    0.202316
    25  H    0.184769
    26  O   -0.600732
    27  C    0.112613
    28  C   -0.209300
    29  H    0.140873
    30  C   -0.185628
    31  H    0.147182
    32  C   -0.154987
    33  H    0.167568
    34  C   -0.195748
    35  H    0.147053
    36  O   -0.623718
    37  H    0.421531
    38  C    0.356798
    39  N   -0.607686
    40  H    0.376658
    41  C    0.000376
    42  H    0.188753
    43  C    0.595176
    44  C   -0.327650
    45  H    0.164339
    46  H    0.164327
    47  O   -0.449514
    48  C   -0.272209
    49  H    0.144507
    50  H    0.162275
    51  C   -0.247897
    52  H    0.142042
    53  H    0.131774
    54  C   -0.136198
    55  H    0.120545
    56  H    0.142572
    57  N   -0.718173
    58  H    0.305841
    59  H    0.296680
    60  O   -0.571268
    61  H    0.421971
    62  H    0.432261
 Sum of Mulliken charges =   1.00000

 Dipole moment (field-independent basis, Debye):
    X=              1.0826    Y=             -4.8669    Z=             10.8854  Tot=             11.9729
 Quadrupole moment (field-independent basis, Debye-Ang):
   XX=           -146.5984   YY=           -114.8257   ZZ=           -128.2375
   XY=             24.0650   XZ=            -21.4460   YZ=            -44.7254

 Normal termination of Gaussian 16 at Wed Jun  1 23:25:10 2022.
