 Gaussian 16, Revision C.01,
 Gaussian 16:  ES64L-G16RevC.01  3-Jul-2019

 ----------------------------------------------------------------------
 # B3LYP/6-31G* empiricaldispersion=gd3 guess=read geom=check nosymm in
 tegral(ultrafinegrid)
 ----------------------------------------------------------------------

 ------------------------------------------------------
 Candidate Structure: Conf:807 Charge calc in gas phase
 ------------------------------------------------------
 Structure from the checkpoint file:  "conf-807.chk"
 Charge =  1 Multiplicity = 1

                          Input orientation:
 ---------------------------------------------------------------------
 Center     Atomic      Atomic             Coordinates (Angstroms)
 Number     Number       Type             X           Y           Z
 ---------------------------------------------------------------------
      1          7           0       -0.593304   -2.204668    3.122646
      2          1           0        0.057474   -1.439576    2.795330
      3          1           0       -0.456859   -2.422206    4.113393
      4          1           0       -0.373373   -3.033025    2.554664
      5          6           0       -2.013299   -1.758440    2.785467
      6          1           0       -2.228820   -0.922504    3.457506
      7          6           0       -1.813360   -1.325236    1.313826
      8          6           0       -3.016186   -2.893720    2.951428
      9          1           0       -2.764899   -3.696784    2.250914
     10          1           0       -3.991455   -2.500954    2.639416
     11          8           0       -1.451642   -2.187497    0.526817
     12          6           0       -3.117947   -3.432628    4.389672
     13          1           0       -3.371724   -2.639440    5.098022
     14          1           0       -2.171600   -3.894216    4.703384
     15          6           0       -4.196246   -4.500195    4.504501
     16          8           0       -5.177717   -4.421798    5.199368
     17          8           0       -3.907730   -5.552383    3.703318
     18          7           0       -1.916206    0.009194    1.052486
     19          1           0       -2.151841    0.581741    1.854100
     20          6           0       -0.952642    0.652412    0.150228
     21          1           0       -1.202410    1.718481    0.159897
     22          6           0        0.457207    0.513744    0.798192
     23          6           0       -1.066506    0.145358   -1.312243
     24          1           0       -0.803364   -0.912535   -1.338888
     25          1           0       -2.131812    0.209322   -1.566597
     26          8           0        0.663011   -0.201273    1.797959
     27          6           0       -0.236279    0.916635   -2.317972
     28          6           0       -0.378722    2.304430   -2.493190
     29          1           0       -1.110758    2.855587   -1.905974
     30          6           0        0.688156    0.247523   -3.128517
     31          1           0        0.817166   -0.826281   -3.021164
     32          6           0        0.388961    3.001255   -3.422360
     33          1           0        0.280411    4.072546   -3.554699
     34          6           0        1.450458    0.927628   -4.078374
     35          1           0        2.164218    0.384763   -4.693792
     36          8           0        2.055909    3.050002   -5.092384
     37          1           0        2.617768    2.465873   -5.626456
     38          6           0        1.312720    2.311833   -4.218375
     39          7           0        1.430442    1.253712    0.264753
     40          1           0        1.223836    1.825342   -0.546297
     41          6           0        2.787191    1.280028    0.814663
     42          1           0        3.212146    0.272696    0.776287
     43          6           0        2.800828    1.690056    2.286117
     44          6           0        3.654311    2.261970    0.002426
     45          1           0        3.192493    3.254122    0.075007
     46          1           0        4.633332    2.331282    0.489268
     47          8           0        3.591546    1.265148    3.092232
     48          6           0        3.817621    1.836338   -1.463590
     49          1           0        2.836461    1.606030   -1.894187
     50          1           0        4.387491    0.898444   -1.499081
     51          6           0        4.485493    2.889581   -2.358501
     52          1           0        5.537844    3.032059   -2.086024
     53          1           0        4.486864    2.504599   -3.387189
     54          6           0        3.771646    4.250549   -2.354044
     55          1           0        2.678483    4.081502   -2.294802
     56          1           0        4.046953    4.807852   -1.450289
     57          7           0        4.186677    5.039712   -3.513188
     58          1           0        3.880920    6.005295   -3.410597
     59          1           0        3.715585    4.677798   -4.341262
     60          8           0        1.883935    2.649562    2.560652
     61          1           0        2.029929    2.910234    3.490005
     62          1           0       -4.628767   -6.203368    3.805591
 ---------------------------------------------------------------------

 SCF Done:  E(RB3LYP) =  -1526.27380090     A.U. after    2 cycles

 Alpha  occ. eigenvalues --  -19.29934 -19.29442 -19.27780 -19.26914 -19.26368
 Alpha  occ. eigenvalues --  -19.24273 -19.23462 -14.59980 -14.50552 -14.48938
 Alpha  occ. eigenvalues --  -14.36993 -10.44190 -10.42784 -10.42606 -10.41730
 Alpha  occ. eigenvalues --  -10.41221 -10.37431 -10.35044 -10.34553 -10.34225
 Alpha  occ. eigenvalues --  -10.33256 -10.30649 -10.29822 -10.29609 -10.29368
 Alpha  occ. eigenvalues --  -10.28981 -10.28883 -10.28748 -10.27432 -10.26989
 Alpha  occ. eigenvalues --  -10.25313  -1.20747  -1.20268  -1.19651  -1.17250
 Alpha  occ. eigenvalues --   -1.15756  -1.14283  -1.12006  -1.11271  -1.07242
 Alpha  occ. eigenvalues --   -1.05598  -0.95966  -0.95129  -0.94113  -0.91720
 Alpha  occ. eigenvalues --   -0.89513  -0.87635  -0.85137  -0.84977  -0.83491
 Alpha  occ. eigenvalues --   -0.78912  -0.77741  -0.77024  -0.75014  -0.74131
 Alpha  occ. eigenvalues --   -0.72624  -0.72217  -0.71632  -0.71556  -0.70746
 Alpha  occ. eigenvalues --   -0.70004  -0.68886  -0.66914  -0.65144  -0.64600
 Alpha  occ. eigenvalues --   -0.64096  -0.63979  -0.62156  -0.60641  -0.59753
 Alpha  occ. eigenvalues --   -0.58949  -0.58554  -0.58098  -0.57681  -0.56982
 Alpha  occ. eigenvalues --   -0.56665  -0.56428  -0.56263  -0.55423  -0.55195
 Alpha  occ. eigenvalues --   -0.54816  -0.54381  -0.54094  -0.53540  -0.52628
 Alpha  occ. eigenvalues --   -0.52283  -0.51649  -0.51542  -0.51225  -0.50252
 Alpha  occ. eigenvalues --   -0.49917  -0.49740  -0.49386  -0.49152  -0.48954
 Alpha  occ. eigenvalues --   -0.48864  -0.47787  -0.47321  -0.45827  -0.45767
 Alpha  occ. eigenvalues --   -0.44802  -0.43790  -0.43150  -0.42248  -0.42095
 Alpha  occ. eigenvalues --   -0.41550  -0.41396  -0.40705  -0.40468  -0.39941
 Alpha  occ. eigenvalues --   -0.39713  -0.39143  -0.37699  -0.36415  -0.35490
 Alpha  occ. eigenvalues --   -0.32091  -0.29279
 Alpha virt. eigenvalues --   -0.14805  -0.11823  -0.11000  -0.10780  -0.09378
 Alpha virt. eigenvalues --   -0.08710  -0.08452  -0.07024  -0.04618  -0.02950
 Alpha virt. eigenvalues --   -0.02536  -0.02464  -0.02164  -0.01341  -0.00528

 Mulliken charges:
               1
     1  N   -0.758843
     2  H    0.461563
     3  H    0.409782
     4  H    0.417601
     5  C   -0.112877
     6  H    0.194995
     7  C    0.615894
     8  C   -0.288859
     9  H    0.213230
    10  H    0.204394
    11  O   -0.489014
    12  C   -0.365628
    13  H    0.194012
    14  H    0.161876
    15  C    0.576375
    16  O   -0.419725
    17  O   -0.560144
    18  N   -0.565913
    19  H    0.345502
    20  C   -0.117933
    21  H    0.191247
    22  C    0.673288
    23  C   -0.348303
    24  H    0.202138
    25  H    0.188167
    26  O   -0.598634
    27  C    0.136822
    28  C   -0.223033
    29  H    0.141356
    30  C   -0.190147
    31  H    0.150031
    32  C   -0.151527
    33  H    0.167774
    34  C   -0.187285
    35  H    0.148928
    36  O   -0.638961
    37  H    0.424349
    38  C    0.370032
    39  N   -0.609249
    40  H    0.371895
    41  C    0.001334
    42  H    0.191122
    43  C    0.587849
    44  C   -0.322001
    45  H    0.167956
    46  H    0.185788
    47  O   -0.449441
    48  C   -0.295315
    49  H    0.142134
    50  H    0.146695
    51  C   -0.237683
    52  H    0.159040
    53  H    0.125629
    54  C   -0.143389
    55  H    0.102317
    56  H    0.142502
    57  N   -0.725961
    58  H    0.301104
    59  H    0.307240
    60  O   -0.575504
    61  H    0.421236
    62  H    0.432172
 Sum of Mulliken charges =   1.00000

 Dipole moment (field-independent basis, Debye):
    X=             -3.0676    Y=             -2.7497    Z=              6.2076  Tot=              7.4502
 Quadrupole moment (field-independent basis, Debye-Ang):
   XX=           -177.4261   YY=           -135.6229   ZZ=           -126.8319
   XY=              9.4209   XZ=            -20.8878   YZ=            -24.3053

 Normal termination of Gaussian 16 at Wed Jun  1 23:31:25 2022.
