 Gaussian 16, Revision C.01,
 Gaussian 16:  ES64L-G16RevC.01  3-Jul-2019

 ----------------------------------------------------------------------
 # B3LYP/6-31G* empiricaldispersion=gd3 guess=read geom=check nosymm in
 tegral(ultrafinegrid)
 ----------------------------------------------------------------------

 ------------------------------------------------------
 Candidate Structure: Conf:474 Charge calc in gas phase
 ------------------------------------------------------
 Structure from the checkpoint file:  "conf-474.chk"
 Charge =  1 Multiplicity = 1

                          Input orientation:
 ---------------------------------------------------------------------
 Center     Atomic      Atomic             Coordinates (Angstroms)
 Number     Number       Type             X           Y           Z
 ---------------------------------------------------------------------
      1          7           0       -5.709246    2.996403    2.731173
      2          1           0       -5.823201    2.945175    3.747035
      3          1           0       -6.405063    3.648275    2.359389
      4          1           0       -5.842162    2.019553    2.295213
      5          6           0       -4.301300    3.298722    2.295863
      6          1           0       -3.670711    3.473504    3.169301
      7          1           0       -4.293510    4.186634    1.661506
      8          6           0       -3.882919    2.022985    1.512557
      9          8           0       -4.740443    1.129197    1.415575
     10          7           0       -2.660064    2.008611    1.017158
     11          1           0       -1.980512    2.744312    1.221102
     12          6           0       -2.050929    0.882794    0.299687
     13          1           0       -2.523508   -0.041229    0.642444
     14          6           0       -0.561833    0.935852    0.676968
     15          6           0       -2.172273    1.047428   -1.232223
     16          1           0       -1.720456    2.013592   -1.489005
     17          1           0       -1.537313    0.289682   -1.707575
     18          8           0       -0.061446    2.010111    1.014641
     19          6           0       -3.600282    0.964850   -1.799049
     20          1           0       -4.222602    1.712552   -1.283817
     21          6           0       -3.568693    1.324337   -3.292389
     22          1           0       -2.948383    0.611969   -3.849757
     23          1           0       -4.575463    1.298594   -3.723314
     24          1           0       -3.155118    2.326295   -3.457427
     25          6           0       -4.232896   -0.416609   -1.581009
     26          1           0       -3.615689   -1.200913   -2.037432
     27          1           0       -4.362073   -0.647666   -0.518718
     28          1           0       -5.223575   -0.464853   -2.046081
     29          7           0        0.120818   -0.228128    0.558763
     30          1           0       -0.352904   -0.961376    0.043524
     31          6           0        1.567700   -0.186329    0.333474
     32          1           0        1.966544    0.574060    1.010077
     33          6           0        1.779555    0.262288   -1.127472
     34          6           0        2.245751   -1.544274    0.633816
     35          1           0        3.300832   -1.407949    0.358315
     36          8           0        0.944256   -0.003143   -1.993038
     37          6           0        2.174611   -1.867483    2.132086
     38          1           0        1.133732   -1.974653    2.458153
     39          1           0        2.693772   -2.807286    2.346881
     40          1           0        2.638402   -1.078911    2.735722
     41          6           0        1.681513   -2.693597   -0.217062
     42          1           0        0.660272   -2.954837    0.091066
     43          1           0        2.290030   -3.593035   -0.081190
     44          1           0        1.663083   -2.447310   -1.282812
     45          7           0        2.910171    0.960728   -1.365119
     46          1           0        3.594464    1.112933   -0.633916
     47          6           0        3.221161    1.519209   -2.671042
     48          1           0        2.755558    0.883253   -3.429133
     49          6           0        4.732779    1.494193   -2.837851
     50          6           0        2.700751    2.970725   -2.834027
     51          1           0        3.266809    3.625915   -2.157210
     52          1           0        2.929913    3.293520   -3.856352
     53          8           0        5.518905    1.344732   -1.926917
     54          6           0        1.200460    3.115017   -2.550699
     55          1           0        1.002147    2.841582   -1.506442
     56          1           0        0.641153    2.400347   -3.167013
     57          6           0        0.692116    4.537582   -2.802908
     58          1           0        1.284451    5.251174   -2.209873
     59          1           0        0.829470    4.817517   -3.854464
     60          6           0       -0.787495    4.702444   -2.447614
     61          1           0       -1.379540    3.998323   -3.048506
     62          1           0       -0.931747    4.407108   -1.386717
     63          7           0       -1.245882    6.055039   -2.767649
     64          1           0       -2.237835    6.159976   -2.564555
     65          1           0       -0.755867    6.736190   -2.189577
     66          8           0        5.090669    1.713487   -4.115629
     67          1           0        6.066577    1.733113   -4.145293
 ---------------------------------------------------------------------

 SCF Done:  E(RB3LYP) =  -1396.71377175     A.U. after    2 cycles

 Alpha  occ. eigenvalues --  -19.28854 -19.27448 -19.23204 -19.21928 -19.19852
 Alpha  occ. eigenvalues --  -14.62343 -14.51123 -14.46223 -14.44423 -14.38083
 Alpha  occ. eigenvalues --  -10.45697 -10.42856 -10.39906 -10.39853 -10.36987
 Alpha  occ. eigenvalues --  -10.35245 -10.31984 -10.31526 -10.28261 -10.28174
 Alpha  occ. eigenvalues --  -10.28063 -10.27912 -10.26350 -10.25455 -10.25302
 Alpha  occ. eigenvalues --  -10.25270 -10.25159 -10.24909 -10.24630  -1.21334
 Alpha  occ. eigenvalues --   -1.18435  -1.15936  -1.15019  -1.11848  -1.09564
 Alpha  occ. eigenvalues --   -1.07777  -1.02992  -1.00970  -0.94828  -0.92938
 Alpha  occ. eigenvalues --   -0.90131  -0.89163  -0.87292  -0.85457  -0.83317
 Alpha  occ. eigenvalues --   -0.79335  -0.76771  -0.76414  -0.76334  -0.76282
 Alpha  occ. eigenvalues --   -0.76260  -0.75909  -0.72860  -0.70633  -0.69413
 Alpha  occ. eigenvalues --   -0.68512  -0.67590  -0.66631  -0.65940  -0.65429
 Alpha  occ. eigenvalues --   -0.65173  -0.64208  -0.62566  -0.61774  -0.59972
 Alpha  occ. eigenvalues --   -0.58840  -0.57714  -0.57246  -0.56264  -0.56034
 Alpha  occ. eigenvalues --   -0.55565  -0.54870  -0.54391  -0.54053  -0.53819
 Alpha  occ. eigenvalues --   -0.53396  -0.52595  -0.52204  -0.51972  -0.51471
 Alpha  occ. eigenvalues --   -0.50517  -0.49833  -0.49661  -0.48906  -0.48684
 Alpha  occ. eigenvalues --   -0.48270  -0.47864  -0.46488  -0.46331  -0.46127
 Alpha  occ. eigenvalues --   -0.45583  -0.45240  -0.45024  -0.44681  -0.43798
 Alpha  occ. eigenvalues --   -0.42447  -0.42245  -0.42201  -0.41696  -0.41597
 Alpha  occ. eigenvalues --   -0.41408  -0.41278  -0.41134  -0.40153  -0.39933
 Alpha  occ. eigenvalues --   -0.39764  -0.39270  -0.37141  -0.36441  -0.35580
 Alpha  occ. eigenvalues --   -0.33753  -0.33104  -0.30112
 Alpha virt. eigenvalues --   -0.13895  -0.13570  -0.09130  -0.08109  -0.06819
 Alpha virt. eigenvalues --   -0.06732  -0.05997  -0.03000  -0.02758  -0.01567
 Alpha virt. eigenvalues --   -0.00951  -0.00200   0.00469   0.00755   0.01516

 Mulliken charges:
               1
     1  N   -0.751211
     2  H    0.423791
     3  H    0.423381
     4  H    0.441255
     5  C   -0.278560
     6  H    0.249090
     7  H    0.247821
     8  C    0.642808
     9  O   -0.528774
    10  N   -0.584180
    11  H    0.371877
    12  C   -0.096847
    13  H    0.191117
    14  C    0.639404
    15  C   -0.281804
    16  H    0.164252
    17  H    0.192893
    18  O   -0.539384
    19  C   -0.069390
    20  H    0.103997
    21  C   -0.455827
    22  H    0.161998
    23  H    0.154885
    24  H    0.152065
    25  C   -0.461180
    26  H    0.150711
    27  H    0.155034
    28  H    0.157341
    29  N   -0.583471
    30  H    0.351996
    31  C   -0.086442
    32  H    0.180318
    33  C    0.649692
    34  C   -0.092952
    35  H    0.153178
    36  O   -0.551463
    37  C   -0.444761
    38  H    0.149738
    39  H    0.164726
    40  H    0.150715
    41  C   -0.476322
    42  H    0.136177
    43  H    0.169738
    44  H    0.178783
    45  N   -0.604065
    46  H    0.351587
    47  C   -0.048714
    48  H    0.204760
    49  C    0.587152
    50  C   -0.266539
    51  H    0.145092
    52  H    0.170401
    53  O   -0.465015
    54  C   -0.280336
    55  H    0.146013
    56  H    0.156204
    57  C   -0.251294
    58  H    0.128731
    59  H    0.160453
    60  C   -0.146017
    61  H    0.148995
    62  H    0.090340
    63  N   -0.708080
    64  H    0.289423
    65  H    0.297053
    66  O   -0.558080
    67  H    0.425722
 Sum of Mulliken charges =   1.00000

 Dipole moment (field-independent basis, Debye):
    X=            -16.5004    Y=             12.4552    Z=              8.9097  Tot=             22.5118
 Quadrupole moment (field-independent basis, Debye-Ang):
   XX=            -45.9349   YY=           -123.1416   ZZ=           -141.2747
   XY=            -66.2900   XZ=            -66.8756   YZ=             32.8744

 Normal termination of Gaussian 16 at Thu Jun  2 03:38:36 2022.
