 Gaussian 16, Revision C.01,
 Gaussian 16:  ES64L-G16RevC.01  3-Jul-2019

 ----------------------------------------------------------------------
 # B3LYP/6-31G* empiricaldispersion=gd3 guess=read geom=check nosymm in
 tegral(ultrafinegrid)
 ----------------------------------------------------------------------

 ------------------------------------------------------
 Candidate Structure: Conf:538 Charge calc in gas phase
 ------------------------------------------------------
 Structure from the checkpoint file:  "conf-538.chk"
 Charge =  1 Multiplicity = 1

                          Input orientation:
 ---------------------------------------------------------------------
 Center     Atomic      Atomic             Coordinates (Angstroms)
 Number     Number       Type             X           Y           Z
 ---------------------------------------------------------------------
      1          7           0       -4.883515    3.164894    3.118332
      2          1           0       -4.686538    3.380464    4.099584
      3          1           0       -5.689157    3.721939    2.820659
      4          1           0       -5.097927    2.118449    3.009780
      5          6           0       -3.685911    3.304378    2.217669
      6          1           0       -2.832366    3.673250    2.789347
      7          1           0       -3.910029    4.005312    1.411841
      8          6           0       -3.457213    1.862633    1.685081
      9          8           0       -4.252005    0.994038    2.075621
     10          7           0       -2.442951    1.698958    0.852345
     11          1           0       -1.747857    2.434606    0.703996
     12          6           0       -1.989492    0.408240    0.321605
     13          1           0       -2.287106   -0.373773    1.025664
     14          6           0       -0.452485    0.538061    0.268345
     15          6           0       -2.563985    0.124202   -1.083943
     16          1           0       -2.233706    0.932865   -1.749191
     17          1           0       -2.096446   -0.794074   -1.462921
     18          8           0        0.065778    1.663115    0.307400
     19          6           0       -4.096692   -0.026397   -1.146379
     20          1           0       -4.542499    0.869426   -0.689373
     21          6           0       -4.562554   -0.086752   -2.608984
     22          1           0       -4.215498   -1.001919   -3.100838
     23          1           0       -5.656484   -0.082598   -2.664043
     24          1           0       -4.193622    0.771282   -3.184756
     25          6           0       -4.588061   -1.258587   -0.373081
     26          1           0       -4.132967   -2.172664   -0.775056
     27          1           0       -4.364172   -1.195117    0.696175
     28          1           0       -5.673781   -1.363813   -0.471337
     29          7           0        0.235820   -0.606526    0.159018
     30          1           0       -0.270511   -1.477546    0.065900
     31          6           0        1.706380   -0.674930    0.083456
     32          1           0        2.074142    0.166180    0.681324
     33          6           0        2.164938   -0.451665   -1.380993
     34          6           0        2.228804   -1.993855    0.689028
     35          1           0        3.289458   -2.030215    0.415400
     36          8           0        2.625915   -1.350339   -2.073994
     37          6           0        2.109067   -1.968795    2.219259
     38          1           0        1.060116   -1.888030    2.532516
     39          1           0        2.512113   -2.890471    2.651322
     40          1           0        2.656683   -1.125003    2.654965
     41          6           0        1.561680   -3.248996    0.100200
     42          1           0        0.517047   -3.355051    0.429992
     43          1           0        2.081499   -4.143920    0.456422
     44          1           0        1.599942   -3.242667   -0.990706
     45          7           0        1.984683    0.824762   -1.814704
     46          1           0        1.600826    1.512050   -1.175586
     47          6           0        2.232757    1.209309   -3.193169
     48          1           0        2.898867    0.448242   -3.613821
     49          6           0        2.962337    2.542444   -3.313433
     50          6           0        0.938684    1.249998   -4.036896
     51          1           0        0.273751    2.026175   -3.629097
     52          1           0        1.209524    1.566572   -5.049658
     53          8           0        3.225537    3.059892   -4.373677
     54          6           0        0.208222   -0.094649   -4.064652
     55          1           0       -0.044232   -0.388869   -3.036471
     56          1           0        0.884099   -0.873473   -4.440146
     57          6           0       -1.074446   -0.065321   -4.900905
     58          1           0       -1.724740    0.752616   -4.550050
     59          1           0       -0.838119    0.159938   -5.950232
     60          6           0       -1.856858   -1.384774   -4.819329
     61          1           0       -1.233166   -2.210268   -5.183941
     62          1           0       -2.057851   -1.608791   -3.761187
     63          7           0       -3.129962   -1.431694   -5.541145
     64          1           0       -3.663323   -0.582881   -5.356947
     65          1           0       -2.958715   -1.440034   -6.545397
     66          8           0        3.265001    3.102914   -2.117561
     67          1           0        3.726946    3.939241   -2.319387
 ---------------------------------------------------------------------

 SCF Done:  E(RB3LYP) =  -1396.70892922     A.U. after    1 cycles

 Alpha  occ. eigenvalues --  -19.29667 -19.27134 -19.24502 -19.20877 -19.19378
 Alpha  occ. eigenvalues --  -14.63099 -14.51905 -14.48302 -14.43485 -14.37495
 Alpha  occ. eigenvalues --  -10.46525 -10.43520 -10.41357 -10.39227 -10.36675
 Alpha  occ. eigenvalues --  -10.36631 -10.32563 -10.31042 -10.30272 -10.29219
 Alpha  occ. eigenvalues --  -10.27793 -10.27152 -10.26330 -10.26144 -10.26131
 Alpha  occ. eigenvalues --  -10.25503 -10.25257 -10.25106 -10.24915  -1.22121
 Alpha  occ. eigenvalues --   -1.17801  -1.16793  -1.16201  -1.11339  -1.08720
 Alpha  occ. eigenvalues --   -1.08640  -1.04507  -1.00321  -0.94296  -0.93920
 Alpha  occ. eigenvalues --   -0.91039  -0.89436  -0.87253  -0.86310  -0.83168
 Alpha  occ. eigenvalues --   -0.79733  -0.77958  -0.77307  -0.76952  -0.76720
 Alpha  occ. eigenvalues --   -0.76381  -0.76092  -0.73722  -0.71249  -0.69731
 Alpha  occ. eigenvalues --   -0.69192  -0.67627  -0.66790  -0.66468  -0.66005
 Alpha  occ. eigenvalues --   -0.65659  -0.64890  -0.63326  -0.61816  -0.60940
 Alpha  occ. eigenvalues --   -0.60217  -0.58734  -0.57550  -0.57115  -0.56507
 Alpha  occ. eigenvalues --   -0.55736  -0.55160  -0.54883  -0.54530  -0.53815
 Alpha  occ. eigenvalues --   -0.52902  -0.52843  -0.52601  -0.51628  -0.51287
 Alpha  occ. eigenvalues --   -0.50853  -0.49949  -0.49645  -0.49329  -0.49255
 Alpha  occ. eigenvalues --   -0.48380  -0.47523  -0.47065  -0.46730  -0.46312
 Alpha  occ. eigenvalues --   -0.46051  -0.45445  -0.45181  -0.44551  -0.43890
 Alpha  occ. eigenvalues --   -0.43340  -0.42740  -0.42501  -0.42420  -0.42165
 Alpha  occ. eigenvalues --   -0.41656  -0.41501  -0.41287  -0.41157  -0.40701
 Alpha  occ. eigenvalues --   -0.39660  -0.38818  -0.38513  -0.38185  -0.35500
 Alpha  occ. eigenvalues --   -0.32609  -0.32224  -0.29521
 Alpha virt. eigenvalues --   -0.14714  -0.14190  -0.10175  -0.08764  -0.07328
 Alpha virt. eigenvalues --   -0.06172  -0.06031  -0.03965  -0.03588  -0.02842
 Alpha virt. eigenvalues --   -0.01940  -0.00534   0.00347   0.00702   0.01354

 Mulliken charges:
               1
     1  N   -0.750128
     2  H    0.425709
     3  H    0.425571
     4  H    0.441222
     5  C   -0.279568
     6  H    0.250909
     7  H    0.251323
     8  C    0.638413
     9  O   -0.523049
    10  N   -0.583771
    11  H    0.373640
    12  C   -0.091978
    13  H    0.196535
    14  C    0.645653
    15  C   -0.265657
    16  H    0.157551
    17  H    0.165035
    18  O   -0.560309
    19  C   -0.073071
    20  H    0.110578
    21  C   -0.469953
    22  H    0.189860
    23  H    0.159355
    24  H    0.139587
    25  C   -0.463640
    26  H    0.153040
    27  H    0.157794
    28  H    0.162203
    29  N   -0.606390
    30  H    0.353928
    31  C   -0.076363
    32  H    0.185520
    33  C    0.630400
    34  C   -0.092097
    35  H    0.173680
    36  O   -0.510633
    37  C   -0.450921
    38  H    0.129624
    39  H    0.167800
    40  H    0.151798
    41  C   -0.481846
    42  H    0.117187
    43  H    0.171944
    44  H    0.198375
    45  N   -0.616765
    46  H    0.364656
    47  C   -0.068702
    48  H    0.220171
    49  C    0.592123
    50  C   -0.259749
    51  H    0.122581
    52  H    0.181075
    53  O   -0.450583
    54  C   -0.267300
    55  H    0.117624
    56  H    0.164663
    57  C   -0.267584
    58  H    0.112624
    59  H    0.143167
    60  C   -0.147155
    61  H    0.155736
    62  H    0.122720
    63  N   -0.710434
    64  H    0.294241
    65  H    0.305226
    66  O   -0.572506
    67  H    0.419313
 Sum of Mulliken charges =   1.00000

 Dipole moment (field-independent basis, Debye):
    X=            -17.6414    Y=             13.4079    Z=             10.8694  Tot=             24.6806
 Quadrupole moment (field-independent basis, Debye-Ang):
   XX=            -92.9209   YY=           -124.1551   ZZ=           -135.7537
   XY=            -62.9609   XZ=            -38.9498   YZ=             34.7743

 Normal termination of Gaussian 16 at Thu Jun  2 03:38:27 2022.
