 Gaussian 16, Revision C.01,
 Gaussian 16:  ES64L-G16RevC.01  3-Jul-2019

 ----------------------------------------------------------------------
 # B3LYP/6-31G* empiricaldispersion=gd3 guess=read geom=check nosymm in
 tegral(ultrafinegrid)
 ----------------------------------------------------------------------

 ------------------------------------------------------
 Candidate Structure: Conf:727 Charge calc in gas phase
 ------------------------------------------------------
 Structure from the checkpoint file:  "conf-727.chk"
 Charge =  1 Multiplicity = 1

                          Input orientation:
 ---------------------------------------------------------------------
 Center     Atomic      Atomic             Coordinates (Angstroms)
 Number     Number       Type             X           Y           Z
 ---------------------------------------------------------------------
      1          7           0       -5.663367   -0.951527    3.860488
      2          1           0       -6.354900   -0.314353    4.263992
      3          1           0       -5.796557   -1.021292    2.791241
      4          1           0       -5.781115   -1.872716    4.290368
      5          6           0       -4.252620   -0.432650    3.920314
      6          1           0       -3.622999   -1.128163    4.477692
      7          1           0       -4.236692    0.541456    4.412096
      8          6           0       -3.842198   -0.336668    2.424182
      9          8           0       -4.705993   -0.663421    1.591064
     10          7           0       -2.618001    0.079044    2.170264
     11          1           0       -1.935963    0.314489    2.898879
     12          6           0       -2.046041    0.226040    0.827248
     13          1           0       -2.290487   -0.669504    0.248752
     14          6           0       -0.526494    0.314230    1.088681
     15          6           0       -2.611750    1.486611    0.130457
     16          1           0       -3.705508    1.399600    0.161026
     17          1           0       -2.337011    2.356286    0.741301
     18          8           0       -0.116937    0.591299    2.222463
     19          6           0       -2.180198    1.720972   -1.331746
     20          1           0       -1.091759    1.854220   -1.364835
     21          6           0       -2.551658    0.546761   -2.250386
     22          1           0       -3.631869    0.355381   -2.221084
     23          1           0       -2.274603    0.768859   -3.285517
     24          1           0       -2.043684   -0.387900   -1.982487
     25          6           0       -2.820439    3.021994   -1.839518
     26          1           0       -3.915133    2.944151   -1.847047
     27          1           0       -2.547109    3.876696   -1.209749
     28          1           0       -2.494871    3.239735   -2.862089
     29          7           0        0.259205    0.095084    0.029598
     30          1           0       -0.123810   -0.085147   -0.894343
     31          6           0        1.706032    0.272802    0.040129
     32          1           0        1.944003    1.093937    0.725389
     33          6           0        2.066715    0.655907   -1.404380
     34          6           0        2.427711   -1.015225    0.540193
     35          1           0        1.967993   -1.208763    1.518458
     36          8           0        1.306104    0.386101   -2.334336
     37          6           0        2.170584   -2.214911   -0.381274
     38          1           0        2.638058   -2.065790   -1.359836
     39          1           0        2.596581   -3.122762    0.058888
     40          1           0        1.099059   -2.386822   -0.531529
     41          6           0        3.932205   -0.797388    0.756023
     42          1           0        4.462733   -0.732000   -0.199294
     43          1           0        4.355523   -1.646233    1.302890
     44          1           0        4.133897    0.104361    1.349929
     45          7           0        3.243749    1.305364   -1.580661
     46          1           0        3.883126    1.358779   -0.798603
     47          6           0        3.809364    1.463451   -2.910348
     48          1           0        3.011170    1.799007   -3.578742
     49          6           0        4.303153    0.109954   -3.429737
     50          6           0        4.952340    2.494621   -2.902789
     51          1           0        5.734053    2.153036   -2.208063
     52          1           0        5.406054    2.503219   -3.899428
     53          8           0        4.477825   -0.880016   -2.753884
     54          6           0        4.491089    3.905812   -2.521795
     55          1           0        3.978869    3.873719   -1.552239
     56          1           0        3.752004    4.252433   -3.259511
     57          6           0        5.657699    4.897012   -2.442961
     58          1           0        6.362336    4.562521   -1.670509
     59          1           0        6.200418    4.903332   -3.398646
     60          6           0        5.219251    6.328165   -2.113588
     61          1           0        6.112265    6.960517   -2.052944
     62          1           0        4.611117    6.721857   -2.948740
     63          7           0        4.539096    6.387902   -0.810545
     64          1           0        4.501659    7.352674   -0.487429
     65          1           0        3.568846    6.096266   -0.914444
     66          8           0        4.554848    0.168662   -4.751485
     67          1           0        4.890906   -0.706923   -5.022459
 ---------------------------------------------------------------------

 SCF Done:  E(RB3LYP) =  -1396.71594600     A.U. after    1 cycles

 Alpha  occ. eigenvalues --  -19.28306 -19.26960 -19.22125 -19.21475 -19.20462
 Alpha  occ. eigenvalues --  -14.61802 -14.50364 -14.45559 -14.44538 -14.36540
 Alpha  occ. eigenvalues --  -10.45057 -10.42284 -10.39312 -10.39150 -10.37351
 Alpha  occ. eigenvalues --  -10.34877 -10.31775 -10.31408 -10.28707 -10.27693
 Alpha  occ. eigenvalues --  -10.27079 -10.26505 -10.25975 -10.25542 -10.25155
 Alpha  occ. eigenvalues --  -10.24813 -10.24376 -10.23731 -10.23552  -1.20756
 Alpha  occ. eigenvalues --   -1.17922  -1.15363  -1.14121  -1.12372  -1.08982
 Alpha  occ. eigenvalues --   -1.07066  -1.02387  -1.01195  -0.93191  -0.92425
 Alpha  occ. eigenvalues --   -0.89848  -0.88600  -0.86883  -0.84863  -0.82318
 Alpha  occ. eigenvalues --   -0.79361  -0.76890  -0.76206  -0.75780  -0.75716
 Alpha  occ. eigenvalues --   -0.75406  -0.75155  -0.72002  -0.70451  -0.69137
 Alpha  occ. eigenvalues --   -0.68635  -0.67221  -0.66569  -0.65408  -0.64162
 Alpha  occ. eigenvalues --   -0.63870  -0.63331  -0.61822  -0.61305  -0.59479
 Alpha  occ. eigenvalues --   -0.58333  -0.57193  -0.56889  -0.55844  -0.55225
 Alpha  occ. eigenvalues --   -0.54798  -0.54660  -0.54023  -0.53997  -0.53900
 Alpha  occ. eigenvalues --   -0.52750  -0.52362  -0.51728  -0.51526  -0.50813
 Alpha  occ. eigenvalues --   -0.50465  -0.49365  -0.48155  -0.48000  -0.47710
 Alpha  occ. eigenvalues --   -0.47051  -0.46680  -0.46344  -0.46195  -0.45629
 Alpha  occ. eigenvalues --   -0.45222  -0.44838  -0.44517  -0.43999  -0.43509
 Alpha  occ. eigenvalues --   -0.42816  -0.42452  -0.41512  -0.41398  -0.41042
 Alpha  occ. eigenvalues --   -0.40695  -0.40645  -0.39857  -0.39532  -0.39206
 Alpha  occ. eigenvalues --   -0.38954  -0.38462  -0.36360  -0.35712  -0.35017
 Alpha  occ. eigenvalues --   -0.34011  -0.33546  -0.28827
 Alpha virt. eigenvalues --   -0.13368  -0.13094  -0.08105  -0.07526  -0.06581
 Alpha virt. eigenvalues --   -0.06039  -0.05892  -0.02430  -0.01571  -0.00617
 Alpha virt. eigenvalues --   -0.00159   0.00821   0.01080   0.02106   0.02309

 Mulliken charges:
               1
     1  N   -0.751892
     2  H    0.422388
     3  H    0.440324
     4  H    0.422676
     5  C   -0.276196
     6  H    0.248355
     7  H    0.248228
     8  C    0.642054
     9  O   -0.534221
    10  N   -0.603149
    11  H    0.376107
    12  C   -0.069441
    13  H    0.193511
    14  C    0.626981
    15  C   -0.259587
    16  H    0.161402
    17  H    0.150820
    18  O   -0.551631
    19  C   -0.099088
    20  H    0.148522
    21  C   -0.455788
    22  H    0.150965
    23  H    0.174412
    24  H    0.137525
    25  C   -0.447582
    26  H    0.146722
    27  H    0.147451
    28  H    0.162938
    29  N   -0.622240
    30  H    0.380867
    31  C   -0.069996
    32  H    0.178379
    33  C    0.643548
    34  C   -0.066943
    35  H    0.152510
    36  O   -0.546492
    37  C   -0.469989
    38  H    0.191619
    39  H    0.155208
    40  H    0.132753
    41  C   -0.492338
    42  H    0.182254
    43  H    0.165462
    44  H    0.138928
    45  N   -0.597298
    46  H    0.346112
    47  C   -0.041451
    48  H    0.201083
    49  C    0.599347
    50  C   -0.302019
    51  H    0.147986
    52  H    0.178985
    53  O   -0.458668
    54  C   -0.267057
    55  H    0.144659
    56  H    0.135865
    57  C   -0.235865
    58  H    0.145219
    59  H    0.134020
    60  C   -0.150946
    61  H    0.149664
    62  H    0.119960
    63  N   -0.718806
    64  H    0.304741
    65  H    0.292753
    66  O   -0.558461
    67  H    0.423843
 Sum of Mulliken charges =   1.00000

 Dipole moment (field-independent basis, Debye):
    X=            -14.7887    Y=              0.9095    Z=             11.4719  Tot=             18.7387
 Quadrupole moment (field-independent basis, Debye-Ang):
   XX=            -44.8663   YY=           -145.4003   ZZ=            -99.0335
   XY=             25.3711   XZ=           -100.9563   YZ=            -23.1758

 Normal termination of Gaussian 16 at Thu Jun  2 03:38:26 2022.
