 Gaussian 16, Revision C.01,
 Gaussian 16:  ES64L-G16RevC.01  3-Jul-2019

 ----------------------------------------------------------------------
 # B3LYP/6-31G* empiricaldispersion=gd3 guess=read geom=check nosymm in
 tegral(ultrafinegrid)
 ----------------------------------------------------------------------

 ------------------------------------------------------
 Candidate Structure: Conf:448 Charge calc in gas phase
 ------------------------------------------------------
 Structure from the checkpoint file:  "conf-448.chk"
 Charge =  1 Multiplicity = 1

                          Input orientation:
 ---------------------------------------------------------------------
 Center     Atomic      Atomic             Coordinates (Angstroms)
 Number     Number       Type             X           Y           Z
 ---------------------------------------------------------------------
      1          7           0       -1.531771    2.227872    3.955913
      2          1           0       -1.236137    3.051787    4.487297
      3          1           0       -1.179298    1.377823    4.413528
      4          1           0       -1.125583    2.221665    2.970430
      5          6           0       -3.033753    2.100902    3.809521
      6          1           0       -3.417392    3.051550    3.434948
      7          1           0       -3.467664    1.866638    4.782122
      8          6           0       -3.127869    0.916340    2.833704
      9          8           0       -2.678269   -0.157875    3.205313
     10          7           0       -3.494261    1.209406    1.558565
     11          1           0       -3.716378    2.177654    1.358851
     12          6           0       -2.778700    0.523244    0.485215
     13          1           0       -2.846566   -0.550288    0.675140
     14          6           0       -1.278775    0.929998    0.579425
     15          6           0       -3.388211    0.867702   -0.883978
     16          1           0       -3.244822    1.942147   -1.072051
     17          1           0       -2.813287    0.347205   -1.659749
     18          8           0       -0.873558    1.807611    1.375034
     19          6           0       -4.878410    0.503849   -1.036939
     20          1           0       -5.444576    1.056939   -0.273613
     21          6           0       -5.373830    0.954659   -2.418818
     22          1           0       -4.847144    0.416898   -3.217084
     23          1           0       -6.443974    0.752865   -2.532207
     24          1           0       -5.215309    2.028235   -2.575385
     25          6           0       -5.131337   -0.995178   -0.824106
     26          1           0       -4.535044   -1.595657   -1.523249
     27          1           0       -4.891720   -1.318995    0.195048
     28          1           0       -6.185275   -1.234179   -0.999590
     29          7           0       -0.466366    0.296747   -0.258092
     30          1           0       -0.808601   -0.407843   -0.910107
     31          6           0        0.974809    0.513056   -0.353623
     32          1           0        1.165742    1.590964   -0.311243
     33          6           0        1.362138   -0.057040   -1.728206
     34          6           0        1.728438   -0.179239    0.823850
     35          1           0        1.260755    0.243575    1.723235
     36          8           0        0.653320   -0.905053   -2.269821
     37          6           0        1.527901   -1.700665    0.827168
     38          1           0        2.004221   -2.161760   -0.043489
     39          1           0        1.981332   -2.133483    1.725004
     40          1           0        0.466470   -1.970738    0.826109
     41          6           0        3.220841    0.181371    0.845653
     42          1           0        3.758625   -0.322920    0.036754
     43          1           0        3.669264   -0.150772    1.787668
     44          1           0        3.382577    1.265538    0.771437
     45          7           0        2.502523    0.415571   -2.282886
     46          1           0        3.112668    0.988765   -1.715287
     47          6           0        3.104068   -0.267104   -3.422422
     48          1           0        2.346299   -0.363985   -4.202486
     49          6           0        3.532395   -1.674211   -2.996884
     50          6           0        4.305672    0.556221   -3.932601
     51          1           0        3.928712    1.564054   -4.150782
     52          1           0        5.027647    0.652310   -3.108915
     53          8           0        3.852395   -1.986772   -1.870035
     54          6           0        5.015847   -0.003724   -5.171640
     55          1           0        5.468538   -0.975394   -4.937424
     56          1           0        5.840179    0.670129   -5.426072
     57          6           0        4.115225   -0.152467   -6.404013
     58          1           0        3.377038   -0.948104   -6.244922
     59          1           0        3.548542    0.778866   -6.562343
     60          6           0        4.911337   -0.472535   -7.675797
     61          1           0        5.511293   -1.375386   -7.502381
     62          1           0        4.204724   -0.716188   -8.488652
     63          7           0        5.836238    0.621433   -7.997827
     64          1           0        6.464181    0.340205   -8.748195
     65          1           0        5.311151    1.419673   -8.353396
     66          8           0        3.547088   -2.523432   -4.039712
     67          1           0        3.865150   -3.385526   -3.708723
 ---------------------------------------------------------------------

 SCF Done:  E(RB3LYP) =  -1396.72090261     A.U. after    3 cycles

 Alpha  occ. eigenvalues --  -19.27846 -19.26377 -19.25596 -19.22228 -19.21880
 Alpha  occ. eigenvalues --  -14.60319 -14.49868 -14.48116 -14.45828 -14.36433
 Alpha  occ. eigenvalues --  -10.43819 -10.41916 -10.40823 -10.40136 -10.38766
 Alpha  occ. eigenvalues --  -10.35864 -10.33807 -10.32188 -10.30144 -10.29060
 Alpha  occ. eigenvalues --  -10.28692 -10.27211 -10.26091 -10.26080 -10.26019
 Alpha  occ. eigenvalues --  -10.25794 -10.25209 -10.24262 -10.23909  -1.19272
 Alpha  occ. eigenvalues --   -1.18779  -1.16426  -1.14307  -1.13857  -1.09778
 Alpha  occ. eigenvalues --   -1.06702  -1.04741  -1.02423  -0.93174  -0.92569
 Alpha  occ. eigenvalues --   -0.90277  -0.89305  -0.87707  -0.85423  -0.82558
 Alpha  occ. eigenvalues --   -0.80574  -0.77168  -0.76829  -0.76370  -0.76107
 Alpha  occ. eigenvalues --   -0.75067  -0.73571  -0.72877  -0.71851  -0.70914
 Alpha  occ. eigenvalues --   -0.68334  -0.67545  -0.67063  -0.65653  -0.64943
 Alpha  occ. eigenvalues --   -0.64790  -0.63477  -0.62639  -0.60874  -0.60077
 Alpha  occ. eigenvalues --   -0.59252  -0.57972  -0.57545  -0.56895  -0.56492
 Alpha  occ. eigenvalues --   -0.55855  -0.55437  -0.54996  -0.54554  -0.54121
 Alpha  occ. eigenvalues --   -0.53692  -0.53264  -0.52494  -0.51507  -0.51309
 Alpha  occ. eigenvalues --   -0.51258  -0.49950  -0.49561  -0.49255  -0.49117
 Alpha  occ. eigenvalues --   -0.48330  -0.48296  -0.47288  -0.46992  -0.46957
 Alpha  occ. eigenvalues --   -0.46146  -0.45944  -0.45816  -0.44083  -0.43508
 Alpha  occ. eigenvalues --   -0.43163  -0.42511  -0.42480  -0.42136  -0.42109
 Alpha  occ. eigenvalues --   -0.41976  -0.40969  -0.40019  -0.39907  -0.39712
 Alpha  occ. eigenvalues --   -0.38948  -0.38837  -0.38547  -0.37849  -0.36401
 Alpha  occ. eigenvalues --   -0.35634  -0.34920  -0.28639
 Alpha virt. eigenvalues --   -0.14669  -0.11017  -0.09797  -0.08128  -0.06869
 Alpha virt. eigenvalues --   -0.06044  -0.04722  -0.02417  -0.01731  -0.01414
 Alpha virt. eigenvalues --   -0.00102   0.00108   0.00748   0.01587   0.02162

 Mulliken charges:
               1
     1  N   -0.756359
     2  H    0.413267
     3  H    0.422136
     4  H    0.458869
     5  C   -0.265400
     6  H    0.216291
     7  H    0.245008
     8  C    0.587879
     9  O   -0.478114
    10  N   -0.549514
    11  H    0.340271
    12  C   -0.090462
    13  H    0.218558
    14  C    0.665406
    15  C   -0.296861
    16  H    0.145727
    17  H    0.167988
    18  O   -0.618778
    19  C   -0.071246
    20  H    0.131524
    21  C   -0.447680
    22  H    0.155452
    23  H    0.164887
    24  H    0.146536
    25  C   -0.460063
    26  H    0.152565
    27  H    0.151980
    28  H    0.168772
    29  N   -0.600837
    30  H    0.376882
    31  C   -0.057579
    32  H    0.172318
    33  C    0.643738
    34  C   -0.068773
    35  H    0.129576
    36  O   -0.541375
    37  C   -0.469184
    38  H    0.194920
    39  H    0.157736
    40  H    0.140912
    41  C   -0.491799
    42  H    0.192591
    43  H    0.165645
    44  H    0.132940
    45  N   -0.610133
    46  H    0.343536
    47  C   -0.022920
    48  H    0.203169
    49  C    0.603972
    50  C   -0.313769
    51  H    0.160249
    52  H    0.149136
    53  O   -0.465312
    54  C   -0.257828
    55  H    0.140944
    56  H    0.182294
    57  C   -0.265165
    58  H    0.147425
    59  H    0.122997
    60  C   -0.143054
    61  H    0.143558
    62  H    0.124516
    63  N   -0.716038
    64  H    0.306818
    65  H    0.295947
    66  O   -0.550290
    67  H    0.423598
 Sum of Mulliken charges =   1.00000

 Dipole moment (field-independent basis, Debye):
    X=             -4.6289    Y=              9.3248    Z=              5.6355  Tot=             11.8379
 Quadrupole moment (field-independent basis, Debye-Ang):
   XX=           -125.0527   YY=           -145.5685   ZZ=            -80.3135
   XY=            -23.9763   XZ=            -42.5358   YZ=             36.7397

 Normal termination of Gaussian 16 at Thu Jun  2 03:38:43 2022.
