 Gaussian 16, Revision C.01,
 Gaussian 16:  ES64L-G16RevC.01  3-Jul-2019

 ----------------------------------------------------------------------
 # B3LYP/6-31G* empiricaldispersion=gd3 guess=read geom=check nosymm in
 tegral(ultrafinegrid)
 ----------------------------------------------------------------------

 ------------------------------------------------------
 Candidate Structure: Conf:197 Charge calc in gas phase
 ------------------------------------------------------
 Structure from the checkpoint file:  "conf-197.chk"
 Charge =  1 Multiplicity = 1

                          Input orientation:
 ---------------------------------------------------------------------
 Center     Atomic      Atomic             Coordinates (Angstroms)
 Number     Number       Type             X           Y           Z
 ---------------------------------------------------------------------
      1          7           0       -5.457758    1.590406    4.001497
      2          1           0       -5.372618    1.348500    4.992358
      3          1           0       -6.303634    2.152914    3.876898
      4          1           0       -5.515814    0.694650    3.406540
      5          6           0       -4.220007    2.222582    3.425148
      6          1           0       -3.470463    2.353640    4.207611
      7          1           0       -4.466810    3.194944    2.995799
      8          6           0       -3.764629    1.206991    2.340058
      9          8           0       -4.470857    0.195019    2.199507
     10          7           0       -2.676454    1.521918    1.662371
     11          1           0       -2.074191    2.304079    1.937134
     12          6           0       -2.014641    0.666605    0.672032
     13          1           0       -2.204103   -0.378564    0.931880
     14          6           0       -0.514789    1.004804    0.820767
     15          6           0       -2.479165    0.969789   -0.769083
     16          1           0       -2.289940    2.034926   -0.957968
     17          1           0       -1.828178    0.413888   -1.457217
     18          8           0       -0.173024    2.033688    1.410571
     19          6           0       -3.947304    0.630539   -1.087256
     20          1           0       -4.587502    1.155128   -0.362798
     21          6           0       -4.294597    1.150464   -2.490456
     22          1           0       -3.677582    0.656898   -3.251541
     23          1           0       -5.343571    0.948987   -2.732747
     24          1           0       -4.129492    2.231146   -2.574064
     25          6           0       -4.229656   -0.874347   -0.976752
     26          1           0       -3.575341   -1.442351   -1.650299
     27          1           0       -4.089246   -1.246314    0.042741
     28          1           0       -5.264630   -1.092338   -1.261652
     29          7           0        0.322962    0.128323    0.244492
     30          1           0       -0.048653   -0.595067   -0.368047
     31          6           0        1.729688    0.409924   -0.017039
     32          1           0        1.870721    1.495195    0.040274
     33          6           0        1.985906   -0.083752   -1.455868
     34          6           0        2.680440   -0.275214    1.002757
     35          1           0        3.701226    0.000135    0.701534
     36          8           0        1.161890   -0.793914   -2.035906
     37          6           0        2.437886    0.264771    2.417616
     38          1           0        1.436970   -0.008309    2.769902
     39          1           0        3.167111   -0.160207    3.115498
     40          1           0        2.515800    1.356132    2.454535
     41          6           0        2.560126   -1.804179    0.956536
     42          1           0        1.548030   -2.121088    1.234406
     43          1           0        3.258001   -2.261615    1.665020
     44          1           0        2.778395   -2.206352   -0.038432
     45          7           0        3.171186    0.272119   -1.993993
     46          1           0        3.789705    0.900776   -1.499483
     47          6           0        3.571880   -0.167794   -3.330294
     48          1           0        3.185265   -1.178993   -3.477365
     49          6           0        5.086193   -0.244941   -3.438719
     50          6           0        2.992568    0.752947   -4.432609
     51          1           0        1.916721    0.825116   -4.233867
     52          1           0        3.414068    1.759604   -4.309067
     53          8           0        5.681772   -0.983253   -4.183746
     54          6           0        3.222217    0.243145   -5.859424
     55          1           0        2.806671   -0.770347   -5.949428
     56          1           0        4.296510    0.147052   -6.057370
     57          6           0        2.584394    1.154045   -6.915414
     58          1           0        1.504855    1.248099   -6.722010
     59          1           0        3.003009    2.168465   -6.830772
     60          6           0        2.794613    0.642625   -8.351133
     61          1           0        3.870456    0.544498   -8.547587
     62          1           0        2.375355   -0.368438   -8.440666
     63          7           0        2.217955    1.462489   -9.417621
     64          1           0        1.214296    1.565495   -9.271562
     65          1           0        2.606405    2.404218   -9.379369
     66          8           0        5.702326    0.671840   -2.644576
     67          1           0        6.661925    0.585519   -2.801764
 ---------------------------------------------------------------------

 SCF Done:  E(RB3LYP) =  -1396.70929737     A.U. after    3 cycles

 Alpha  occ. eigenvalues --  -19.28831 -19.27859 -19.22894 -19.21658 -19.20844
 Alpha  occ. eigenvalues --  -14.62306 -14.50909 -14.46049 -14.45119 -14.35355
 Alpha  occ. eigenvalues --  -10.45631 -10.42739 -10.39879 -10.39787 -10.37842
 Alpha  occ. eigenvalues --  -10.35374 -10.32415 -10.31687 -10.29150 -10.28340
 Alpha  occ. eigenvalues --  -10.28162 -10.26053 -10.25612 -10.25561 -10.25126
 Alpha  occ. eigenvalues --  -10.25115 -10.24993 -10.24130 -10.23337  -1.21278
 Alpha  occ. eigenvalues --   -1.18424  -1.15887  -1.14800  -1.12719  -1.09494
 Alpha  occ. eigenvalues --   -1.07641  -1.02967  -1.01581  -0.93000  -0.92165
 Alpha  occ. eigenvalues --   -0.90274  -0.89346  -0.87019  -0.85521  -0.82448
 Alpha  occ. eigenvalues --   -0.79506  -0.77051  -0.76569  -0.76231  -0.76210
 Alpha  occ. eigenvalues --   -0.75923  -0.75435  -0.72529  -0.70243  -0.69766
 Alpha  occ. eigenvalues --   -0.68078  -0.67682  -0.66698  -0.65622  -0.65300
 Alpha  occ. eigenvalues --   -0.64337  -0.64116  -0.62635  -0.62434  -0.60211
 Alpha  occ. eigenvalues --   -0.59035  -0.57869  -0.57098  -0.56016  -0.55444
 Alpha  occ. eigenvalues --   -0.55418  -0.54830  -0.54332  -0.54012  -0.53897
 Alpha  occ. eigenvalues --   -0.53021  -0.52515  -0.52233  -0.51113  -0.50586
 Alpha  occ. eigenvalues --   -0.50192  -0.49395  -0.48978  -0.48335  -0.48264
 Alpha  occ. eigenvalues --   -0.47731  -0.47505  -0.46772  -0.46299  -0.46244
 Alpha  occ. eigenvalues --   -0.45638  -0.45437  -0.44282  -0.43752  -0.43286
 Alpha  occ. eigenvalues --   -0.42792  -0.42440  -0.42013  -0.41881  -0.41663
 Alpha  occ. eigenvalues --   -0.41565  -0.41396  -0.40671  -0.40128  -0.39536
 Alpha  occ. eigenvalues --   -0.39339  -0.37984  -0.36927  -0.36076  -0.35851
 Alpha  occ. eigenvalues --   -0.34749  -0.33258  -0.27339
 Alpha virt. eigenvalues --   -0.13852  -0.13522  -0.08514  -0.08011  -0.07335
 Alpha virt. eigenvalues --   -0.06490  -0.06040  -0.02928  -0.02462  -0.01307
 Alpha virt. eigenvalues --   -0.00588   0.00390   0.01165   0.01343   0.02714

 Mulliken charges:
               1
     1  N   -0.751073
     2  H    0.423792
     3  H    0.423637
     4  H    0.440605
     5  C   -0.278817
     6  H    0.249492
     7  H    0.249733
     8  C    0.639488
     9  O   -0.527419
    10  N   -0.585865
    11  H    0.372790
    12  C   -0.089247
    13  H    0.196137
    14  C    0.627308
    15  C   -0.265101
    16  H    0.151934
    17  H    0.170395
    18  O   -0.544491
    19  C   -0.070943
    20  H    0.112087
    21  C   -0.447352
    22  H    0.157696
    23  H    0.157413
    24  H    0.145465
    25  C   -0.461387
    26  H    0.152717
    27  H    0.157550
    28  H    0.158095
    29  N   -0.598030
    30  H    0.364752
    31  C   -0.077879
    32  H    0.181784
    33  C    0.637421
    34  C   -0.074811
    35  H    0.136501
    36  O   -0.547900
    37  C   -0.442848
    38  H    0.142557
    39  H    0.157820
    40  H    0.158796
    41  C   -0.463680
    42  H    0.146734
    43  H    0.163697
    44  H    0.166244
    45  N   -0.623889
    46  H    0.357588
    47  C   -0.034293
    48  H    0.206176
    49  C    0.586279
    50  C   -0.271423
    51  H    0.163775
    52  H    0.143947
    53  O   -0.438319
    54  C   -0.271765
    55  H    0.146646
    56  H    0.162054
    57  C   -0.264969
    58  H    0.121778
    59  H    0.124742
    60  C   -0.142454
    61  H    0.147896
    62  H    0.145192
    63  N   -0.699679
    64  H    0.291435
    65  H    0.293402
    66  O   -0.586740
    67  H    0.426820
 Sum of Mulliken charges =   1.00000

 Dipole moment (field-independent basis, Debye):
    X=            -15.4750    Y=              9.8284    Z=             14.1648  Tot=             23.1671
 Quadrupole moment (field-independent basis, Debye-Ang):
   XX=            -45.3397   YY=           -158.6668   ZZ=           -129.4046
   XY=            -29.8717   XZ=            -73.0203   YZ=             12.3468

 Normal termination of Gaussian 16 at Thu Jun  2 03:38:40 2022.
