 Gaussian 16, Revision C.01,
 Gaussian 16:  ES64L-G16RevC.01  3-Jul-2019

 ----------------------------------------------------------------------
 # B3LYP/6-31G* empiricaldispersion=gd3 guess=read geom=check nosymm in
 tegral(ultrafinegrid)
 ----------------------------------------------------------------------

 ------------------------------------------------------
 Candidate Structure: Conf:156 Charge calc in gas phase
 ------------------------------------------------------
 Structure from the checkpoint file:  "conf-156.chk"
 Charge =  1 Multiplicity = 1

                          Input orientation:
 ---------------------------------------------------------------------
 Center     Atomic      Atomic             Coordinates (Angstroms)
 Number     Number       Type             X           Y           Z
 ---------------------------------------------------------------------
      1          7           0       -5.357538    1.725121    3.621330
      2          1           0       -5.448597    1.210498    4.501151
      3          1           0       -6.041704    2.485965    3.617948
      4          1           0       -5.527923    1.063672    2.785757
      5          6           0       -3.952088    2.172418    3.325322
      6          1           0       -3.294430    1.911061    4.156189
      7          1           0       -3.931291    3.252912    3.174585
      8          6           0       -3.593169    1.399249    2.025202
      9          8           0       -4.481156    0.665147    1.558503
     10          7           0       -2.386512    1.608558    1.536945
     11          1           0       -1.665475    2.099910    2.075976
     12          6           0       -1.795387    0.910089    0.390260
     13          1           0       -2.233241   -0.091200    0.331767
     14          6           0       -0.292067    0.828278    0.747571
     15          6           0       -1.987031    1.682171   -0.930872
     16          1           0       -1.469123    2.645809   -0.839761
     17          1           0       -1.457738    1.126430   -1.716740
     18          8           0        0.146916    1.475559    1.703096
     19          6           0       -3.441592    1.893022   -1.387737
     20          1           0       -3.998989    2.366274   -0.565944
     21          6           0       -3.455279    2.861813   -2.580439
     22          1           0       -2.887289    2.447270   -3.423341
     23          1           0       -4.477760    3.043446   -2.929110
     24          1           0       -3.009656    3.827198   -2.314214
     25          6           0       -4.138186    0.573129   -1.745777
     26          1           0       -3.599773    0.058753   -2.552196
     27          1           0       -4.206013   -0.101558   -0.887035
     28          1           0       -5.159578    0.757337   -2.097012
     29          7           0        0.455580    0.049012   -0.049871
     30          1           0        0.061675   -0.371980   -0.885389
     31          6           0        1.915291    0.019242    0.003979
     32          1           0        2.234154    0.875983    0.605868
     33          6           0        2.383426    0.156507   -1.453480
     34          6           0        2.450227   -1.287821    0.651046
     35          1           0        2.126703   -2.116363    0.005328
     36          8           0        1.738033   -0.367185   -2.362267
     37          6           0        3.985035   -1.287795    0.721380
     38          1           0        4.350595   -0.440376    1.316341
     39          1           0        4.338774   -2.203608    1.205460
     40          1           0        4.455917   -1.231296   -0.263980
     41          6           0        1.845318   -1.482890    2.047973
     42          1           0        2.110677   -0.649195    2.708474
     43          1           0        2.222600   -2.407831    2.496785
     44          1           0        0.753674   -1.548441    2.009972
     45          7           0        3.509831    0.880516   -1.638307
     46          1           0        4.046645    1.169297   -0.827685
     47          6           0        4.232448    0.944109   -2.901996
     48          1           0        3.955737    0.071117   -3.502258
     49          6           0        5.717732    0.851087   -2.564761
     50          6           0        3.936043    2.229623   -3.711745
     51          1           0        4.092454    3.089553   -3.047216
     52          1           0        4.695048    2.301861   -4.496820
     53          8           0        6.173544    0.945573   -1.444059
     54          6           0        2.519322    2.267483   -4.344171
     55          1           0        2.020209    1.303655   -4.191882
     56          1           0        2.628404    2.387597   -5.427738
     57          6           0        1.603728    3.389495   -3.825064
     58          1           0        2.129492    4.354995   -3.867250
     59          1           0        0.743488    3.479584   -4.504371
     60          6           0        1.063563    3.157661   -2.406665
     61          1           0        0.575084    2.176327   -2.374511
     62          1           0        1.887016    3.109980   -1.684878
     63          7           0        0.101562    4.159390   -1.921228
     64          1           0        0.569284    5.060744   -1.824039
     65          1           0       -0.614736    4.301867   -2.634297
     66          8           0        6.465767    0.676998   -3.667097
     67          1           0        7.400478    0.652785   -3.385385
 ---------------------------------------------------------------------

 SCF Done:  E(RB3LYP) =  -1396.71980546     A.U. after    1 cycles

 Alpha  occ. eigenvalues --  -19.28184 -19.27901 -19.22498 -19.22160 -19.20300
 Alpha  occ. eigenvalues --  -14.61675 -14.50078 -14.45752 -14.44577 -14.38838
 Alpha  occ. eigenvalues --  -10.44906 -10.42092 -10.40393 -10.39182 -10.37340
 Alpha  occ. eigenvalues --  -10.34626 -10.31884 -10.31748 -10.27676 -10.27636
 Alpha  occ. eigenvalues --  -10.27447 -10.27352 -10.26385 -10.25314 -10.25027
 Alpha  occ. eigenvalues --  -10.24828 -10.24791 -10.24720 -10.24694  -1.20620
 Alpha  occ. eigenvalues --   -1.18955  -1.15234  -1.14158  -1.12195  -1.10070
 Alpha  occ. eigenvalues --   -1.06898  -1.02368  -1.01265  -0.95179  -0.92247
 Alpha  occ. eigenvalues --   -0.89584  -0.88823  -0.87095  -0.84940  -0.83141
 Alpha  occ. eigenvalues --   -0.79339  -0.76278  -0.76135  -0.75973  -0.75660
 Alpha  occ. eigenvalues --   -0.75650  -0.75293  -0.71927  -0.70610  -0.70015
 Alpha  occ. eigenvalues --   -0.68475  -0.67669  -0.66607  -0.65344  -0.64854
 Alpha  occ. eigenvalues --   -0.64713  -0.63773  -0.61942  -0.61683  -0.59460
 Alpha  occ. eigenvalues --   -0.57970  -0.57392  -0.57175  -0.56890  -0.56597
 Alpha  occ. eigenvalues --   -0.55278  -0.54713  -0.54230  -0.53907  -0.53373
 Alpha  occ. eigenvalues --   -0.53169  -0.52457  -0.51854  -0.51125  -0.50679
 Alpha  occ. eigenvalues --   -0.49641  -0.49562  -0.48887  -0.48399  -0.48085
 Alpha  occ. eigenvalues --   -0.47692  -0.47343  -0.47078  -0.46429  -0.46262
 Alpha  occ. eigenvalues --   -0.45940  -0.45371  -0.44799  -0.44484  -0.43103
 Alpha  occ. eigenvalues --   -0.42813  -0.42041  -0.41743  -0.41406  -0.41358
 Alpha  occ. eigenvalues --   -0.41156  -0.40916  -0.40836  -0.40578  -0.39793
 Alpha  occ. eigenvalues --   -0.39592  -0.39388  -0.36357  -0.35999  -0.35387
 Alpha  occ. eigenvalues --   -0.33943  -0.33539  -0.30844
 Alpha virt. eigenvalues --   -0.13194  -0.12963  -0.07841  -0.07501  -0.07368
 Alpha virt. eigenvalues --   -0.06070  -0.05770  -0.02301  -0.01918  -0.00800
 Alpha virt. eigenvalues --   -0.00216  -0.00026   0.00894   0.01576   0.02686

 Mulliken charges:
               1
     1  N   -0.751822
     2  H    0.422308
     3  H    0.422091
     4  H    0.440007
     5  C   -0.279194
     6  H    0.248428
     7  H    0.249543
     8  C    0.637861
     9  O   -0.530665
    10  N   -0.581570
    11  H    0.375126
    12  C   -0.091353
    13  H    0.192433
    14  C    0.645229
    15  C   -0.290339
    16  H    0.205048
    17  H    0.151101
    18  O   -0.547774
    19  C   -0.068796
    20  H    0.109092
    21  C   -0.452485
    22  H    0.150050
    23  H    0.154981
    24  H    0.148704
    25  C   -0.459271
    26  H    0.147895
    27  H    0.158598
    28  H    0.153639
    29  N   -0.610174
    30  H    0.358516
    31  C   -0.059128
    32  H    0.179336
    33  C    0.632343
    34  C   -0.074998
    35  H    0.147144
    36  O   -0.546898
    37  C   -0.468684
    38  H    0.150388
    39  H    0.165323
    40  H    0.160553
    41  C   -0.445760
    42  H    0.157900
    43  H    0.158334
    44  H    0.138860
    45  N   -0.596940
    46  H    0.357446
    47  C   -0.057118
    48  H    0.207438
    49  C    0.584736
    50  C   -0.270717
    51  H    0.147996
    52  H    0.175522
    53  O   -0.465896
    54  C   -0.287506
    55  H    0.177334
    56  H    0.150532
    57  C   -0.272671
    58  H    0.132975
    59  H    0.131164
    60  C   -0.156412
    61  H    0.143940
    62  H    0.142938
    63  N   -0.723959
    64  H    0.303746
    65  H    0.300877
    66  O   -0.554928
    67  H    0.427582
 Sum of Mulliken charges =   1.00000

 Dipole moment (field-independent basis, Debye):
    X=            -12.8798    Y=              9.4709    Z=              9.2937  Tot=             18.4922
 Quadrupole moment (field-independent basis, Debye-Ang):
   XX=            -47.8998   YY=           -145.6896   ZZ=           -108.1860
   XY=            -34.7356   XZ=            -86.8919   YZ=             11.2715

 Normal termination of Gaussian 16 at Thu Jun  2 03:38:26 2022.
