 Gaussian 16, Revision C.01,
 Gaussian 16:  ES64L-G16RevC.01  3-Jul-2019

 ----------------------------------------------------------------------
 # B3LYP/6-31G* empiricaldispersion=gd3 guess=read geom=check nosymm in
 tegral(ultrafinegrid)
 ----------------------------------------------------------------------

 ------------------------------------------------------
 Candidate Structure: Conf:428 Charge calc in gas phase
 ------------------------------------------------------
 Structure from the checkpoint file:  "conf-428.chk"
 Charge =  1 Multiplicity = 1

                          Input orientation:
 ---------------------------------------------------------------------
 Center     Atomic      Atomic             Coordinates (Angstroms)
 Number     Number       Type             X           Y           Z
 ---------------------------------------------------------------------
      1          7           0       -1.792682    1.640083    3.800928
      2          1           0       -1.608131    2.238221    4.611395
      3          1           0       -1.725042    0.652760    4.079044
      4          1           0       -1.061997    1.773179    3.036473
      5          6           0       -3.150811    1.871851    3.170670
      6          1           0       -3.259076    2.942222    2.987164
      7          1           0       -3.923795    1.518295    3.853827
      8          6           0       -3.042260    0.992670    1.914530
      9          8           0       -2.868744   -0.207368    2.081487
     10          7           0       -2.897685    1.634164    0.726238
     11          1           0       -2.919825    2.646817    0.745907
     12          6           0       -1.919993    1.066032   -0.204732
     13          1           0       -2.262176    0.071681   -0.499730
     14          6           0       -0.575136    0.936435    0.555674
     15          6           0       -1.738960    1.974321   -1.430372
     16          1           0       -1.391228    2.957181   -1.078562
     17          1           0       -0.918795    1.564540   -2.031402
     18          8           0       -0.316462    1.654755    1.546928
     19          6           0       -2.982377    2.139630   -2.324640
     20          1           0       -3.817406    2.487884   -1.699203
     21          6           0       -2.699341    3.210440   -3.388969
     22          1           0       -1.853601    2.913091   -4.021624
     23          1           0       -3.569257    3.355617   -4.037732
     24          1           0       -2.453117    4.177047   -2.933949
     25          6           0       -3.393117    0.812688   -2.977859
     26          1           0       -2.573165    0.409763   -3.587443
     27          1           0       -3.671893    0.050360   -2.241594
     28          1           0       -4.255528    0.957088   -3.636442
     29          7           0        0.281193    0.053148    0.054486
     30          1           0        0.046031   -0.499822   -0.767246
     31          6           0        1.647668   -0.161018    0.530924
     32          1           0        1.987519    0.767095    1.001190
     33          6           0        2.442886   -0.494115   -0.746927
     34          6           0        1.731295   -1.329330    1.551007
     35          1           0        1.419018   -2.234410    1.013030
     36          8           0        1.921448   -1.216342   -1.599077
     37          6           0        3.175239   -1.517866    2.039565
     38          1           0        3.541338   -0.612760    2.542110
     39          1           0        3.226677   -2.339851    2.760305
     40          1           0        3.861758   -1.751456    1.220719
     41          6           0        0.778566   -1.115845    2.737435
     42          1           0        1.036575   -0.194503    3.275665
     43          1           0        0.865122   -1.953496    3.437395
     44          1           0       -0.266459   -1.057080    2.415063
     45          7           0        3.674626    0.036803   -0.838405
     46          1           0        4.034488    0.643827   -0.109377
     47          6           0        4.574944   -0.174137   -1.969064
     48          1           0        4.824950   -1.240129   -2.042710
     49          6           0        5.854175    0.583789   -1.636232
     50          6           0        3.974129    0.274397   -3.321093
     51          1           0        4.715816    0.068503   -4.099599
     52          1           0        3.119217   -0.377326   -3.510157
     53          8           0        6.000140    1.284103   -0.655257
     54          6           0        3.554159    1.751358   -3.365687
     55          1           0        4.444904    2.380926   -3.484833
     56          1           0        3.102244    2.040030   -2.406035
     57          6           0        2.553084    2.033730   -4.498012
     58          1           0        2.529765    3.111046   -4.711779
     59          1           0        2.873216    1.539203   -5.423267
     60          6           0        1.130581    1.566578   -4.162558
     61          1           0        1.145511    0.512950   -3.856595
     62          1           0        0.782462    2.140599   -3.279976
     63          7           0        0.261950    1.675076   -5.334211
     64          1           0       -0.655190    1.271126   -5.159802
     65          1           0        0.117837    2.649549   -5.592290
     66          8           0        6.796590    0.390735   -2.570508
     67          1           0        7.582846    0.906219   -2.306955
 ---------------------------------------------------------------------

 SCF Done:  E(RB3LYP) =  -1396.72187519     A.U. after    3 cycles

 Alpha  occ. eigenvalues --  -19.28949 -19.27012 -19.25723 -19.23643 -19.21787
 Alpha  occ. eigenvalues --  -14.60603 -14.50359 -14.48909 -14.46189 -14.38431
 Alpha  occ. eigenvalues --  -10.44318 -10.42273 -10.41559 -10.41222 -10.39049
 Alpha  occ. eigenvalues --  -10.36324 -10.34241 -10.33142 -10.30532 -10.29830
 Alpha  occ. eigenvalues --  -10.29338 -10.28011 -10.27745 -10.26874 -10.26751
 Alpha  occ. eigenvalues --  -10.26497 -10.26439 -10.25916 -10.25010  -1.20091
 Alpha  occ. eigenvalues --   -1.19824  -1.16766  -1.14607  -1.13821  -1.11244
 Alpha  occ. eigenvalues --   -1.07120  -1.05315  -1.02706  -0.95056  -0.93107
 Alpha  occ. eigenvalues --   -0.91116  -0.89802  -0.88416  -0.86092  -0.84197
 Alpha  occ. eigenvalues --   -0.81608  -0.78325  -0.77741  -0.76968  -0.76383
 Alpha  occ. eigenvalues --   -0.75401  -0.73777  -0.73240  -0.71934  -0.71327
 Alpha  occ. eigenvalues --   -0.70692  -0.68329  -0.67474  -0.67030  -0.65609
 Alpha  occ. eigenvalues --   -0.65236  -0.64511  -0.63365  -0.61792  -0.60694
 Alpha  occ. eigenvalues --   -0.59770  -0.58432  -0.57894  -0.57444  -0.57282
 Alpha  occ. eigenvalues --   -0.56349  -0.56191  -0.55765  -0.55571  -0.54932
 Alpha  occ. eigenvalues --   -0.54146  -0.53964  -0.53508  -0.52989  -0.52108
 Alpha  occ. eigenvalues --   -0.52078  -0.51354  -0.50960  -0.50048  -0.49746
 Alpha  occ. eigenvalues --   -0.49076  -0.48854  -0.48768  -0.48425  -0.47786
 Alpha  occ. eigenvalues --   -0.47598  -0.46384  -0.46178  -0.45161  -0.44499
 Alpha  occ. eigenvalues --   -0.44028  -0.43756  -0.43408  -0.43243  -0.42835
 Alpha  occ. eigenvalues --   -0.42682  -0.41567  -0.41445  -0.41107  -0.40431
 Alpha  occ. eigenvalues --   -0.40348  -0.39719  -0.39180  -0.38350  -0.37088
 Alpha  occ. eigenvalues --   -0.35577  -0.35137  -0.30340
 Alpha virt. eigenvalues --   -0.15422  -0.11400  -0.10248  -0.08616  -0.07485
 Alpha virt. eigenvalues --   -0.06375  -0.04989  -0.03689  -0.02500  -0.01725
 Alpha virt. eigenvalues --   -0.01259  -0.00601  -0.00101   0.00546   0.01355

 Mulliken charges:
               1
     1  N   -0.761680
     2  H    0.413966
     3  H    0.424816
     4  H    0.462442
     5  C   -0.263067
     6  H    0.217822
     7  H    0.245889
     8  C    0.586745
     9  O   -0.477866
    10  N   -0.550625
    11  H    0.343058
    12  C   -0.070944
    13  H    0.205142
    14  C    0.661161
    15  C   -0.308316
    16  H    0.147437
    17  H    0.177857
    18  O   -0.621004
    19  C   -0.075897
    20  H    0.134593
    21  C   -0.453640
    22  H    0.139786
    23  H    0.166732
    24  H    0.146864
    25  C   -0.462553
    26  H    0.148864
    27  H    0.152846
    28  H    0.172305
    29  N   -0.589240
    30  H    0.370182
    31  C   -0.050313
    32  H    0.170142
    33  C    0.631046
    34  C   -0.073254
    35  H    0.163077
    36  O   -0.542392
    37  C   -0.466402
    38  H    0.147402
    39  H    0.170578
    40  H    0.167768
    41  C   -0.474514
    42  H    0.127321
    43  H    0.167932
    44  H    0.156938
    45  N   -0.624522
    46  H    0.361541
    47  C   -0.029181
    48  H    0.201812
    49  C    0.589451
    50  C   -0.292287
    51  H    0.175700
    52  H    0.196021
    53  O   -0.469883
    54  C   -0.275836
    55  H    0.149064
    56  H    0.125217
    57  C   -0.256746
    58  H    0.135589
    59  H    0.163728
    60  C   -0.152341
    61  H    0.154192
    62  H    0.099824
    63  N   -0.714235
    64  H    0.305683
    65  H    0.303704
    66  O   -0.555775
    67  H    0.430275
 Sum of Mulliken charges =   1.00000

 Dipole moment (field-independent basis, Debye):
    X=             -3.3123    Y=              9.1552    Z=              8.9747  Tot=             13.2414
 Quadrupole moment (field-independent basis, Debye-Ang):
   XX=           -113.6668   YY=           -154.0656   ZZ=           -119.6588
   XY=            -23.1559   XZ=            -28.6556   YZ=             10.8718

 Normal termination of Gaussian 16 at Thu Jun  2 03:38:49 2022.
