 Gaussian 16, Revision C.01,
 Gaussian 16:  ES64L-G16RevC.01  3-Jul-2019

 ----------------------------------------------------------------------
 # B3LYP/6-31G* empiricaldispersion=gd3 guess=read geom=check nosymm in
 tegral(ultrafinegrid)
 ----------------------------------------------------------------------

 ------------------------------------------------------
 Candidate Structure: Conf:126 Charge calc in gas phase
 ------------------------------------------------------
 Structure from the checkpoint file:  "conf-126.chk"
 Charge =  1 Multiplicity = 1

                          Input orientation:
 ---------------------------------------------------------------------
 Center     Atomic      Atomic             Coordinates (Angstroms)
 Number     Number       Type             X           Y           Z
 ---------------------------------------------------------------------
      1          7           0       -5.617762    1.414923    3.762985
      2          1           0       -5.529660    1.181039    4.755411
      3          1           0       -6.461098    1.980544    3.636605
      4          1           0       -5.679558    0.512915    3.174227
      5          6           0       -4.378732    2.034123    3.176066
      6          1           0       -3.627914    2.176055    3.955275
      7          1           0       -4.623178    2.999796    2.730464
      8          6           0       -3.929276    0.998737    2.107427
      9          8           0       -4.645727   -0.009313    1.980444
     10          7           0       -2.836439    1.289346    1.429255
     11          1           0       -2.241849    2.088699    1.665309
     12          6           0       -2.189435    0.416856    0.441158
     13          1           0       -2.439759   -0.620187    0.679459
     14          6           0       -0.684855    0.698915    0.624958
     15          6           0       -2.606067    0.776945   -1.001612
     16          1           0       -2.331325    1.827930   -1.163152
     17          1           0       -1.999896    0.180318   -1.697941
     18          8           0       -0.324925    1.793234    1.073154
     19          6           0       -4.097908    0.565721   -1.323160
     20          1           0       -4.696186    1.070099   -0.549942
     21          6           0       -4.438834    1.225520   -2.667714
     22          1           0       -3.860574    0.778525   -3.484349
     23          1           0       -5.500674    1.100902   -2.906720
     24          1           0       -4.218018    2.299372   -2.656211
     25          6           0       -4.474153   -0.922806   -1.322586
     26          1           0       -3.848794   -1.478612   -2.032294
     27          1           0       -4.353191   -1.373944   -0.332423
     28          1           0       -5.520753   -1.059528   -1.616329
     29          7           0        0.140265   -0.271925    0.218512
     30          1           0       -0.208532   -1.161695   -0.127842
     31          6           0        1.587193   -0.102771    0.099771
     32          1           0        1.773312    0.911124   -0.271686
     33          6           0        2.005351   -1.149880   -0.942746
     34          6           0        2.325742   -0.265805    1.456776
     35          1           0        1.868588    0.486934    2.111989
     36          8           0        1.424758   -2.235490   -0.991719
     37          6           0        2.117255   -1.652630    2.076809
     38          1           0        2.560554   -2.439256    1.457723
     39          1           0        2.582802   -1.694963    3.067211
     40          1           0        1.052948   -1.883856    2.192721
     41          6           0        3.815958    0.070554    1.305272
     42          1           0        4.329669   -0.650713    0.659341
     43          1           0        4.311033    0.050224    2.281408
     44          1           0        3.964248    1.071291    0.880428
     45          7           0        2.990896   -0.787643   -1.789878
     46          1           0        3.507409    0.072468   -1.649334
     47          6           0        3.466559   -1.661294   -2.852099
     48          1           0        3.341614   -2.698529   -2.525457
     49          6           0        4.946977   -1.371701   -3.048824
     50          6           0        2.690577   -1.453211   -4.177667
     51          1           0        2.864353   -0.425058   -4.525359
     52          1           0        3.125015   -2.122947   -4.929375
     53          8           0        5.529090   -0.420916   -2.570563
     54          6           0        1.186827   -1.711543   -4.034266
     55          1           0        0.759846   -1.042866   -3.282382
     56          1           0        1.026009   -2.728604   -3.655746
     57          6           0        0.417557   -1.520477   -5.343630
     58          1           0        0.572692   -0.498538   -5.723526
     59          1           0        0.809364   -2.194988   -6.116943
     60          6           0       -1.085190   -1.780573   -5.193859
     61          1           0       -1.555706   -1.743286   -6.190788
     62          1           0       -1.238305   -2.796365   -4.808102
     63          7           0       -1.705809   -0.846944   -4.231207
     64          1           0       -1.647914    0.100328   -4.607713
     65          1           0       -2.701965   -1.053542   -4.171392
     66          8           0        5.524740   -2.280829   -3.853444
     67          1           0        6.458336   -2.017724   -3.965991
 ---------------------------------------------------------------------

 SCF Done:  E(RB3LYP) =  -1396.72001123     A.U. after    2 cycles

 Alpha  occ. eigenvalues --  -19.28421 -19.27358 -19.21888 -19.21884 -19.19677
 Alpha  occ. eigenvalues --  -14.61926 -14.50537 -14.45572 -14.44242 -14.38740
 Alpha  occ. eigenvalues --  -10.45217 -10.42397 -10.39839 -10.38923 -10.36905
 Alpha  occ. eigenvalues --  -10.34739 -10.31582 -10.31338 -10.28177 -10.28077
 Alpha  occ. eigenvalues --  -10.27214 -10.26984 -10.25904 -10.25760 -10.25421
 Alpha  occ. eigenvalues --  -10.24517 -10.24440 -10.24080 -10.23905  -1.20878
 Alpha  occ. eigenvalues --   -1.18374  -1.15470  -1.13897  -1.11821  -1.09493
 Alpha  occ. eigenvalues --   -1.07200  -1.02147  -1.00791  -0.94944  -0.92500
 Alpha  occ. eigenvalues --   -0.89785  -0.88663  -0.86699  -0.85107  -0.82804
 Alpha  occ. eigenvalues --   -0.79204  -0.76615  -0.76414  -0.76193  -0.75892
 Alpha  occ. eigenvalues --   -0.75576  -0.75359  -0.72132  -0.70275  -0.69246
 Alpha  occ. eigenvalues --   -0.68729  -0.67677  -0.66268  -0.65184  -0.64311
 Alpha  occ. eigenvalues --   -0.64214  -0.63812  -0.62196  -0.61730  -0.59193
 Alpha  occ. eigenvalues --   -0.57897  -0.57314  -0.56882  -0.56176  -0.55834
 Alpha  occ. eigenvalues --   -0.55410  -0.54598  -0.54014  -0.53748  -0.53220
 Alpha  occ. eigenvalues --   -0.52921  -0.52413  -0.51886  -0.51449  -0.50931
 Alpha  occ. eigenvalues --   -0.50531  -0.49568  -0.48980  -0.48096  -0.47998
 Alpha  occ. eigenvalues --   -0.47764  -0.47353  -0.46823  -0.46113  -0.45728
 Alpha  occ. eigenvalues --   -0.45178  -0.44934  -0.44725  -0.44260  -0.43394
 Alpha  occ. eigenvalues --   -0.42383  -0.42029  -0.41555  -0.41523  -0.41232
 Alpha  occ. eigenvalues --   -0.40887  -0.40792  -0.40704  -0.39769  -0.39610
 Alpha  occ. eigenvalues --   -0.39439  -0.38951  -0.35978  -0.35548  -0.35046
 Alpha  occ. eigenvalues --   -0.33620  -0.32891  -0.30850
 Alpha virt. eigenvalues --   -0.13461  -0.13187  -0.08047  -0.07667  -0.06689
 Alpha virt. eigenvalues --   -0.06147  -0.05386  -0.02561  -0.02269  -0.01282
 Alpha virt. eigenvalues --    0.00158   0.00456   0.00879   0.01171   0.02178

 Mulliken charges:
               1
     1  N   -0.751574
     2  H    0.423005
     3  H    0.422547
     4  H    0.440457
     5  C   -0.278466
     6  H    0.248940
     7  H    0.248805
     8  C    0.640091
     9  O   -0.531216
    10  N   -0.582040
    11  H    0.371677
    12  C   -0.089578
    13  H    0.190148
    14  C    0.634963
    15  C   -0.276283
    16  H    0.148033
    17  H    0.195244
    18  O   -0.551852
    19  C   -0.067433
    20  H    0.108810
    21  C   -0.452459
    22  H    0.144823
    23  H    0.155521
    24  H    0.146871
    25  C   -0.466760
    26  H    0.155491
    27  H    0.158437
    28  H    0.153554
    29  N   -0.618341
    30  H    0.366616
    31  C   -0.032264
    32  H    0.169048
    33  C    0.627206
    34  C   -0.082443
    35  H    0.156057
    36  O   -0.544952
    37  C   -0.451498
    38  H    0.168347
    39  H    0.153153
    40  H    0.137843
    41  C   -0.467821
    42  H    0.159557
    43  H    0.164271
    44  H    0.149027
    45  N   -0.609255
    46  H    0.355430
    47  C   -0.050088
    48  H    0.205042
    49  C    0.587056
    50  C   -0.266073
    51  H    0.140996
    52  H    0.167016
    53  O   -0.466238
    54  C   -0.248601
    55  H    0.153548
    56  H    0.152655
    57  C   -0.268288
    58  H    0.127862
    59  H    0.143974
    60  C   -0.140702
    61  H    0.130186
    62  H    0.149249
    63  N   -0.737011
    64  H    0.298999
    65  H    0.312207
    66  O   -0.557579
    67  H    0.426059
 Sum of Mulliken charges =   1.00000

 Dipole moment (field-independent basis, Debye):
    X=            -17.0937    Y=              5.7658    Z=              8.2226  Tot=             19.8255
 Quadrupole moment (field-independent basis, Debye-Ang):
   XX=            -41.8647   YY=           -164.4923   ZZ=            -88.4919
   XY=            -46.2145   XZ=            -80.8068   YZ=             29.4347

 Normal termination of Gaussian 16 at Thu Jun  2 03:38:39 2022.
