 Gaussian 16, Revision C.01,
 Gaussian 16:  ES64L-G16RevC.01  3-Jul-2019

 ----------------------------------------------------------------------
 # B3LYP/6-31G* empiricaldispersion=gd3 guess=read geom=check nosymm in
 tegral(ultrafinegrid)
 ----------------------------------------------------------------------

 ------------------------------------------------------
 Candidate Structure: Conf:121 Charge calc in gas phase
 ------------------------------------------------------
 Structure from the checkpoint file:  "conf-121.chk"
 Charge =  1 Multiplicity = 1

                          Input orientation:
 ---------------------------------------------------------------------
 Center     Atomic      Atomic             Coordinates (Angstroms)
 Number     Number       Type             X           Y           Z
 ---------------------------------------------------------------------
      1          7           0       -5.942680    1.322158    3.104369
      2          1           0       -6.697747    1.991119    2.931883
      3          1           0       -5.926133    0.570527    2.332034
      4          1           0       -6.100053    0.883718    4.015786
      5          6           0       -4.565589    1.906940    2.945836
      6          1           0       -4.008915    1.806141    3.879018
      7          1           0       -4.641302    2.963589    2.683113
      8          6           0       -3.946497    1.063400    1.796549
      9          8           0       -4.674095    0.189906    1.295811
     10          7           0       -2.700929    1.337636    1.456018
     11          1           0       -2.156825    2.083828    1.891125
     12          6           0       -1.967552    0.651010    0.384038
     13          1           0       -2.224719   -0.410129    0.421790
     14          6           0       -0.485388    0.904356    0.704214
     15          6           0       -2.333710    1.263160   -0.989946
     16          1           0       -3.415509    1.135472   -1.127539
     17          1           0       -2.135088    2.340807   -0.923224
     18          8           0       -0.172427    1.984626    1.222920
     19          6           0       -1.586561    0.678806   -2.204361
     20          1           0       -0.508999    0.789061   -2.041607
     21          6           0       -1.878113   -0.812691   -2.418883
     22          1           0       -2.942209   -0.976921   -2.630845
     23          1           0       -1.294211   -1.195378   -3.260760
     24          1           0       -1.617884   -1.430256   -1.550408
     25          6           0       -1.943004    1.485722   -3.461079
     26          1           0       -3.015273    1.418628   -3.684701
     27          1           0       -1.685998    2.544790   -3.341687
     28          1           0       -1.396436    1.104087   -4.329960
     29          7           0        0.368051   -0.075231    0.365162
     30          1           0        0.013244   -0.847660   -0.190269
     31          6           0        1.813410    0.141730    0.200188
     32          1           0        2.055341    1.073501    0.715184
     33          6           0        2.015457    0.259961   -1.320212
     34          6           0        2.650315   -1.015609    0.775165
     35          1           0        2.369040   -1.918232    0.215253
     36          8           0        1.621020   -0.648176   -2.056257
     37          6           0        4.143253   -0.740877    0.533072
     38          1           0        4.462689    0.159567    1.074212
     39          1           0        4.745692   -1.578367    0.899305
     40          1           0        4.374907   -0.593257   -0.526832
     41          6           0        2.354953   -1.229700    2.263968
     42          1           0        2.621872   -0.338213    2.846160
     43          1           0        2.940554   -2.069258    2.653073
     44          1           0        1.295600   -1.444319    2.442040
     45          7           0        2.567978    1.411892   -1.735703
     46          1           0        2.676282    2.183220   -1.056194
     47          6           0        2.695556    1.725339   -3.142369
     48          1           0        1.901218    1.199926   -3.687143
     49          6           0        4.023020    1.194655   -3.685778
     50          6           0        2.551924    3.248345   -3.349859
     51          1           0        3.411905    3.736449   -2.876003
     52          1           0        2.631663    3.461154   -4.418746
     53          8           0        4.891744    0.662821   -3.036306
     54          6           0        1.222219    3.787257   -2.765666
     55          1           0        0.748698    3.000893   -2.166737
     56          1           0        0.522567    4.003098   -3.581765
     57          6           0        1.348884    5.046818   -1.888212
     58          1           0        1.618126    5.913175   -2.506237
     59          1           0        0.356711    5.269318   -1.469830
     60          6           0        2.367641    4.968024   -0.739756
     61          1           0        3.387018    5.017025   -1.139903
     62          1           0        2.241739    5.861868   -0.108606
     63          7           0        2.266781    3.711156    0.027270
     64          1           0        2.872835    3.759903    0.844967
     65          1           0        1.322101    3.563593    0.385088
     66          8           0        4.105057    1.404584   -5.020228
     67          1           0        4.963172    1.042323   -5.311741
 ---------------------------------------------------------------------

 SCF Done:  E(RB3LYP) =  -1396.72521898     A.U. after    1 cycles

 Alpha  occ. eigenvalues --  -19.28990 -19.25699 -19.23031 -19.20057 -19.18186
 Alpha  occ. eigenvalues --  -14.62478 -14.51396 -14.46507 -14.41789 -14.40439
 Alpha  occ. eigenvalues --  -10.45840 -10.43027 -10.39970 -10.37960 -10.35491
 Alpha  occ. eigenvalues --  -10.35180 -10.30735 -10.30289 -10.29124 -10.28734
 Alpha  occ. eigenvalues --  -10.27668 -10.26366 -10.26241 -10.26073 -10.25852
 Alpha  occ. eigenvalues --  -10.25454 -10.25284 -10.24286 -10.23274  -1.21484
 Alpha  occ. eigenvalues --   -1.16518  -1.16060  -1.14732  -1.10201  -1.07918
 Alpha  occ. eigenvalues --   -1.07610  -1.02854  -0.99406  -0.96426  -0.93032
 Alpha  occ. eigenvalues --   -0.90265  -0.88283  -0.86922  -0.85212  -0.82809
 Alpha  occ. eigenvalues --   -0.78944  -0.77078  -0.76420  -0.76409  -0.76372
 Alpha  occ. eigenvalues --   -0.76045  -0.74821  -0.72605  -0.70876  -0.70061
 Alpha  occ. eigenvalues --   -0.68091  -0.67653  -0.65878  -0.64822  -0.64647
 Alpha  occ. eigenvalues --   -0.64379  -0.63877  -0.62495  -0.61065  -0.60079
 Alpha  occ. eigenvalues --   -0.57968  -0.57889  -0.56948  -0.56648  -0.56497
 Alpha  occ. eigenvalues --   -0.55288  -0.54745  -0.54435  -0.54038  -0.53075
 Alpha  occ. eigenvalues --   -0.52741  -0.52177  -0.51806  -0.51526  -0.50720
 Alpha  occ. eigenvalues --   -0.50263  -0.49711  -0.49269  -0.48449  -0.47401
 Alpha  occ. eigenvalues --   -0.46879  -0.46828  -0.46490  -0.46012  -0.45423
 Alpha  occ. eigenvalues --   -0.45373  -0.44749  -0.44518  -0.44312  -0.44171
 Alpha  occ. eigenvalues --   -0.43543  -0.43047  -0.41536  -0.41284  -0.40940
 Alpha  occ. eigenvalues --   -0.40650  -0.40443  -0.40127  -0.39947  -0.39904
 Alpha  occ. eigenvalues --   -0.39618  -0.37786  -0.36905  -0.36315  -0.33651
 Alpha  occ. eigenvalues --   -0.33284  -0.31987  -0.31699
 Alpha virt. eigenvalues --   -0.14092  -0.13687  -0.09220  -0.08189  -0.06841
 Alpha virt. eigenvalues --   -0.05210  -0.04342  -0.03143  -0.02621  -0.01806
 Alpha virt. eigenvalues --   -0.01518   0.00421   0.00729   0.01668   0.02175

 Mulliken charges:
               1
     1  N   -0.751140
     2  H    0.423778
     3  H    0.441633
     4  H    0.424277
     5  C   -0.276669
     6  H    0.249073
     7  H    0.247689
     8  C    0.642255
     9  O   -0.528772
    10  N   -0.597779
    11  H    0.369716
    12  C   -0.065238
    13  H    0.191326
    14  C    0.620236
    15  C   -0.257332
    16  H    0.157685
    17  H    0.147016
    18  O   -0.562273
    19  C   -0.115202
    20  H    0.166947
    21  C   -0.447187
    22  H    0.148261
    23  H    0.184175
    24  H    0.125535
    25  C   -0.451753
    26  H    0.146397
    27  H    0.146293
    28  H    0.165657
    29  N   -0.591143
    30  H    0.362118
    31  C   -0.069206
    32  H    0.172000
    33  C    0.630226
    34  C   -0.088975
    35  H    0.151462
    36  O   -0.562851
    37  C   -0.472913
    38  H    0.137138
    39  H    0.158942
    40  H    0.197457
    41  C   -0.445189
    42  H    0.142382
    43  H    0.161914
    44  H    0.136214
    45  N   -0.616317
    46  H    0.410551
    47  C   -0.055222
    48  H    0.191857
    49  C    0.598139
    50  C   -0.299956
    51  H    0.154895
    52  H    0.180685
    53  O   -0.449611
    54  C   -0.275009
    55  H    0.146095
    56  H    0.151181
    57  C   -0.278860
    58  H    0.155585
    59  H    0.130297
    60  C   -0.133487
    61  H    0.157512
    62  H    0.139087
    63  N   -0.781251
    64  H    0.319653
    65  H    0.336827
    66  O   -0.567189
    67  H    0.420361
 Sum of Mulliken charges =   1.00000

 Dipole moment (field-independent basis, Debye):
    X=            -18.9013    Y=             11.0548    Z=             10.7192  Tot=             24.3797
 Quadrupole moment (field-independent basis, Debye-Ang):
   XX=            -46.8946   YY=           -142.2300   ZZ=           -117.9039
   XY=            -25.0363   XZ=            -74.0152   YZ=              9.9086

 Normal termination of Gaussian 16 at Thu Jun  2 03:30:37 2022.
