 Gaussian 16, Revision C.01,
 Gaussian 16:  ES64L-G16RevC.01  3-Jul-2019

 ----------------------------------------------------------------------
 # B3LYP/6-31G* empiricaldispersion=gd3 guess=read geom=check nosymm in
 tegral(ultrafinegrid)
 ----------------------------------------------------------------------

 ------------------------------------------------------
 Candidate Structure: Conf:549 Charge calc in gas phase
 ------------------------------------------------------
 Structure from the checkpoint file:  "conf-549.chk"
 Charge =  1 Multiplicity = 1

                          Input orientation:
 ---------------------------------------------------------------------
 Center     Atomic      Atomic             Coordinates (Angstroms)
 Number     Number       Type             X           Y           Z
 ---------------------------------------------------------------------
      1          7           0       -5.743130    0.281766    3.809024
      2          1           0       -5.864306   -0.495671    4.463547
      3          1           0       -6.455431    0.988571    4.009814
      4          1           0       -5.841741   -0.070371    2.795375
      5          6           0       -4.341505    0.827388    3.772172
      6          1           0       -3.723439    0.317025    4.512924
      7          1           0       -4.355011    1.896757    3.988960
      8          6           0       -3.876711    0.535748    2.317766
      9          8           0       -4.703683   -0.019059    1.574882
     10          7           0       -2.651750    0.915807    2.007790
     11          1           0       -1.984984    1.232982    2.719572
     12          6           0       -1.970103    0.642697    0.738504
     13          1           0       -2.365584   -0.288413    0.323040
     14          6           0       -0.485905    0.479473    1.138833
     15          6           0       -2.117594    1.802890   -0.268846
     16          1           0       -1.722250    2.707800    0.211569
     17          1           0       -1.458367    1.592682   -1.121801
     18          8           0       -0.102822    0.880237    2.242667
     19          6           0       -3.542247    2.063367   -0.792157
     20          1           0       -4.203339    2.223465    0.072265
     21          6           0       -3.545319    3.347479   -1.635386
     22          1           0       -2.894866    3.238239   -2.512118
     23          1           0       -4.553827    3.574435   -1.997469
     24          1           0       -3.190022    4.210404   -1.059823
     25          6           0       -4.086978    0.877534   -1.600668
     26          1           0       -3.428820    0.651671   -2.449371
     27          1           0       -4.191321   -0.024363   -0.989876
     28          1           0       -5.077640    1.111766   -2.005244
     29          7           0        0.296166   -0.077223    0.204468
     30          1           0       -0.066352   -0.270038   -0.726608
     31          6           0        1.756518   -0.078756    0.252004
     32          1           0        2.068647    0.655090    1.002760
     33          6           0        2.187526    0.353528   -1.163941
     34          6           0        2.322397   -1.474677    0.637111
     35          1           0        2.011205   -2.171657   -0.153907
     36          8           0        1.466177    0.099540   -2.132339
     37          6           0        3.857126   -1.464822    0.708597
     38          1           0        4.211249   -0.728312    1.442295
     39          1           0        4.223563   -2.445344    1.028759
     40          1           0        4.323515   -1.236235   -0.253431
     41          6           0        1.726151   -1.945031    1.971411
     42          1           0        1.975248   -1.246565    2.778585
     43          1           0        2.125128   -2.930042    2.235842
     44          1           0        0.636180   -2.025994    1.921557
     45          7           0        3.364808    0.997990   -1.260604
     46          1           0        3.954087    1.138820   -0.447828
     47          6           0        3.951647    1.359937   -2.544342
     48          1           0        3.798042    0.531744   -3.245124
     49          6           0        5.446072    1.531569   -2.313912
     50          6           0        3.329706    2.637014   -3.154038
     51          1           0        3.808344    2.799535   -4.124453
     52          1           0        2.270608    2.420563   -3.335537
     53          8           0        5.975813    1.534368   -1.221504
     54          6           0        3.488053    3.876195   -2.267630
     55          1           0        4.553978    4.085300   -2.121937
     56          1           0        3.059929    3.670778   -1.277619
     57          6           0        2.819724    5.129929   -2.850843
     58          1           0        1.739073    4.963296   -2.964144
     59          1           0        2.929508    5.952981   -2.129875
     60          6           0        3.388304    5.578758   -4.204679
     61          1           0        3.169789    4.821015   -4.967062
     62          1           0        2.858092    6.495158   -4.519853
     63          7           0        4.847539    5.724262   -4.133990
     64          1           0        5.217830    5.965330   -5.051500
     65          1           0        5.083049    6.505070   -3.521673
     66          8           0        6.102744    1.706569   -3.470515
     67          1           0        7.040756    1.867489   -3.253644
 ---------------------------------------------------------------------

 SCF Done:  E(RB3LYP) =  -1396.71534961     A.U. after    1 cycles

 Alpha  occ. eigenvalues --  -19.28567 -19.26982 -19.22372 -19.21630 -19.19873
 Alpha  occ. eigenvalues --  -14.62048 -14.50572 -14.45691 -14.44047 -14.36517
 Alpha  occ. eigenvalues --  -10.45343 -10.42471 -10.39549 -10.39339 -10.36949
 Alpha  occ. eigenvalues --  -10.35060 -10.31767 -10.31029 -10.28905 -10.28136
 Alpha  occ. eigenvalues --  -10.27459 -10.26000 -10.25459 -10.25374 -10.24878
 Alpha  occ. eigenvalues --  -10.24713 -10.24657 -10.23844 -10.23720  -1.21006
 Alpha  occ. eigenvalues --   -1.18098  -1.15611  -1.14309  -1.11821  -1.09225
 Alpha  occ. eigenvalues --   -1.07315  -1.02469  -1.00652  -0.93212  -0.92707
 Alpha  occ. eigenvalues --   -0.89971  -0.88787  -0.86390  -0.85245  -0.82088
 Alpha  occ. eigenvalues --   -0.79254  -0.76810  -0.76373  -0.75988  -0.75681
 Alpha  occ. eigenvalues --   -0.75657  -0.75097  -0.72158  -0.70214  -0.69798
 Alpha  occ. eigenvalues --   -0.68360  -0.67776  -0.65759  -0.65332  -0.65242
 Alpha  occ. eigenvalues --   -0.64136  -0.62313  -0.62065  -0.61689  -0.59790
 Alpha  occ. eigenvalues --   -0.57869  -0.57471  -0.56849  -0.56182  -0.55223
 Alpha  occ. eigenvalues --   -0.54885  -0.54292  -0.54010  -0.53783  -0.53693
 Alpha  occ. eigenvalues --   -0.52437  -0.52221  -0.51774  -0.51417  -0.50482
 Alpha  occ. eigenvalues --   -0.49786  -0.49442  -0.48310  -0.48194  -0.47982
 Alpha  occ. eigenvalues --   -0.47651  -0.47063  -0.46622  -0.46343  -0.46106
 Alpha  occ. eigenvalues --   -0.45450  -0.45180  -0.44613  -0.43492  -0.42878
 Alpha  occ. eigenvalues --   -0.42806  -0.42345  -0.41822  -0.41631  -0.41400
 Alpha  occ. eigenvalues --   -0.41273  -0.40833  -0.39870  -0.39701  -0.39274
 Alpha  occ. eigenvalues --   -0.38450  -0.37830  -0.36486  -0.35582  -0.35133
 Alpha  occ. eigenvalues --   -0.33605  -0.33190  -0.28746
 Alpha virt. eigenvalues --   -0.13593  -0.13279  -0.08087  -0.07722  -0.06543
 Alpha virt. eigenvalues --   -0.06189  -0.05415  -0.02660  -0.02212  -0.00285
 Alpha virt. eigenvalues --    0.00472   0.00953   0.01467   0.01653   0.02381

 Mulliken charges:
               1
     1  N   -0.751300
     2  H    0.423394
     3  H    0.423054
     4  H    0.440343
     5  C   -0.278760
     6  H    0.249461
     7  H    0.249473
     8  C    0.639045
     9  O   -0.528566
    10  N   -0.585710
    11  H    0.373393
    12  C   -0.089762
    13  H    0.195069
    14  C    0.631214
    15  C   -0.262272
    16  H    0.152376
    17  H    0.167242
    18  O   -0.546951
    19  C   -0.070978
    20  H    0.112350
    21  C   -0.447060
    22  H    0.156538
    23  H    0.156801
    24  H    0.145483
    25  C   -0.461092
    26  H    0.151920
    27  H    0.158198
    28  H    0.157243
    29  N   -0.603724
    30  H    0.361505
    31  C   -0.065947
    32  H    0.176959
    33  C    0.625230
    34  C   -0.071726
    35  H    0.145402
    36  O   -0.547951
    37  C   -0.470006
    38  H    0.149946
    39  H    0.165554
    40  H    0.162481
    41  C   -0.444299
    42  H    0.158809
    43  H    0.157269
    44  H    0.138102
    45  N   -0.608936
    46  H    0.360980
    47  C   -0.039965
    48  H    0.198901
    49  C    0.592230
    50  C   -0.275912
    51  H    0.178669
    52  H    0.161884
    53  O   -0.473809
    54  C   -0.257212
    55  H    0.165159
    56  H    0.123094
    57  C   -0.267340
    58  H    0.128006
    59  H    0.132381
    60  C   -0.138970
    61  H    0.143535
    62  H    0.123406
    63  N   -0.719339
    64  H    0.305272
    65  H    0.297032
    66  O   -0.553594
    67  H    0.426777
 Sum of Mulliken charges =   1.00000

 Dipole moment (field-independent basis, Debye):
    X=            -15.4442    Y=              5.5106    Z=             11.5067  Tot=             20.0323
 Quadrupole moment (field-independent basis, Debye-Ang):
   XX=            -35.8298   YY=           -143.9533   ZZ=           -102.2578
   XY=              1.0983   XZ=           -100.5447   YZ=            -12.5909

 Normal termination of Gaussian 16 at Thu Jun  2 03:38:31 2022.
