 Gaussian 16, Revision C.01,
 Gaussian 16:  ES64L-G16RevC.01  3-Jul-2019

 ----------------------------------------------------------------------
 # B3LYP/6-31G* empiricaldispersion=gd3 guess=read geom=check nosymm in
 tegral(ultrafinegrid)
 ----------------------------------------------------------------------

 ------------------------------------------------------
 Candidate Structure: Conf:306 Charge calc in gas phase
 ------------------------------------------------------
 Structure from the checkpoint file:  "conf-306.chk"
 Charge =  1 Multiplicity = 1

                          Input orientation:
 ---------------------------------------------------------------------
 Center     Atomic      Atomic             Coordinates (Angstroms)
 Number     Number       Type             X           Y           Z
 ---------------------------------------------------------------------
      1          7           0       -2.646708    0.886730    5.199097
      2          1           0       -1.793681    1.231290    5.647976
      3          1           0       -3.398584    0.871557    5.893271
      4          1           0       -2.477704   -0.099226    4.815436
      5          6           0       -2.994793    1.630420    3.938275
      6          1           0       -2.244903    2.400431    3.749377
      7          1           0       -3.985127    2.080059    4.027875
      8          6           0       -2.906567    0.548957    2.837807
      9          8           0       -2.586288   -0.589875    3.191373
     10          7           0       -3.173507    0.930159    1.581219
     11          1           0       -3.257529    1.930727    1.432100
     12          6           0       -2.483254    0.224094    0.493691
     13          1           0       -2.721777   -0.837801    0.586115
     14          6           0       -0.958528    0.416753    0.738346
     15          6           0       -2.931937    0.767695   -0.870364
     16          1           0       -2.637795    1.826000   -0.936207
     17          1           0       -2.358065    0.250982   -1.649716
     18          8           0       -0.553084    1.189700    1.609672
     19          6           0       -4.436375    0.622498   -1.173386
     20          1           0       -4.996023    1.158471   -0.392135
     21          6           0       -4.752563    1.282778   -2.523277
     22          1           0       -4.223778    0.773994   -3.338839
     23          1           0       -5.824777    1.232916   -2.739810
     24          1           0       -4.454584    2.337828   -2.536912
     25          6           0       -4.888767   -0.844410   -1.162027
     26          1           0       -4.317070   -1.434263   -1.889869
     27          1           0       -4.769917   -1.311610   -0.177682
     28          1           0       -5.947058   -0.922093   -1.432055
     29          7           0       -0.171979   -0.332970   -0.049942
     30          1           0       -0.560524   -0.841472   -0.840498
     31          6           0        1.278010   -0.216921   -0.106464
     32          1           0        1.550304    0.790239    0.228813
     33          6           0        1.651516   -0.409010   -1.589511
     34          6           0        1.997631   -1.261137    0.794669
     35          1           0        3.074808   -1.084194    0.664027
     36          8           0        0.837397   -0.872888   -2.389577
     37          6           0        1.653389   -1.041000    2.273853
     38          1           0        0.590214   -1.231428    2.458831
     39          1           0        2.233794   -1.727139    2.900327
     40          1           0        1.866732   -0.014390    2.589036
     41          6           0        1.688179   -2.699835    0.359683
     42          1           0        0.617568   -2.912300    0.461640
     43          1           0        2.230200   -3.411802    0.990284
     44          1           0        1.971347   -2.887843   -0.681047
     45          7           0        2.922120   -0.092606   -1.918711
     46          1           0        3.535554    0.336502   -1.239207
     47          6           0        3.434512   -0.284923   -3.275306
     48          1           0        2.973347   -1.189019   -3.679843
     49          6           0        4.936525   -0.516999   -3.254195
     50          6           0        3.080296    0.909410   -4.195498
     51          1           0        2.000220    1.064828   -4.089083
     52          1           0        3.577862    1.810277   -3.811799
     53          8           0        5.543346   -1.147307   -4.084371
     54          6           0        3.428410    0.687749   -5.671361
     55          1           0        2.933275   -0.228310   -6.022908
     56          1           0        4.504824    0.510214   -5.782602
     57          6           0        3.008221    1.868472   -6.555115
     58          1           0        1.926735    2.044559   -6.450654
     59          1           0        3.505914    2.786632   -6.207525
     60          6           0        3.340269    1.649737   -8.041419
     61          1           0        4.418286    1.471331   -8.149904
     62          1           0        2.843526    0.735576   -8.392927
     63          7           0        2.972793    2.736516   -8.950083
     64          1           0        1.972270    2.920473   -8.884215
     65          1           0        3.437321    3.598301   -8.665965
     66          8           0        5.539672    0.132294   -2.221402
     67          1           0        6.498327   -0.032466   -2.304050
 ---------------------------------------------------------------------

 SCF Done:  E(RB3LYP) =  -1396.70595370     A.U. after    1 cycles

 Alpha  occ. eigenvalues --  -19.28929 -19.28018 -19.22435 -19.21806 -19.20890
 Alpha  occ. eigenvalues --  -14.62199 -14.50710 -14.46002 -14.45235 -14.35387
 Alpha  occ. eigenvalues --  -10.45501 -10.42304 -10.40022 -10.39455 -10.37930
 Alpha  occ. eigenvalues --  -10.35219 -10.32580 -10.31805 -10.29761 -10.28681
 Alpha  occ. eigenvalues --  -10.28475 -10.26148 -10.26118 -10.25748 -10.25679
 Alpha  occ. eigenvalues --  -10.25305 -10.25037 -10.24206 -10.23394  -1.21415
 Alpha  occ. eigenvalues --   -1.18573  -1.15885  -1.14263  -1.12759  -1.09641
 Alpha  occ. eigenvalues --   -1.07631  -1.02825  -1.01682  -0.92940  -0.92202
 Alpha  occ. eigenvalues --   -0.90352  -0.89556  -0.87135  -0.85239  -0.82564
 Alpha  occ. eigenvalues --   -0.79763  -0.77140  -0.76562  -0.76103  -0.76055
 Alpha  occ. eigenvalues --   -0.75585  -0.75313  -0.73553  -0.70227  -0.69838
 Alpha  occ. eigenvalues --   -0.68041  -0.67653  -0.66781  -0.65698  -0.65472
 Alpha  occ. eigenvalues --   -0.64197  -0.63983  -0.63064  -0.62194  -0.60391
 Alpha  occ. eigenvalues --   -0.59767  -0.57487  -0.56346  -0.56157  -0.55674
 Alpha  occ. eigenvalues --   -0.55534  -0.55277  -0.54425  -0.54072  -0.53574
 Alpha  occ. eigenvalues --   -0.53247  -0.52702  -0.52244  -0.51248  -0.50740
 Alpha  occ. eigenvalues --   -0.50566  -0.49524  -0.49142  -0.48398  -0.48218
 Alpha  occ. eigenvalues --   -0.47862  -0.47596  -0.46921  -0.46579  -0.46491
 Alpha  occ. eigenvalues --   -0.45916  -0.45640  -0.44370  -0.43785  -0.43386
 Alpha  occ. eigenvalues --   -0.42885  -0.42590  -0.42262  -0.42172  -0.41934
 Alpha  occ. eigenvalues --   -0.41878  -0.41630  -0.40769  -0.40760  -0.39623
 Alpha  occ. eigenvalues --   -0.39436  -0.38044  -0.36551  -0.36043  -0.35740
 Alpha  occ. eigenvalues --   -0.34786  -0.33348  -0.27371
 Alpha virt. eigenvalues --   -0.14233  -0.13223  -0.08274  -0.07931  -0.07463
 Alpha virt. eigenvalues --   -0.06950  -0.06134  -0.03265  -0.02174  -0.01461
 Alpha virt. eigenvalues --   -0.01184  -0.00636   0.00781   0.00925   0.02554

 Mulliken charges:
               1
     1  N   -0.749767
     2  H    0.426977
     3  H    0.422666
     4  H    0.440313
     5  C   -0.282807
     6  H    0.261802
     7  H    0.242921
     8  C    0.651272
     9  O   -0.514014
    10  N   -0.561209
    11  H    0.348255
    12  C   -0.095072
    13  H    0.208246
    14  C    0.644798
    15  C   -0.302010
    16  H    0.147207
    17  H    0.175041
    18  O   -0.568815
    19  C   -0.071752
    20  H    0.123769
    21  C   -0.447067
    22  H    0.157729
    23  H    0.162679
    24  H    0.146536
    25  C   -0.456987
    26  H    0.155617
    27  H    0.144492
    28  H    0.166779
    29  N   -0.602946
    30  H    0.364981
    31  C   -0.069021
    32  H    0.175530
    33  C    0.637011
    34  C   -0.073290
    35  H    0.136255
    36  O   -0.546288
    37  C   -0.447166
    38  H    0.148241
    39  H    0.154027
    40  H    0.148817
    41  C   -0.464065
    42  H    0.148627
    43  H    0.161968
    44  H    0.168681
    45  N   -0.625260
    46  H    0.355810
    47  C   -0.033858
    48  H    0.206354
    49  C    0.585873
    50  C   -0.271531
    51  H    0.164859
    52  H    0.142974
    53  O   -0.437907
    54  C   -0.271809
    55  H    0.147148
    56  H    0.161654
    57  C   -0.265073
    58  H    0.122540
    59  H    0.124181
    60  C   -0.142405
    61  H    0.147612
    62  H    0.145582
    63  N   -0.699611
    64  H    0.291867
    65  H    0.293230
    66  O   -0.587599
    67  H    0.426411
 Sum of Mulliken charges =   1.00000

 Dipole moment (field-independent basis, Debye):
    X=             -9.2724    Y=              7.1719    Z=             16.9730  Tot=             20.6275
 Quadrupole moment (field-independent basis, Debye-Ang):
   XX=           -108.8231   YY=           -162.7034   ZZ=           -101.6144
   XY=            -12.7069   XZ=            -39.3402   YZ=             13.4895

 Normal termination of Gaussian 16 at Thu Jun  2 03:38:24 2022.
