 Gaussian 16, Revision C.01,
 Gaussian 16:  ES64L-G16RevC.01  3-Jul-2019

 ----------------------------------------------------------------------
 # B3LYP/6-31G* empiricaldispersion=gd3 guess=read geom=check nosymm in
 tegral(ultrafinegrid)
 ----------------------------------------------------------------------

 ------------------------------------------------------
 Candidate Structure: Conf:252 Charge calc in gas phase
 ------------------------------------------------------
 Structure from the checkpoint file:  "conf-252.chk"
 Charge =  1 Multiplicity = 1

                          Input orientation:
 ---------------------------------------------------------------------
 Center     Atomic      Atomic             Coordinates (Angstroms)
 Number     Number       Type             X           Y           Z
 ---------------------------------------------------------------------
      1          7           0       -5.928894    3.076841    1.215286
      2          1           0       -6.238872    3.189286    2.184305
      3          1           0       -6.544548    3.629065    0.612294
      4          1           0       -5.967347    2.038419    0.934432
      5          6           0       -4.465937    3.363748    1.012039
      6          1           0       -4.019096    3.698992    1.949650
      7          1           0       -4.343302    4.141067    0.255951
      8          6           0       -3.889865    1.999270    0.541206
      9          8           0       -4.699537    1.063450    0.435701
     10          7           0       -2.594405    1.961131    0.289534
     11          1           0       -1.975290    2.748933    0.494082
     12          6           0       -1.843474    0.762482   -0.096118
     13          1           0       -2.341535   -0.112319    0.329936
     14          6           0       -0.439156    0.967128    0.500211
     15          6           0       -1.699036    0.636637   -1.630364
     16          1           0       -1.243284    1.568403   -1.989849
     17          1           0       -0.969510   -0.157102   -1.839084
     18          8           0       -0.041164    2.108162    0.737943
     19          6           0       -2.996642    0.352054   -2.407551
     20          1           0       -3.731124    1.132030   -2.157540
     21          6           0       -2.706326    0.441479   -3.913760
     22          1           0       -1.956007   -0.302761   -4.208561
     23          1           0       -3.611550    0.253864   -4.500987
     24          1           0       -2.321978    1.431091   -4.188319
     25          6           0       -3.601522   -1.010817   -2.044257
     26          1           0       -2.880985   -1.817123   -2.231044
     27          1           0       -3.911808   -1.055348   -0.995409
     28          1           0       -4.488996   -1.213244   -2.653546
     29          7           0        0.288110   -0.161842    0.664296
     30          1           0       -0.085445   -1.002047    0.232074
     31          6           0        1.754964   -0.127499    0.621906
     32          1           0        2.060720    0.864480    0.966320
     33          6           0        2.115371   -0.343122   -0.861472
     34          6           0        2.377101   -1.214452    1.527095
     35          1           0        2.036663   -2.186054    1.140358
     36          8           0        1.454813   -1.131838   -1.540369
     37          6           0        3.911408   -1.173768    1.451968
     38          1           0        4.291796   -0.207022    1.808391
     39          1           0        4.339670   -1.950038    2.093740
     40          1           0        4.289764   -1.331292    0.437499
     41          6           0        1.895882   -1.056578    2.975200
     42          1           0        2.220008   -0.093081    3.388530
     43          1           0        2.315927   -1.848628    3.603798
     44          1           0        0.805217   -1.105368    3.047831
     45          7           0        3.143219    0.387425   -1.347763
     46          1           0        3.667897    0.985311   -0.724314
     47          6           0        3.553853    0.307119   -2.742600
     48          1           0        3.145083   -0.634466   -3.124873
     49          6           0        5.067097    0.223756   -2.905798
     50          6           0        2.989690    1.465199   -3.595252
     51          1           0        3.453287    2.410573   -3.280541
     52          1           0        3.312406    1.287678   -4.625795
     53          8           0        5.617210    0.215399   -3.980334
     54          6           0        1.463483    1.580541   -3.494237
     55          1           0        1.197145    1.826986   -2.458495
     56          1           0        1.007144    0.602225   -3.693292
     57          6           0        0.861947    2.635785   -4.432694
     58          1           0       -0.195504    2.782559   -4.164074
     59          1           0        1.357944    3.603333   -4.266362
     60          6           0        0.934317    2.281703   -5.933186
     61          1           0        0.501455    3.109412   -6.508605
     62          1           0        1.981000    2.209942   -6.252830
     63          7           0        0.262165    1.050390   -6.350312
     64          1           0        0.697496    0.235354   -5.923502
     65          1           0       -0.710854    1.053808   -6.048741
     66          8           0        5.729981    0.174033   -1.723653
     67          1           0        6.681202    0.125106   -1.939976
 ---------------------------------------------------------------------

 SCF Done:  E(RB3LYP) =  -1396.71062830     A.U. after    1 cycles

 Alpha  occ. eigenvalues --  -19.29063 -19.27898 -19.23392 -19.21582 -19.20631
 Alpha  occ. eigenvalues --  -14.62539 -14.51338 -14.46484 -14.45406 -14.37064
 Alpha  occ. eigenvalues --  -10.45917 -10.43007 -10.40174 -10.39969 -10.37745
 Alpha  occ. eigenvalues --  -10.35631 -10.32440 -10.32009 -10.29041 -10.28618
 Alpha  occ. eigenvalues --  -10.28135 -10.26534 -10.26474 -10.26069 -10.25819
 Alpha  occ. eigenvalues --  -10.25520 -10.25319 -10.25224 -10.24925  -1.21529
 Alpha  occ. eigenvalues --   -1.18476  -1.16143  -1.15241  -1.12605  -1.09484
 Alpha  occ. eigenvalues --   -1.07999  -1.03315  -1.01818  -0.93850  -0.93239
 Alpha  occ. eigenvalues --   -0.90502  -0.89524  -0.87433  -0.85847  -0.83151
 Alpha  occ. eigenvalues --   -0.79532  -0.77204  -0.76937  -0.76464  -0.76451
 Alpha  occ. eigenvalues --   -0.76183  -0.76168  -0.72858  -0.70956  -0.70185
 Alpha  occ. eigenvalues --   -0.68587  -0.68333  -0.67588  -0.65956  -0.65801
 Alpha  occ. eigenvalues --   -0.64619  -0.64238  -0.62771  -0.62128  -0.60484
 Alpha  occ. eigenvalues --   -0.59507  -0.58219  -0.57818  -0.56752  -0.56228
 Alpha  occ. eigenvalues --   -0.55635  -0.54982  -0.54901  -0.54352  -0.54128
 Alpha  occ. eigenvalues --   -0.53392  -0.52544  -0.52265  -0.51784  -0.50933
 Alpha  occ. eigenvalues --   -0.50295  -0.50102  -0.49329  -0.49036  -0.48510
 Alpha  occ. eigenvalues --   -0.48060  -0.47738  -0.47413  -0.47081  -0.46643
 Alpha  occ. eigenvalues --   -0.45929  -0.45813  -0.45653  -0.44338  -0.44050
 Alpha  occ. eigenvalues --   -0.43692  -0.42847  -0.42292  -0.42116  -0.42025
 Alpha  occ. eigenvalues --   -0.41833  -0.41446  -0.40815  -0.40425  -0.40171
 Alpha  occ. eigenvalues --   -0.39697  -0.38992  -0.37233  -0.36790  -0.36316
 Alpha  occ. eigenvalues --   -0.34375  -0.33327  -0.28976
 Alpha virt. eigenvalues --   -0.14091  -0.13726  -0.09284  -0.08260  -0.06995
 Alpha virt. eigenvalues --   -0.06791  -0.06710  -0.03179  -0.02812  -0.01739
 Alpha virt. eigenvalues --   -0.01320  -0.00789  -0.00052   0.00953   0.01258

 Mulliken charges:
               1
     1  N   -0.750836
     2  H    0.424390
     3  H    0.424174
     4  H    0.441011
     5  C   -0.278711
     6  H    0.249882
     7  H    0.249751
     8  C    0.642154
     9  O   -0.527871
    10  N   -0.585068
    11  H    0.371700
    12  C   -0.092113
    13  H    0.193419
    14  C    0.624707
    15  C   -0.282057
    16  H    0.158189
    17  H    0.189517
    18  O   -0.534970
    19  C   -0.071436
    20  H    0.110330
    21  C   -0.459699
    22  H    0.158803
    23  H    0.160660
    24  H    0.147109
    25  C   -0.462045
    26  H    0.154554
    27  H    0.156418
    28  H    0.159169
    29  N   -0.581399
    30  H    0.350815
    31  C   -0.080754
    32  H    0.176889
    33  C    0.635424
    34  C   -0.088363
    35  H    0.148326
    36  O   -0.547601
    37  C   -0.471807
    38  H    0.143244
    39  H    0.168360
    40  H    0.170556
    41  C   -0.444413
    42  H    0.149232
    43  H    0.163523
    44  H    0.150269
    45  N   -0.591132
    46  H    0.347893
    47  C   -0.071897
    48  H    0.219275
    49  C    0.595705
    50  C   -0.266124
    51  H    0.142462
    52  H    0.184119
    53  O   -0.442135
    54  C   -0.273525
    55  H    0.130922
    56  H    0.140811
    57  C   -0.273154
    58  H    0.117315
    59  H    0.133264
    60  C   -0.149261
    61  H    0.149804
    62  H    0.155204
    63  N   -0.707714
    64  H    0.299772
    65  H    0.296851
    66  O   -0.577685
    67  H    0.425798
 Sum of Mulliken charges =   1.00000

 Dipole moment (field-independent basis, Debye):
    X=            -16.9097    Y=             12.9637    Z=              6.1730  Tot=             22.1833
 Quadrupole moment (field-independent basis, Debye-Ang):
   XX=            -30.2193   YY=           -127.8633   ZZ=           -185.2011
   XY=            -71.6271   XZ=            -16.8985   YZ=              9.7360

 Normal termination of Gaussian 16 at Thu Jun  2 03:38:29 2022.
