 Gaussian 16, Revision C.01,
 Gaussian 16:  ES64L-G16RevC.01  3-Jul-2019

 ----------------------------------------------------------------------
 # B3LYP/6-31G* empiricaldispersion=gd3 guess=read geom=check nosymm in
 tegral(ultrafinegrid)
 ----------------------------------------------------------------------

 ------------------------------------------------------
 Candidate Structure: Conf:772 Charge calc in gas phase
 ------------------------------------------------------
 Structure from the checkpoint file:  "conf-772.chk"
 Charge =  1 Multiplicity = 1

                          Input orientation:
 ---------------------------------------------------------------------
 Center     Atomic      Atomic             Coordinates (Angstroms)
 Number     Number       Type             X           Y           Z
 ---------------------------------------------------------------------
      1          7           0       -4.897095    3.699205    0.932924
      2          1           0       -5.176909    3.997121    1.871243
      3          1           0       -5.361129    4.303057    0.249191
      4          1           0       -5.177987    2.671430    0.771175
      5          6           0       -3.406942    3.607692    0.746667
      6          1           0       -2.898214    3.928574    1.657269
      7          1           0       -3.097564    4.245428   -0.083190
      8          6           0       -3.173745    2.101710    0.442677
      9          8           0       -4.182999    1.377395    0.416992
     10          7           0       -1.926631    1.720299    0.242984
     11          1           0       -1.131810    2.363394    0.270859
     12          6           0       -1.523059    0.347716   -0.083446
     13          1           0       -2.066188   -0.336977    0.573507
     14          6           0       -0.010814    0.323710    0.196453
     15          6           0       -1.831233    0.038099   -1.570564
     16          1           0       -2.902186    0.229381   -1.716385
     17          1           0       -1.282814    0.768611   -2.178798
     18          8           0        0.628809    1.379999    0.163639
     19          6           0       -1.508240   -1.387675   -2.061647
     20          1           0       -0.430851   -1.566492   -1.965152
     21          6           0       -2.264841   -2.464882   -1.268448
     22          1           0       -3.349153   -2.307701   -1.329745
     23          1           0       -2.046517   -3.459896   -1.669085
     24          1           0       -2.002770   -2.485806   -0.201644
     25          6           0       -1.847032   -1.489899   -3.556560
     26          1           0       -2.917661   -1.326218   -3.733506
     27          1           0       -1.290993   -0.749705   -4.142879
     28          1           0       -1.589433   -2.481527   -3.942393
     29          7           0        0.537505   -0.884566    0.433930
     30          1           0       -0.038474   -1.703601    0.290193
     31          6           0        1.991564   -1.085628    0.336404
     32          1           0        2.454771   -0.265214    0.891578
     33          6           0        2.339635   -0.961360   -1.161938
     34          6           0        2.432276   -2.416885    0.983212
     35          1           0        2.209845   -2.310669    2.054353
     36          8           0        1.978556   -1.804967   -1.982769
     37          6           0        1.691156   -3.659402    0.461371
     38          1           0        1.838675   -3.783294   -0.613187
     39          1           0        2.066358   -4.550143    0.975948
     40          1           0        0.611079   -3.621136    0.657529
     41          6           0        3.951204   -2.579449    0.818566
     42          1           0        4.214703   -2.735060   -0.233732
     43          1           0        4.303705   -3.448485    1.382682
     44          1           0        4.495517   -1.699585    1.181273
     45          7           0        2.987777    0.176353   -1.505896
     46          1           0        3.086455    0.922671   -0.826994
     47          6           0        3.093499    0.581005   -2.902100
     48          1           0        3.404565   -0.281175   -3.496134
     49          6           0        4.145360    1.675982   -2.971288
     50          6           0        1.726261    1.102795   -3.414172
     51          1           0        0.997763    0.318151   -3.180503
     52          1           0        1.458212    1.983924   -2.815353
     53          8           0        4.371103    2.453525   -2.068646
     54          6           0        1.656010    1.419775   -4.910465
     55          1           0        1.867311    0.504684   -5.480860
     56          1           0        2.435296    2.139502   -5.188403
     57          6           0        0.280971    1.971764   -5.304260
     58          1           0       -0.516385    1.298144   -4.962437
     59          1           0        0.116042    2.930888   -4.788514
     60          6           0        0.118018    2.175925   -6.811626
     61          1           0        0.956628    2.790433   -7.188341
     62          1           0        0.197318    1.202892   -7.312491
     63          7           0       -1.210294    2.727137   -7.109206
     64          1           0       -1.239953    3.706766   -6.827258
     65          1           0       -1.366112    2.726005   -8.115963
     66          8           0        4.761387    1.714637   -4.167411
     67          1           0        5.385147    2.466340   -4.146330
 ---------------------------------------------------------------------

 SCF Done:  E(RB3LYP) =  -1396.71172457     A.U. after    2 cycles

 Alpha  occ. eigenvalues --  -19.28801 -19.27752 -19.23373 -19.22043 -19.19473
 Alpha  occ. eigenvalues --  -14.62283 -14.51074 -14.46907 -14.44010 -14.37260
 Alpha  occ. eigenvalues --  -10.45614 -10.42774 -10.40167 -10.40030 -10.36671
 Alpha  occ. eigenvalues --  -10.35566 -10.32065 -10.31463 -10.29025 -10.27723
 Alpha  occ. eigenvalues --  -10.27601 -10.26822 -10.26557 -10.26156 -10.25234
 Alpha  occ. eigenvalues --  -10.24971 -10.24797 -10.24637 -10.24617  -1.21276
 Alpha  occ. eigenvalues --   -1.18642  -1.15919  -1.15203  -1.11511  -1.09699
 Alpha  occ. eigenvalues --   -1.07738  -1.03354  -1.00615  -0.93934  -0.92932
 Alpha  occ. eigenvalues --   -0.90221  -0.88832  -0.87472  -0.85338  -0.83052
 Alpha  occ. eigenvalues --   -0.79357  -0.77268  -0.76417  -0.76224  -0.76210
 Alpha  occ. eigenvalues --   -0.75873  -0.75796  -0.72576  -0.71007  -0.69631
 Alpha  occ. eigenvalues --   -0.68374  -0.67726  -0.65921  -0.65736  -0.65039
 Alpha  occ. eigenvalues --   -0.64876  -0.64571  -0.62297  -0.62093  -0.60193
 Alpha  occ. eigenvalues --   -0.58858  -0.57392  -0.57011  -0.56606  -0.56218
 Alpha  occ. eigenvalues --   -0.55364  -0.55281  -0.54613  -0.54259  -0.53522
 Alpha  occ. eigenvalues --   -0.52820  -0.52388  -0.52012  -0.51756  -0.51141
 Alpha  occ. eigenvalues --   -0.50965  -0.49882  -0.49541  -0.48599  -0.48235
 Alpha  occ. eigenvalues --   -0.47835  -0.46900  -0.46555  -0.46332  -0.46129
 Alpha  occ. eigenvalues --   -0.45465  -0.45179  -0.44901  -0.44320  -0.44000
 Alpha  occ. eigenvalues --   -0.43129  -0.42160  -0.41907  -0.41713  -0.41370
 Alpha  occ. eigenvalues --   -0.41326  -0.41125  -0.40698  -0.40069  -0.39904
 Alpha  occ. eigenvalues --   -0.39611  -0.39014  -0.37658  -0.37051  -0.35816
 Alpha  occ. eigenvalues --   -0.33518  -0.32121  -0.29552
 Alpha virt. eigenvalues --   -0.13859  -0.13521  -0.09396  -0.08037  -0.07344
 Alpha virt. eigenvalues --   -0.06548  -0.06040  -0.03061  -0.02802  -0.01919
 Alpha virt. eigenvalues --   -0.00748   0.00088   0.00538   0.01246   0.01847

 Mulliken charges:
               1
     1  N   -0.751228
     2  H    0.423768
     3  H    0.423832
     4  H    0.441013
     5  C   -0.276628
     6  H    0.249492
     7  H    0.248741
     8  C    0.643885
     9  O   -0.530894
    10  N   -0.601340
    11  H    0.374812
    12  C   -0.071243
    13  H    0.193323
    14  C    0.630149
    15  C   -0.266721
    16  H    0.161727
    17  H    0.157080
    18  O   -0.548347
    19  C   -0.122414
    20  H    0.177716
    21  C   -0.462209
    22  H    0.156269
    23  H    0.174924
    24  H    0.123597
    25  C   -0.460193
    26  H    0.145992
    27  H    0.164549
    28  H    0.165825
    29  N   -0.613895
    30  H    0.363051
    31  C   -0.051292
    32  H    0.170485
    33  C    0.626092
    34  C   -0.097209
    35  H    0.145019
    36  O   -0.534867
    37  C   -0.473929
    38  H    0.198761
    39  H    0.162784
    40  H    0.123460
    41  C   -0.463619
    42  H    0.171450
    43  H    0.165407
    44  H    0.150261
    45  N   -0.591694
    46  H    0.361676
    47  C   -0.030369
    48  H    0.200468
    49  C    0.583954
    50  C   -0.289017
    51  H    0.171523
    52  H    0.143493
    53  O   -0.465678
    54  C   -0.268620
    55  H    0.149216
    56  H    0.149779
    57  C   -0.259927
    58  H    0.149954
    59  H    0.116349
    60  C   -0.139230
    61  H    0.121268
    62  H    0.147423
    63  N   -0.720756
    64  H    0.289967
    65  H    0.305191
    66  O   -0.554685
    67  H    0.422279
 Sum of Mulliken charges =   1.00000

 Dipole moment (field-independent basis, Debye):
    X=            -13.4161    Y=             14.3828    Z=              0.5471  Tot=             19.6763
 Quadrupole moment (field-independent basis, Debye-Ang):
   XX=            -87.3619   YY=           -103.8453   ZZ=           -140.2193
   XY=            -65.6020   XZ=            -26.2636   YZ=             -5.5487

 Normal termination of Gaussian 16 at Thu Jun  2 03:47:07 2022.
