 Gaussian 16, Revision C.01,
 Gaussian 16:  ES64L-G16RevC.01  3-Jul-2019

 ----------------------------------------------------------------------
 # B3LYP/6-31G* empiricaldispersion=gd3 guess=read geom=check nosymm in
 tegral(ultrafinegrid)
 ----------------------------------------------------------------------

 -----------------------------------------------------
 Candidate Structure: Conf:34 Charge calc in gas phase
 -----------------------------------------------------
 Structure from the checkpoint file:  "conf-34.chk"
 Charge =  1 Multiplicity = 1

                          Input orientation:
 ---------------------------------------------------------------------
 Center     Atomic      Atomic             Coordinates (Angstroms)
 Number     Number       Type             X           Y           Z
 ---------------------------------------------------------------------
      1          7           0       -3.686934    0.324774    4.572838
      2          1           0       -2.966041    0.538893    5.267304
      3          1           0       -4.577447    0.186624    5.058102
      4          1           0       -3.419873   -0.563040    4.034904
      5          6           0       -3.753319    1.328827    3.454126
      6          1           0       -2.981699    2.087361    3.598980
      7          1           0       -4.738795    1.796573    3.425089
      8          6           0       -3.429596    0.494947    2.192633
      9          8           0       -3.175311   -0.702707    2.360453
     10          7           0       -3.429421    1.134546    1.019261
     11          1           0       -3.481520    2.147090    1.059236
     12          6           0       -2.580064    0.613167   -0.065633
     13          1           0       -2.941785   -0.385659   -0.319535
     14          6           0       -1.139405    0.533711    0.505350
     15          6           0       -2.685990    1.564020   -1.273905
     16          1           0       -3.752044    1.671880   -1.516718
     17          1           0       -2.325066    2.553448   -0.955993
     18          8           0       -0.811782    1.231836    1.466283
     19          6           0       -1.926230    1.144988   -2.549725
     20          1           0       -0.858294    1.057080   -2.315894
     21          6           0       -2.405766   -0.204747   -3.103459
     22          1           0       -3.470957   -0.163559   -3.364304
     23          1           0       -1.844338   -0.464889   -4.005671
     24          1           0       -2.270695   -1.033983   -2.398236
     25          6           0       -2.081029    2.244173   -3.611209
     26          1           0       -3.132955    2.372344   -3.896102
     27          1           0       -1.709151    3.209991   -3.249815
     28          1           0       -1.518388    1.991018   -4.514788
     29          7           0       -0.330329   -0.337098   -0.122562
     30          1           0       -0.629902   -0.784463   -0.984207
     31          6           0        1.110757   -0.384808    0.077980
     32          1           0        1.415519    0.562362    0.535556
     33          6           0        1.723145   -0.517423   -1.328088
     34          6           0        1.545173   -1.554434    1.004787
     35          1           0        2.640451   -1.496406    1.081778
     36          8           0        1.035603   -0.886783   -2.282496
     37          6           0        0.952776   -1.373795    2.409004
     38          1           0       -0.141192   -1.436693    2.376236
     39          1           0        1.319622   -2.160278    3.077545
     40          1           0        1.218808   -0.400895    2.835421
     41          6           0        1.172571   -2.921024    0.414483
     42          1           0        0.084785   -3.015485    0.315407
     43          1           0        1.518570   -3.725315    1.071618
     44          1           0        1.614967   -3.078939   -0.574465
     45          7           0        3.036006   -0.218792   -1.421079
     46          1           0        3.579764   -0.032798   -0.585878
     47          6           0        3.804515   -0.431131   -2.640149
     48          1           0        3.316146   -1.223598   -3.216401
     49          6           0        5.191984   -0.897601   -2.221254
     50          6           0        3.906430    0.837678   -3.520330
     51          1           0        4.458036    1.608977   -2.965353
     52          1           0        4.508594    0.584563   -4.400678
     53          8           0        5.618649   -0.844497   -1.086657
     54          6           0        2.540696    1.382615   -3.951105
     55          1           0        1.965759    1.663876   -3.059087
     56          1           0        1.965797    0.585447   -4.438966
     57          6           0        2.649154    2.595448   -4.881603
     58          1           0        3.243446    3.385616   -4.398274
     59          1           0        3.190893    2.317249   -5.797450
     60          6           0        1.271512    3.164510   -5.261036
     61          1           0        0.675000    2.375566   -5.739554
     62          1           0        0.731557    3.438879   -4.344058
     63          7           0        1.264491    4.327703   -6.148070
     64          1           0        1.816498    5.079678   -5.736580
     65          1           0        1.723252    4.094096   -7.027918
     66          8           0        5.902271   -1.339065   -3.273007
     67          1           0        6.788537   -1.584879   -2.944796
 ---------------------------------------------------------------------

 SCF Done:  E(RB3LYP) =  -1396.71538153     A.U. after    1 cycles

 Alpha  occ. eigenvalues --  -19.28857 -19.27923 -19.22479 -19.21729 -19.20687
 Alpha  occ. eigenvalues --  -14.62126 -14.50614 -14.45531 -14.44863 -14.36452
 Alpha  occ. eigenvalues --  -10.45347 -10.42290 -10.40420 -10.38876 -10.37699
 Alpha  occ. eigenvalues --  -10.34899 -10.32111 -10.31931 -10.29316 -10.28120
 Alpha  occ. eigenvalues --  -10.27712 -10.26415 -10.26298 -10.25496 -10.25407
 Alpha  occ. eigenvalues --  -10.25060 -10.24854 -10.24853 -10.24103  -1.21300
 Alpha  occ. eigenvalues --   -1.18956  -1.15780  -1.13752  -1.12520  -1.10087
 Alpha  occ. eigenvalues --   -1.07421  -1.02379  -1.01460  -0.93293  -0.92597
 Alpha  occ. eigenvalues --   -0.90119  -0.89125  -0.87302  -0.84734  -0.83076
 Alpha  occ. eigenvalues --   -0.79894  -0.76536  -0.76280  -0.75990  -0.75889
 Alpha  occ. eigenvalues --   -0.75801  -0.74890  -0.73457  -0.70641  -0.69117
 Alpha  occ. eigenvalues --   -0.68371  -0.67305  -0.66784  -0.65728  -0.64990
 Alpha  occ. eigenvalues --   -0.64727  -0.64053  -0.62144  -0.62018  -0.60009
 Alpha  occ. eigenvalues --   -0.59145  -0.57568  -0.57305  -0.55831  -0.55648
 Alpha  occ. eigenvalues --   -0.55448  -0.55131  -0.54946  -0.53952  -0.53626
 Alpha  occ. eigenvalues --   -0.53129  -0.52109  -0.51839  -0.51664  -0.50787
 Alpha  occ. eigenvalues --   -0.50429  -0.49696  -0.49368  -0.49071  -0.47920
 Alpha  occ. eigenvalues --   -0.47511  -0.46791  -0.46481  -0.46324  -0.46184
 Alpha  occ. eigenvalues --   -0.45654  -0.45111  -0.44768  -0.44067  -0.43797
 Alpha  occ. eigenvalues --   -0.42641  -0.42393  -0.41817  -0.41590  -0.41543
 Alpha  occ. eigenvalues --   -0.41386  -0.41006  -0.40933  -0.40746  -0.40342
 Alpha  occ. eigenvalues --   -0.39858  -0.38993  -0.36278  -0.35901  -0.35462
 Alpha  occ. eigenvalues --   -0.34355  -0.33891  -0.28487
 Alpha virt. eigenvalues --   -0.14132  -0.13175  -0.08176  -0.07650  -0.07287
 Alpha virt. eigenvalues --   -0.06787  -0.06265  -0.02889  -0.01872  -0.01021
 Alpha virt. eigenvalues --   -0.00871  -0.00386   0.00254   0.01074   0.02587

 Mulliken charges:
               1
     1  N   -0.749773
     2  H    0.426880
     3  H    0.422988
     4  H    0.440559
     5  C   -0.283920
     6  H    0.261716
     7  H    0.244397
     8  C    0.653803
     9  O   -0.516264
    10  N   -0.572748
    11  H    0.351344
    12  C   -0.076190
    13  H    0.199108
    14  C    0.636010
    15  C   -0.289755
    16  H    0.162043
    17  H    0.147581
    18  O   -0.566676
    19  C   -0.105342
    20  H    0.154300
    21  C   -0.451997
    22  H    0.149722
    23  H    0.176952
    24  H    0.133788
    25  C   -0.451270
    26  H    0.148233
    27  H    0.149883
    28  H    0.170990
    29  N   -0.604565
    30  H    0.376220
    31  C   -0.072877
    32  H    0.179960
    33  C    0.640093
    34  C   -0.077323
    35  H    0.144008
    36  O   -0.549276
    37  C   -0.450685
    38  H    0.146623
    39  H    0.153235
    40  H    0.151232
    41  C   -0.463460
    42  H    0.148842
    43  H    0.161036
    44  H    0.165567
    45  N   -0.607701
    46  H    0.355079
    47  C   -0.050484
    48  H    0.203777
    49  C    0.586421
    50  C   -0.264631
    51  H    0.144805
    52  H    0.170132
    53  O   -0.467215
    54  C   -0.261431
    55  H    0.133073
    56  H    0.155574
    57  C   -0.266700
    58  H    0.126845
    59  H    0.133581
    60  C   -0.146563
    61  H    0.143457
    62  H    0.135136
    63  N   -0.702589
    64  H    0.294899
    65  H    0.298410
    66  O   -0.555931
    67  H    0.427060
 Sum of Mulliken charges =   1.00000

 Dipole moment (field-independent basis, Debye):
    X=             -9.8671    Y=              3.6188    Z=             11.8103  Tot=             15.8094
 Quadrupole moment (field-independent basis, Debye-Ang):
   XX=            -83.6431   YY=           -166.1934   ZZ=            -86.4753
   XY=            -15.4554   XZ=            -82.6505   YZ=              9.5549

 Normal termination of Gaussian 16 at Thu Jun  2 03:30:36 2022.
