 Gaussian 16, Revision C.01,
 Gaussian 16:  ES64L-G16RevC.01  3-Jul-2019

 ----------------------------------------------------------------------
 # B3LYP/6-31G* empiricaldispersion=gd3 guess=read geom=check nosymm in
 tegral(ultrafinegrid)
 ----------------------------------------------------------------------

 ------------------------------------------------------
 Candidate Structure: Conf:472 Charge calc in gas phase
 ------------------------------------------------------
 Structure from the checkpoint file:  "conf-472.chk"
 Charge =  1 Multiplicity = 1

                          Input orientation:
 ---------------------------------------------------------------------
 Center     Atomic      Atomic             Coordinates (Angstroms)
 Number     Number       Type             X           Y           Z
 ---------------------------------------------------------------------
      1          7           0       -5.680808    1.577964    2.881959
      2          1           0       -6.304284    2.378486    2.749317
      3          1           0       -5.704450    0.937686    2.013210
      4          1           0       -5.988923    1.060269    3.709220
      5          6           0       -4.221708    1.943277    2.906164
      6          1           0       -3.773969    1.625482    3.849226
      7          1           0       -4.108438    3.023468    2.799059
      8          6           0       -3.638970    1.172228    1.688811
      9          8           0       -4.444393    0.499730    1.022116
     10          7           0       -2.343756    1.291028    1.472424
     11          1           0       -1.729944    1.872423    2.048383
     12          6           0       -1.622736    0.657728    0.361132
     13          1           0       -1.977853   -0.371233    0.259804
     14          6           0       -0.146420    0.715338    0.793500
     15          6           0       -1.859643    1.452607   -0.947552
     16          1           0       -2.944490    1.472725   -1.114748
     17          1           0       -1.539015    2.485643   -0.760505
     18          8           0        0.227867    1.612203    1.555192
     19          6           0       -1.170338    0.924868   -2.223232
     20          1           0       -0.084833    0.915942   -2.057524
     21          6           0       -1.610586   -0.500188   -2.586917
     22          1           0       -2.693428   -0.539528   -2.760016
     23          1           0       -1.109070   -0.831468   -3.501340
     24          1           0       -1.371320   -1.237781   -1.811440
     25          6           0       -1.462779    1.891598   -3.382215
     26          1           0       -2.543152    1.961139   -3.564480
     27          1           0       -1.097375    2.901494   -3.158269
     28          1           0       -0.997410    1.565681   -4.318659
     29          7           0        0.649717   -0.222528    0.259465
     30          1           0        0.283837   -0.879077   -0.425310
     31          6           0        2.107527   -0.124306    0.235886
     32          1           0        2.369632    0.924611    0.410581
     33          6           0        2.487589   -0.549054   -1.194498
     34          6           0        2.778097   -0.989227    1.336686
     35          1           0        2.337825   -0.629855    2.276632
     36          8           0        1.780952   -1.354167   -1.806516
     37          6           0        2.456454   -2.480837    1.182513
     38          1           0        2.869055   -2.885113    0.251820
     39          1           0        2.884020   -3.046841    2.016591
     40          1           0        1.375984   -2.659382    1.173726
     41          6           0        4.291433   -0.739077    1.388318
     42          1           0        4.787205   -1.099921    0.480118
     43          1           0        4.734394   -1.267352    2.238522
     44          1           0        4.522103    0.327558    1.504932
     45          7           0        3.593141    0.012387   -1.729563
     46          1           0        4.101487    0.724533   -1.222951
     47          6           0        3.909361   -0.187329   -3.145362
     48          1           0        3.830004   -1.254999   -3.365118
     49          6           0        5.330546    0.235325   -3.468849
     50          6           0        2.900009    0.578991   -4.035779
     51          1           0        1.907513    0.285510   -3.677524
     52          1           0        3.012323    1.652158   -3.838606
     53          8           0        5.941653   -0.139390   -4.439182
     54          6           0        2.994966    0.273038   -5.537631
     55          1           0        3.213926   -0.792956   -5.675436
     56          1           0        3.837758    0.812774   -5.985154
     57          6           0        1.684116    0.604354   -6.266662
     58          1           0        1.766490    0.296232   -7.318270
     59          1           0        0.866685    0.011721   -5.833168
     60          6           0        1.283759    2.081074   -6.210538
     61          1           0        1.267788    2.424419   -5.168366
     62          1           0        2.052845    2.682971   -6.728940
     63          7           0       -0.076002    2.253302   -6.737045
     64          1           0       -0.325270    3.241166   -6.743111
     65          1           0       -0.107403    1.950308   -7.710411
     66          8           0        5.817283    1.143058   -2.581584
     67          1           0        6.713711    1.384408   -2.883630
 ---------------------------------------------------------------------

 SCF Done:  E(RB3LYP) =  -1396.71179416     A.U. after    1 cycles

 Alpha  occ. eigenvalues --  -19.28453 -19.27938 -19.22260 -19.21630 -19.20562
 Alpha  occ. eigenvalues --  -14.61947 -14.50681 -14.45779 -14.45101 -14.37152
 Alpha  occ. eigenvalues --  -10.45243 -10.42462 -10.39964 -10.39273 -10.37632
 Alpha  occ. eigenvalues --  -10.34945 -10.32145 -10.31773 -10.28604 -10.27625
 Alpha  occ. eigenvalues --  -10.27421 -10.26462 -10.26046 -10.25157 -10.25127
 Alpha  occ. eigenvalues --  -10.24554 -10.24426 -10.24171 -10.23875  -1.20927
 Alpha  occ. eigenvalues --   -1.18479  -1.15513  -1.14262  -1.12582  -1.09522
 Alpha  occ. eigenvalues --   -1.07301  -1.02600  -1.01447  -0.93718  -0.92503
 Alpha  occ. eigenvalues --   -0.89866  -0.88832  -0.87052  -0.84856  -0.82683
 Alpha  occ. eigenvalues --   -0.79434  -0.76689  -0.75996  -0.75919  -0.75763
 Alpha  occ. eigenvalues --   -0.75677  -0.75389  -0.71981  -0.70686  -0.69595
 Alpha  occ. eigenvalues --   -0.68668  -0.67591  -0.67276  -0.65251  -0.64630
 Alpha  occ. eigenvalues --   -0.64242  -0.63622  -0.62118  -0.61929  -0.59542
 Alpha  occ. eigenvalues --   -0.59208  -0.57264  -0.56370  -0.55825  -0.55731
 Alpha  occ. eigenvalues --   -0.55120  -0.54664  -0.54179  -0.53972  -0.53710
 Alpha  occ. eigenvalues --   -0.53225  -0.52056  -0.51808  -0.51244  -0.50919
 Alpha  occ. eigenvalues --   -0.50336  -0.49894  -0.49448  -0.48303  -0.47847
 Alpha  occ. eigenvalues --   -0.47473  -0.46855  -0.46637  -0.46239  -0.45757
 Alpha  occ. eigenvalues --   -0.45498  -0.44922  -0.44593  -0.43736  -0.43624
 Alpha  occ. eigenvalues --   -0.43029  -0.42576  -0.41710  -0.41400  -0.41280
 Alpha  occ. eigenvalues --   -0.40932  -0.40762  -0.40449  -0.39719  -0.39126
 Alpha  occ. eigenvalues --   -0.39083  -0.38295  -0.36432  -0.35864  -0.35519
 Alpha  occ. eigenvalues --   -0.34415  -0.33100  -0.29387
 Alpha virt. eigenvalues --   -0.13515  -0.13235  -0.08525  -0.07745  -0.07184
 Alpha virt. eigenvalues --   -0.06263  -0.06092  -0.02591  -0.01787  -0.01179
 Alpha virt. eigenvalues --   -0.01034   0.00289   0.01073   0.01213   0.02533

 Mulliken charges:
               1
     1  N   -0.751713
     2  H    0.422807
     3  H    0.440930
     4  H    0.422991
     5  C   -0.276464
     6  H    0.248546
     7  H    0.248018
     8  C    0.642617
     9  O   -0.531878
    10  N   -0.599588
    11  H    0.373294
    12  C   -0.068397
    13  H    0.191203
    14  C    0.617783
    15  C   -0.257475
    16  H    0.159562
    17  H    0.150032
    18  O   -0.546868
    19  C   -0.099282
    20  H    0.136995
    21  C   -0.451903
    22  H    0.149482
    23  H    0.177107
    24  H    0.133568
    25  C   -0.469782
    26  H    0.141744
    27  H    0.136047
    28  H    0.204886
    29  N   -0.615456
    30  H    0.378105
    31  C   -0.060192
    32  H    0.172266
    33  C    0.638775
    34  C   -0.071727
    35  H    0.152349
    36  O   -0.548485
    37  C   -0.457700
    38  H    0.167608
    39  H    0.158880
    40  H    0.144354
    41  C   -0.468582
    42  H    0.158336
    43  H    0.167885
    44  H    0.144990
    45  N   -0.622865
    46  H    0.358222
    47  C   -0.038871
    48  H    0.207851
    49  C    0.590238
    50  C   -0.289789
    51  H    0.179998
    52  H    0.144712
    53  O   -0.440735
    54  C   -0.266784
    55  H    0.155003
    56  H    0.156009
    57  C   -0.268907
    58  H    0.139949
    59  H    0.147939
    60  C   -0.136798
    61  H    0.134378
    62  H    0.124256
    63  N   -0.722242
    64  H    0.300712
    65  H    0.302061
    66  O   -0.587093
    67  H    0.427087
 Sum of Mulliken charges =   1.00000

 Dipole moment (field-independent basis, Debye):
    X=            -14.4464    Y=              9.2903    Z=              8.6161  Tot=             19.2157
 Quadrupole moment (field-independent basis, Debye-Ang):
   XX=            -44.3766   YY=           -155.3453   ZZ=           -116.8841
   XY=            -28.8540   XZ=            -66.2218   YZ=              1.5176

 Normal termination of Gaussian 16 at Thu Jun  2 03:38:26 2022.
