 Gaussian 16, Revision C.01,
 Gaussian 16:  ES64L-G16RevC.01  3-Jul-2019

 ----------------------------------------------------------------------
 # B3LYP/6-31G* empiricaldispersion=gd3 guess=read geom=check nosymm in
 tegral(ultrafinegrid)
 ----------------------------------------------------------------------

 ------------------------------------------------------
 Candidate Structure: Conf:217 Charge calc in gas phase
 ------------------------------------------------------
 Structure from the checkpoint file:  "conf-217.chk"
 Charge =  1 Multiplicity = 1

                          Input orientation:
 ---------------------------------------------------------------------
 Center     Atomic      Atomic             Coordinates (Angstroms)
 Number     Number       Type             X           Y           Z
 ---------------------------------------------------------------------
      1          7           0       -5.837456    0.922731    2.887504
      2          1           0       -6.577806    1.615944    2.751805
      3          1           0       -5.789302    0.256030    2.039152
      4          1           0       -6.039609    0.394522    3.740323
      5          6           0       -4.449918    1.502476    2.849580
      6          1           0       -3.929974    1.285153    3.784060
      7          1           0       -4.503389    2.583490    2.709541
      8          6           0       -3.796863    0.788177    1.633176
      9          8           0       -4.512487   -0.020579    1.016689
     10          7           0       -2.543251    1.094947    1.365534
     11          1           0       -2.006130    1.781680    1.901297
     12          6           0       -1.770325    0.546416    0.242813
     13          1           0       -1.965835   -0.527470    0.182288
     14          6           0       -0.307898    0.837664    0.630699
     15          6           0       -2.175151    1.252635   -1.071812
     16          1           0       -3.255734    1.101585   -1.193880
     17          1           0       -2.009790    2.328048   -0.927397
     18          8           0       -0.059281    1.804041    1.358839
     19          6           0       -1.461676    0.793813   -2.359039
     20          1           0       -0.383927    0.976191   -2.244564
     21          6           0       -1.666148   -0.699596   -2.651636
     22          1           0       -2.733838   -0.934124   -2.748547
     23          1           0       -1.174093   -0.973011   -3.590068
     24          1           0       -1.252464   -1.354210   -1.874750
     25          6           0       -1.969598    1.645597   -3.533574
     26          1           0       -3.046661    1.490648   -3.681271
     27          1           0       -1.808464    2.714336   -3.345718
     28          1           0       -1.460179    1.395170   -4.470360
     29          7           0        0.607413   -0.001818    0.127283
     30          1           0        0.341639   -0.734365   -0.525304
     31          6           0        2.050783    0.213531    0.202461
     32          1           0        2.222711    1.278888    0.389502
     33          6           0        2.571964   -0.212196   -1.182251
     34          6           0        2.712424   -0.620087    1.335414
     35          1           0        2.545476   -1.677248    1.085447
     36          8           0        2.017303   -1.133546   -1.786254
     37          6           0        4.225664   -0.362969    1.402230
     38          1           0        4.435103    0.699254    1.586225
     39          1           0        4.667952   -0.930763    2.226922
     40          1           0        4.741754   -0.657402    0.483923
     41          6           0        2.054495   -0.323307    2.689837
     42          1           0        2.153260    0.736320    2.950350
     43          1           0        2.531827   -0.917235    3.476617
     44          1           0        0.988294   -0.568482    2.683835
     45          7           0        3.632438    0.464680   -1.664873
     46          1           0        4.084762    1.191376   -1.121792
     47          6           0        4.246955    0.139428   -2.946052
     48          1           0        4.468180   -0.934056   -2.976825
     49          6           0        5.558851    0.904717   -3.014785
     50          6           0        3.322237    0.481088   -4.136725
     51          1           0        3.787832    0.097632   -5.049907
     52          1           0        2.404402   -0.093151   -3.977566
     53          8           0        5.923600    1.718558   -2.191983
     54          6           0        3.006388    1.982861   -4.261995
     55          1           0        3.769558    2.473355   -4.880861
     56          1           0        3.065744    2.453291   -3.272133
     57          6           0        1.606122    2.245775   -4.830418
     58          1           0        0.858924    1.820178   -4.148937
     59          1           0        1.420560    3.329054   -4.859848
     60          6           0        1.370483    1.658929   -6.223935
     61          1           0        2.107361    2.088756   -6.927531
     62          1           0        1.552011    0.577477   -6.204294
     63          7           0       -0.028854    1.857775   -6.623738
     64          1           0       -0.211271    2.853425   -6.747206
     65          1           0       -0.197527    1.427104   -7.531468
     66          8           0        6.255561    0.586706   -4.118603
     67          1           0        7.071607    1.122700   -4.111752
 ---------------------------------------------------------------------

 SCF Done:  E(RB3LYP) =  -1396.71843035     A.U. after    2 cycles

 Alpha  occ. eigenvalues --  -19.28266 -19.27804 -19.22422 -19.21945 -19.20156
 Alpha  occ. eigenvalues --  -14.61768 -14.50456 -14.45703 -14.44542 -14.37444
 Alpha  occ. eigenvalues --  -10.45042 -10.42280 -10.40325 -10.39041 -10.37272
 Alpha  occ. eigenvalues --  -10.34697 -10.31876 -10.31786 -10.28289 -10.27515
 Alpha  occ. eigenvalues --  -10.27136 -10.26641 -10.25647 -10.24995 -10.24946
 Alpha  occ. eigenvalues --  -10.24892 -10.24698 -10.24303 -10.23642  -1.20738
 Alpha  occ. eigenvalues --   -1.18879  -1.15326  -1.13994  -1.12152  -1.10011
 Alpha  occ. eigenvalues --   -1.07081  -1.02348  -1.01083  -0.93956  -0.92304
 Alpha  occ. eigenvalues --   -0.89657  -0.88674  -0.87091  -0.84615  -0.82940
 Alpha  occ. eigenvalues --   -0.79513  -0.76524  -0.75800  -0.75753  -0.75578
 Alpha  occ. eigenvalues --   -0.75502  -0.75106  -0.71918  -0.70711  -0.70205
 Alpha  occ. eigenvalues --   -0.68536  -0.67441  -0.66245  -0.65493  -0.64722
 Alpha  occ. eigenvalues --   -0.63996  -0.63073  -0.61791  -0.61652  -0.59452
 Alpha  occ. eigenvalues --   -0.58519  -0.57260  -0.56625  -0.56381  -0.55896
 Alpha  occ. eigenvalues --   -0.55114  -0.54542  -0.54208  -0.53922  -0.53527
 Alpha  occ. eigenvalues --   -0.52863  -0.52221  -0.51454  -0.51139  -0.50748
 Alpha  occ. eigenvalues --   -0.50491  -0.49982  -0.49022  -0.48436  -0.47650
 Alpha  occ. eigenvalues --   -0.47565  -0.46852  -0.46294  -0.46161  -0.45544
 Alpha  occ. eigenvalues --   -0.45385  -0.45092  -0.44246  -0.43808  -0.43478
 Alpha  occ. eigenvalues --   -0.43348  -0.42463  -0.41845  -0.41379  -0.40907
 Alpha  occ. eigenvalues --   -0.40643  -0.40505  -0.40287  -0.39994  -0.39169
 Alpha  occ. eigenvalues --   -0.38857  -0.38747  -0.36195  -0.35931  -0.35376
 Alpha  occ. eigenvalues --   -0.33959  -0.33417  -0.29621
 Alpha virt. eigenvalues --   -0.13322  -0.13086  -0.08148  -0.07541  -0.07229
 Alpha virt. eigenvalues --   -0.06035  -0.05760  -0.02408  -0.01619  -0.00967
 Alpha virt. eigenvalues --   -0.00271   0.00576   0.01204   0.01578   0.02505

 Mulliken charges:
               1
     1  N   -0.751914
     2  H    0.422494
     3  H    0.440723
     4  H    0.422540
     5  C   -0.276393
     6  H    0.248249
     7  H    0.247930
     8  C    0.642720
     9  O   -0.532910
    10  N   -0.600077
    11  H    0.373879
    12  C   -0.068350
    13  H    0.190109
    14  C    0.626301
    15  C   -0.256847
    16  H    0.158090
    17  H    0.150849
    18  O   -0.550370
    19  C   -0.102109
    20  H    0.140749
    21  C   -0.452964
    22  H    0.148940
    23  H    0.175768
    24  H    0.132486
    25  C   -0.468508
    26  H    0.135849
    27  H    0.136379
    28  H    0.207857
    29  N   -0.617926
    30  H    0.374523
    31  C   -0.052630
    32  H    0.174665
    33  C    0.629091
    34  C   -0.073720
    35  H    0.147282
    36  O   -0.547085
    37  C   -0.468642
    38  H    0.149842
    39  H    0.166163
    40  H    0.159458
    41  C   -0.443598
    42  H    0.161234
    43  H    0.155801
    44  H    0.136094
    45  N   -0.616857
    46  H    0.361513
    47  C   -0.042027
    48  H    0.200368
    49  C    0.591544
    50  C   -0.282883
    51  H    0.169431
    52  H    0.185983
    53  O   -0.467984
    54  C   -0.276585
    55  H    0.146366
    56  H    0.138182
    57  C   -0.273392
    58  H    0.154878
    59  H    0.131445
    60  C   -0.137584
    61  H    0.122984
    62  H    0.147971
    63  N   -0.718927
    64  H    0.298963
    65  H    0.306503
    66  O   -0.559274
    67  H    0.427362
 Sum of Mulliken charges =   1.00000

 Dipole moment (field-independent basis, Debye):
    X=            -14.6194    Y=              5.9898    Z=              6.2352  Tot=             16.9847
 Quadrupole moment (field-independent basis, Debye-Ang):
   XX=            -30.0438   YY=           -167.4607   ZZ=            -99.6499
   XY=            -24.9064   XZ=            -83.6422   YZ=             -2.6171

 Normal termination of Gaussian 16 at Thu Jun  2 03:38:38 2022.
