 Gaussian 16, Revision C.01,
 Gaussian 16:  ES64L-G16RevC.01  3-Jul-2019

 ----------------------------------------------------------------------
 # B3LYP/6-31G* empiricaldispersion=gd3 guess=read geom=check nosymm in
 tegral(ultrafinegrid)
 ----------------------------------------------------------------------

 ------------------------------------------------------
 Candidate Structure: Conf:203 Charge calc in gas phase
 ------------------------------------------------------
 Structure from the checkpoint file:  "conf-203.chk"
 Charge =  1 Multiplicity = 1

                          Input orientation:
 ---------------------------------------------------------------------
 Center     Atomic      Atomic             Coordinates (Angstroms)
 Number     Number       Type             X           Y           Z
 ---------------------------------------------------------------------
      1          7           0       -5.790099    0.321555    4.153934
      2          1           0       -5.759275   -0.381302    4.897345
      3          1           0       -6.546927    0.978737    4.360709
      4          1           0       -5.959905   -0.154763    3.203237
      5          6           0       -4.465041    0.985772    3.895283
      6          1           0       -3.721650    0.623196    4.607414
      7          1           0       -4.566890    2.067207    3.999680
      8          6           0       -4.130127    0.572554    2.434759
      9          8           0       -4.967353   -0.139438    1.856205
     10          7           0       -2.992406    1.027130    1.943296
     11          1           0       -2.292906    1.489401    2.532640
     12          6           0       -2.432251    0.677406    0.634242
     13          1           0       -2.773722   -0.326166    0.365596
     14          6           0       -0.904118    0.697836    0.858931
     15          6           0       -2.810885    1.700219   -0.458911
     16          1           0       -2.467576    2.686339   -0.118801
     17          1           0       -2.226091    1.463593   -1.358082
     18          8           0       -0.437207    1.260101    1.853779
     19          6           0       -4.302830    1.761479   -0.835160
     20          1           0       -4.881806    1.954452    0.079944
     21          6           0       -4.534108    2.935484   -1.798580
     22          1           0       -3.975009    2.788308   -2.731120
     23          1           0       -5.594155    3.023662   -2.059465
     24          1           0       -4.212933    3.888006   -1.360649
     25          6           0       -4.798824    0.445040   -1.449638
     26          1           0       -4.213228    0.188169   -2.341573
     27          1           0       -4.741041   -0.387618   -0.741973
     28          1           0       -5.845888    0.536221   -1.758167
     29          7           0       -0.182588    0.107970   -0.105667
     30          1           0       -0.635873   -0.226964   -0.952406
     31          6           0        1.260160    0.275888   -0.264623
     32          1           0        1.573260    1.097661    0.388311
     33          6           0        1.442602    0.636469   -1.750559
     34          6           0        2.036483   -1.011744    0.123701
     35          1           0        1.682217   -1.807676   -0.546234
     36          8           0        0.665477    0.184119   -2.592952
     37          6           0        3.549538   -0.841691   -0.077358
     38          1           0        3.933105   -0.003082    0.519951
     39          1           0        4.076522   -1.742592    0.252099
     40          1           0        3.813529   -0.668259   -1.124518
     41          6           0        1.722271   -1.406411    1.573153
     42          1           0        2.033560   -0.618497    2.269109
     43          1           0        2.254679   -2.325824    1.838474
     44          1           0        0.652447   -1.581467    1.721006
     45          7           0        2.469298    1.454751   -2.062524
     46          1           0        3.059705    1.811798   -1.325461
     47          6           0        2.775099    1.816085   -3.449749
     48          1           0        3.499150    2.638467   -3.389801
     49          6           0        1.535673    2.404911   -4.139735
     50          6           0        3.388962    0.650957   -4.244778
     51          1           0        4.092569    0.137544   -3.576472
     52          1           0        2.592597   -0.060035   -4.485898
     53          8           0        1.223142    2.212520   -5.289429
     54          6           0        4.127626    1.085204   -5.516684
     55          1           0        4.911481    1.811553   -5.251627
     56          1           0        3.429211    1.599362   -6.184562
     57          6           0        4.764999   -0.103889   -6.243412
     58          1           0        5.462320   -0.632003   -5.580000
     59          1           0        3.979335   -0.827397   -6.508759
     60          6           0        5.518962    0.305870   -7.510303
     61          1           0        4.829751    0.859634   -8.175623
     62          1           0        6.319742    1.007068   -7.240126
     63          7           0        6.144923   -0.866109   -8.132109
     64          1           0        5.420899   -1.483518   -8.498734
     65          1           0        6.698637   -0.577512   -8.936992
     66          8           0        0.857573    3.244868   -3.319532
     67          1           0        0.121668    3.598104   -3.854090
 ---------------------------------------------------------------------

 SCF Done:  E(RB3LYP) =  -1396.70524651     A.U. after    3 cycles

 Alpha  occ. eigenvalues --  -19.28835 -19.26420 -19.22822 -19.20732 -19.20714
 Alpha  occ. eigenvalues --  -14.62306 -14.50910 -14.46205 -14.45360 -14.34797
 Alpha  occ. eigenvalues --  -10.45635 -10.42737 -10.39788 -10.39017 -10.37693
 Alpha  occ. eigenvalues --  -10.35406 -10.32453 -10.31859 -10.29203 -10.28402
 Alpha  occ. eigenvalues --  -10.28043 -10.25739 -10.25595 -10.25524 -10.25171
 Alpha  occ. eigenvalues --  -10.24761 -10.24538 -10.23192 -10.22287  -1.21280
 Alpha  occ. eigenvalues --   -1.17386  -1.15886  -1.14760  -1.12675  -1.08377
 Alpha  occ. eigenvalues --   -1.07642  -1.03016  -1.01537  -0.93016  -0.91548
 Alpha  occ. eigenvalues --   -0.90288  -0.89310  -0.86391  -0.85606  -0.81894
 Alpha  occ. eigenvalues --   -0.79438  -0.77077  -0.76636  -0.76342  -0.76228
 Alpha  occ. eigenvalues --   -0.75930  -0.74779  -0.72498  -0.70589  -0.69054
 Alpha  occ. eigenvalues --   -0.68224  -0.67713  -0.66069  -0.65553  -0.64615
 Alpha  occ. eigenvalues --   -0.63888  -0.63232  -0.62575  -0.62332  -0.60201
 Alpha  occ. eigenvalues --   -0.58669  -0.57799  -0.57709  -0.56687  -0.55412
 Alpha  occ. eigenvalues --   -0.54812  -0.54456  -0.54074  -0.53703  -0.52813
 Alpha  occ. eigenvalues --   -0.52634  -0.51867  -0.51743  -0.50849  -0.50238
 Alpha  occ. eigenvalues --   -0.49688  -0.49196  -0.48732  -0.48400  -0.48320
 Alpha  occ. eigenvalues --   -0.47667  -0.47199  -0.46840  -0.46607  -0.46060
 Alpha  occ. eigenvalues --   -0.45749  -0.45464  -0.44133  -0.43760  -0.42896
 Alpha  occ. eigenvalues --   -0.42566  -0.42403  -0.41942  -0.41830  -0.41661
 Alpha  occ. eigenvalues --   -0.41443  -0.40389  -0.40162  -0.39185  -0.38555
 Alpha  occ. eigenvalues --   -0.38096  -0.37362  -0.36902  -0.36208  -0.35182
 Alpha  occ. eigenvalues --   -0.34145  -0.33037  -0.27037
 Alpha virt. eigenvalues --   -0.13861  -0.13511  -0.08554  -0.08043  -0.06769
 Alpha virt. eigenvalues --   -0.06452  -0.05789  -0.02933  -0.02480  -0.01058
 Alpha virt. eigenvalues --   -0.00719   0.00556   0.00909   0.01397   0.02390

 Mulliken charges:
               1
     1  N   -0.751054
     2  H    0.423884
     3  H    0.423638
     4  H    0.440616
     5  C   -0.278791
     6  H    0.249601
     7  H    0.249833
     8  C    0.639358
     9  O   -0.527461
    10  N   -0.585954
    11  H    0.373108
    12  C   -0.090343
    13  H    0.195777
    14  C    0.630968
    15  C   -0.262989
    16  H    0.152760
    17  H    0.167701
    18  O   -0.544828
    19  C   -0.070892
    20  H    0.112702
    21  C   -0.447142
    22  H    0.154679
    23  H    0.158510
    24  H    0.145283
    25  C   -0.461732
    26  H    0.153117
    27  H    0.158111
    28  H    0.158370
    29  N   -0.601772
    30  H    0.362395
    31  C   -0.069958
    32  H    0.174699
    33  C    0.641832
    34  C   -0.070893
    35  H    0.149436
    36  O   -0.543351
    37  C   -0.476608
    38  H    0.141307
    39  H    0.170357
    40  H    0.166889
    41  C   -0.444799
    42  H    0.156846
    43  H    0.159636
    44  H    0.141975
    45  N   -0.602627
    46  H    0.343234
    47  C   -0.048495
    48  H    0.179058
    49  C    0.614914
    50  C   -0.261722
    51  H    0.140629
    52  H    0.180018
    53  O   -0.447715
    54  C   -0.279811
    55  H    0.123722
    56  H    0.173083
    57  C   -0.249659
    58  H    0.144891
    59  H    0.130909
    60  C   -0.135024
    61  H    0.116912
    62  H    0.137927
    63  N   -0.716632
    64  H    0.293667
    65  H    0.300227
    66  O   -0.576764
    67  H    0.414438
 Sum of Mulliken charges =   1.00000

 Dipole moment (field-independent basis, Debye):
    X=            -17.4179    Y=              4.9641    Z=             13.9538  Tot=             22.8634
 Quadrupole moment (field-independent basis, Debye-Ang):
   XX=            -47.1017   YY=           -161.3716   ZZ=            -91.9349
   XY=             -8.2755   XZ=            -96.4505   YZ=             -0.9538

 Normal termination of Gaussian 16 at Thu Jun  2 03:38:46 2022.
