 Gaussian 16, Revision C.01,
 Gaussian 16:  ES64L-G16RevC.01  3-Jul-2019

 ----------------------------------------------------------------------
 # B3LYP/6-31G* empiricaldispersion=gd3 guess=read geom=check nosymm in
 tegral(ultrafinegrid)
 ----------------------------------------------------------------------

 ------------------------------------------------------
 Candidate Structure: Conf:746 Charge calc in gas phase
 ------------------------------------------------------
 Structure from the checkpoint file:  "conf-746.chk"
 Charge =  1 Multiplicity = 1

                          Input orientation:
 ---------------------------------------------------------------------
 Center     Atomic      Atomic             Coordinates (Angstroms)
 Number     Number       Type             X           Y           Z
 ---------------------------------------------------------------------
      1          7           0       -5.946332    0.003410    3.547620
      2          1           0       -6.718924    0.671977    3.605026
      3          1           0       -5.930356   -0.466596    2.576048
      4          1           0       -6.072794   -0.702003    4.278146
      5          6           0       -4.586421    0.646550    3.556715
      6          1           0       -3.999592    0.264409    4.393658
      7          1           0       -4.688881    1.728827    3.652620
      8          6           0       -3.986699    0.237089    2.182393
      9          8           0       -4.709533   -0.458546    1.447787
     10          7           0       -2.766248    0.658522    1.917160
     11          1           0       -2.211607    1.225350    2.565183
     12          6           0       -2.041004    0.383647    0.670866
     13          1           0       -2.164603   -0.675044    0.426873
     14          6           0       -0.573761    0.705448    1.022063
     15          6           0       -2.585297    1.270085   -0.475587
     16          1           0       -3.666613    1.088231   -0.527899
     17          1           0       -2.444761    2.317500   -0.178558
     18          8           0       -0.327533    1.445328    1.979766
     19          6           0       -1.977634    1.040363   -1.874096
     20          1           0       -0.903019    1.254801   -1.839621
     21          6           0       -2.161646   -0.403392   -2.365594
     22          1           0       -3.225334   -0.670967   -2.403891
     23          1           0       -1.744240   -0.519330   -3.370297
     24          1           0       -1.659632   -1.143107   -1.729242
     25          6           0       -2.613528    2.027649   -2.864538
     26          1           0       -3.692599    1.850585   -2.959446
     27          1           0       -2.468413    3.066325   -2.545170
     28          1           0       -2.168231    1.916551   -3.858615
     29          7           0        0.353121    0.142529    0.230671
     30          1           0        0.070614   -0.329825   -0.623872
     31          6           0        1.755942    0.541531    0.227803
     32          1           0        1.826004    1.518368    0.718100
     33          6           0        2.152611    0.661567   -1.255079
     34          6           0        2.665491   -0.468329    0.982839
     35          1           0        3.690549   -0.078119    0.904446
     36          8           0        1.446389    0.181718   -2.143319
     37          6           0        2.289044   -0.527046    2.468476
     38          1           0        1.281955   -0.939469    2.595964
     39          1           0        2.987412   -1.173467    3.010532
     40          1           0        2.301957    0.465085    2.931114
     41          6           0        2.634108   -1.859562    0.336198
     42          1           0        1.619904   -2.275653    0.361191
     43          1           0        3.287088   -2.545178    0.886086
     44          1           0        2.971305   -1.831906   -0.704020
     45          7           0        3.316337    1.300132   -1.511756
     46          1           0        3.921430    1.555270   -0.742532
     47          6           0        3.873868    1.332476   -2.859510
     48          1           0        3.099696    1.693568   -3.539398
     49          6           0        4.255684   -0.054560   -3.372979
     50          6           0        5.094334    2.277084   -2.887803
     51          1           0        4.742842    3.262084   -2.552987
     52          1           0        5.822762    1.923071   -2.144304
     53          8           0        4.239855   -0.371628   -4.538001
     54          6           0        5.782276    2.411196   -4.252673
     55          1           0        6.230739    1.451729   -4.539679
     56          1           0        6.606263    3.124892   -4.152125
     57          6           0        4.859607    2.885212   -5.382408
     58          1           0        4.135184    2.100126   -5.629318
     59          1           0        4.282350    3.762312   -5.047925
     60          6           0        5.634178    3.253953   -6.653564
     61          1           0        6.244903    2.394658   -6.959082
     62          1           0        4.914591    3.434537   -7.471560
     63          7           0        6.543205    4.380146   -6.401428
     64          1           0        7.152454    4.524146   -7.204400
     65          1           0        6.002511    5.238618   -6.300391
     66          8           0        4.691737   -0.873439   -2.382229
     67          1           0        4.954063   -1.709120   -2.813366
 ---------------------------------------------------------------------

 SCF Done:  E(RB3LYP) =  -1396.71373978     A.U. after    1 cycles

 Alpha  occ. eigenvalues --  -19.28458 -19.26740 -19.22509 -19.20763 -19.20677
 Alpha  occ. eigenvalues --  -14.61949 -14.50597 -14.45892 -14.44921 -14.35567
 Alpha  occ. eigenvalues --  -10.45229 -10.42446 -10.39494 -10.38719 -10.37591
 Alpha  occ. eigenvalues --  -10.35038 -10.32175 -10.31137 -10.28702 -10.27972
 Alpha  occ. eigenvalues --  -10.27381 -10.26252 -10.25376 -10.25070 -10.24936
 Alpha  occ. eigenvalues --  -10.24912 -10.24687 -10.23195 -10.22750  -1.20919
 Alpha  occ. eigenvalues --   -1.17377  -1.15528  -1.14476  -1.12608  -1.08400
 Alpha  occ. eigenvalues --   -1.07274  -1.02715  -1.01382  -0.92558  -0.92247
 Alpha  occ. eigenvalues --   -0.89962  -0.88883  -0.86686  -0.84949  -0.81579
 Alpha  occ. eigenvalues --   -0.79177  -0.76882  -0.76059  -0.75940  -0.75918
 Alpha  occ. eigenvalues --   -0.75532  -0.75195  -0.72223  -0.70533  -0.69290
 Alpha  occ. eigenvalues --   -0.67748  -0.67408  -0.66436  -0.65668  -0.64505
 Alpha  occ. eigenvalues --   -0.64210  -0.62714  -0.61948  -0.61309  -0.59748
 Alpha  occ. eigenvalues --   -0.59073  -0.57442  -0.56430  -0.55824  -0.55487
 Alpha  occ. eigenvalues --   -0.54628  -0.54316  -0.53961  -0.53834  -0.53356
 Alpha  occ. eigenvalues --   -0.52550  -0.51859  -0.51428  -0.50591  -0.50561
 Alpha  occ. eigenvalues --   -0.50362  -0.49649  -0.48348  -0.47956  -0.47821
 Alpha  occ. eigenvalues --   -0.47005  -0.46706  -0.46253  -0.46191  -0.45654
 Alpha  occ. eigenvalues --   -0.45414  -0.45081  -0.44683  -0.43642  -0.43307
 Alpha  occ. eigenvalues --   -0.42811  -0.42207  -0.41578  -0.41439  -0.41272
 Alpha  occ. eigenvalues --   -0.41223  -0.40747  -0.39246  -0.38928  -0.38463
 Alpha  occ. eigenvalues --   -0.37975  -0.37629  -0.36731  -0.36426  -0.35577
 Alpha  occ. eigenvalues --   -0.34223  -0.32764  -0.27756
 Alpha virt. eigenvalues --   -0.13511  -0.13243  -0.08411  -0.07685  -0.06722
 Alpha virt. eigenvalues --   -0.06170  -0.05641  -0.02587  -0.01725  -0.01213
 Alpha virt. eigenvalues --   -0.00790   0.00697   0.00898   0.02136   0.02863

 Mulliken charges:
               1
     1  N   -0.751753
     2  H    0.422845
     3  H    0.440631
     4  H    0.422868
     5  C   -0.276344
     6  H    0.248341
     7  H    0.248309
     8  C    0.642762
     9  O   -0.532933
    10  N   -0.602673
    11  H    0.375198
    12  C   -0.070039
    13  H    0.193635
    14  C    0.622734
    15  C   -0.259786
    16  H    0.160300
    17  H    0.150803
    18  O   -0.546584
    19  C   -0.104263
    20  H    0.157117
    21  C   -0.453689
    22  H    0.149321
    23  H    0.178191
    24  H    0.130986
    25  C   -0.448086
    26  H    0.144753
    27  H    0.147028
    28  H    0.165606
    29  N   -0.608942
    30  H    0.378411
    31  C   -0.081011
    32  H    0.184548
    33  C    0.648374
    34  C   -0.075235
    35  H    0.134993
    36  O   -0.543274
    37  C   -0.442398
    38  H    0.141878
    39  H    0.157344
    40  H    0.158798
    41  C   -0.470479
    42  H    0.141824
    43  H    0.159154
    44  H    0.175395
    45  N   -0.618118
    46  H    0.341839
    47  C   -0.008980
    48  H    0.201569
    49  C    0.607427
    50  C   -0.319551
    51  H    0.157773
    52  H    0.147486
    53  O   -0.450492
    54  C   -0.261847
    55  H    0.148400
    56  H    0.178727
    57  C   -0.266156
    58  H    0.157031
    59  H    0.117368
    60  C   -0.144502
    61  H    0.147260
    62  H    0.122063
    63  N   -0.715937
    64  H    0.304741
    65  H    0.293722
    66  O   -0.574528
    67  H    0.420044
 Sum of Mulliken charges =   1.00000

 Dipole moment (field-independent basis, Debye):
    X=            -15.5631    Y=              3.2273    Z=             11.9768  Tot=             19.9014
 Quadrupole moment (field-independent basis, Debye-Ang):
   XX=            -29.0579   YY=           -157.4587   ZZ=           -108.7661
   XY=             -0.5403   XZ=            -91.0773   YZ=            -14.3078

 Normal termination of Gaussian 16 at Thu Jun  2 03:47:05 2022.
