 Gaussian 16, Revision C.01,
 Gaussian 16:  ES64L-G16RevC.01  3-Jul-2019

 ----------------------------------------------------------------------
 # B3LYP/6-31G* empiricaldispersion=gd3 guess=read geom=check nosymm in
 tegral(ultrafinegrid)
 ----------------------------------------------------------------------

 ------------------------------------------------------
 Candidate Structure: Conf:503 Charge calc in gas phase
 ------------------------------------------------------
 Structure from the checkpoint file:  "conf-503.chk"
 Charge =  1 Multiplicity = 1

                          Input orientation:
 ---------------------------------------------------------------------
 Center     Atomic      Atomic             Coordinates (Angstroms)
 Number     Number       Type             X           Y           Z
 ---------------------------------------------------------------------
      1          7           0       -3.149015   -1.982433    2.066099
      2          1           0       -4.060355   -2.371958    2.323311
      3          1           0       -3.020319   -1.938733    1.016624
      4          1           0       -2.408229   -2.593820    2.428907
      5          6           0       -2.950045   -0.548234    2.476863
      6          1           0       -2.409749   -0.504055    3.423684
      7          1           0       -3.930335   -0.079374    2.590850
      8          6           0       -2.169003    0.067406    1.290293
      9          8           0       -2.153695   -0.585945    0.236174
     10          7           0       -1.569951    1.236992    1.487077
     11          1           0       -1.569042    1.652110    2.412567
     12          6           0       -0.624970    1.819420    0.502193
     13          1           0       -0.982852    1.514344   -0.483282
     14          6           0        0.747413    1.164652    0.804521
     15          6           0       -0.574922    3.339375    0.623340
     16          1           0       -0.092382    3.594324    1.574589
     17          1           0        0.104629    3.695679   -0.159312
     18          8           0        1.582480    1.724390    1.505712
     19          6           0       -1.928548    4.061927    0.488958
     20          1           0       -2.584360    3.726283    1.308116
     21          6           0       -1.714038    5.573667    0.651531
     22          1           0       -1.072892    5.959833   -0.150757
     23          1           0       -2.665716    6.113417    0.606710
     24          1           0       -1.232155    5.812993    1.606218
     25          6           0       -2.633737    3.752332   -0.839505
     26          1           0       -2.004531    4.044549   -1.688400
     27          1           0       -2.872208    2.687661   -0.951167
     28          1           0       -3.574499    4.307708   -0.916107
     29          7           0        0.880940   -0.101911    0.333501
     30          1           0        0.215475   -0.450769   -0.345439
     31          6           0        2.061893   -0.925352    0.626785
     32          1           0        2.446643   -0.570262    1.588460
     33          6           0        3.099690   -0.650924   -0.487947
     34          6           0        1.699692   -2.416107    0.727730
     35          1           0        1.404060   -2.748506   -0.275596
     36          8           0        3.209251   -1.389788   -1.461998
     37          6           0        2.931058   -3.229079    1.152057
     38          1           0        3.291752   -2.911895    2.138890
     39          1           0        2.686001   -4.294774    1.210712
     40          1           0        3.741256   -3.111752    0.428574
     41          6           0        0.531485   -2.648166    1.702338
     42          1           0        0.774496   -2.265763    2.702569
     43          1           0        0.324910   -3.721007    1.791582
     44          1           0       -0.376544   -2.144633    1.347170
     45          7           0        3.799245    0.494799   -0.315293
     46          1           0        3.584463    1.111644    0.464047
     47          6           0        4.638163    1.045029   -1.370303
     48          1           0        5.356279    0.283603   -1.691196
     49          6           0        5.399321    2.220519   -0.778493
     50          6           0        3.821089    1.498444   -2.608484
     51          1           0        4.512824    1.944914   -3.331526
     52          1           0        3.406136    0.594500   -3.065070
     53          8           0        5.119378    2.770393    0.265329
     54          6           0        2.692552    2.476293   -2.265077
     55          1           0        3.109523    3.369554   -1.780876
     56          1           0        2.030680    2.004451   -1.524954
     57          6           0        1.862549    2.880804   -3.489184
     58          1           0        2.470563    3.489665   -4.169051
     59          1           0        1.567102    1.976460   -4.039189
     60          6           0        0.595044    3.657725   -3.121669
     61          1           0        0.021947    3.867657   -4.032336
     62          1           0       -0.044259    2.999361   -2.496595
     63          7           0        0.916593    4.943777   -2.500848
     64          1           0        0.080336    5.501360   -2.344287
     65          1           0        1.376298    4.824227   -1.601432
     66          8           0        6.400093    2.611202   -1.588907
     67          1           0        6.819515    3.390058   -1.175965
 ---------------------------------------------------------------------

 SCF Done:  E(RB3LYP) =  -1396.70840349     A.U. after    1 cycles

 Alpha  occ. eigenvalues --  -19.30311 -19.27198 -19.23019 -19.21725 -19.19339
 Alpha  occ. eigenvalues --  -14.64093 -14.53433 -14.47351 -14.43382 -14.38568
 Alpha  occ. eigenvalues --  -10.47335 -10.44352 -10.40172 -10.39657 -10.36551
 Alpha  occ. eigenvalues --  -10.36274 -10.32580 -10.31146 -10.29325 -10.29251
 Alpha  occ. eigenvalues --  -10.29225 -10.29201 -10.27988 -10.26858 -10.26233
 Alpha  occ. eigenvalues --  -10.25745 -10.25724 -10.25473 -10.24789  -1.22832
 Alpha  occ. eigenvalues --   -1.18224  -1.17686  -1.15054  -1.11302  -1.09596
 Alpha  occ. eigenvalues --   -1.09330  -1.03520  -1.00170  -0.95171  -0.94274
 Alpha  occ. eigenvalues --   -0.91317  -0.90485  -0.87381  -0.86442  -0.83309
 Alpha  occ. eigenvalues --   -0.80758  -0.78701  -0.78047  -0.77664  -0.77165
 Alpha  occ. eigenvalues --   -0.76636  -0.76393  -0.75261  -0.71097  -0.70359
 Alpha  occ. eigenvalues --   -0.69563  -0.68698  -0.67204  -0.66649  -0.65591
 Alpha  occ. eigenvalues --   -0.65406  -0.64122  -0.63742  -0.62638  -0.61667
 Alpha  occ. eigenvalues --   -0.60576  -0.58843  -0.57453  -0.56997  -0.56752
 Alpha  occ. eigenvalues --   -0.56113  -0.55891  -0.55193  -0.54712  -0.54440
 Alpha  occ. eigenvalues --   -0.54133  -0.53283  -0.52648  -0.52464  -0.51849
 Alpha  occ. eigenvalues --   -0.51229  -0.50685  -0.49811  -0.49446  -0.49214
 Alpha  occ. eigenvalues --   -0.48815  -0.47810  -0.47711  -0.47445  -0.46981
 Alpha  occ. eigenvalues --   -0.46855  -0.46256  -0.45131  -0.44844  -0.44239
 Alpha  occ. eigenvalues --   -0.44087  -0.43772  -0.43728  -0.43081  -0.42722
 Alpha  occ. eigenvalues --   -0.42512  -0.42356  -0.41878  -0.40618  -0.40289
 Alpha  occ. eigenvalues --   -0.39520  -0.39139  -0.37692  -0.36300  -0.35244
 Alpha  occ. eigenvalues --   -0.33088  -0.32359  -0.30411
 Alpha virt. eigenvalues --   -0.16463  -0.14256  -0.09983  -0.09157  -0.08379
 Alpha virt. eigenvalues --   -0.06713  -0.05549  -0.04999  -0.04223  -0.03509
 Alpha virt. eigenvalues --   -0.02942  -0.01204  -0.00286   0.00270   0.00599

 Mulliken charges:
               1
     1  N   -0.744958
     2  H    0.428221
     3  H    0.440796
     4  H    0.432926
     5  C   -0.283045
     6  H    0.244124
     7  H    0.259060
     8  C    0.660262
     9  O   -0.533826
    10  N   -0.580023
    11  H    0.361797
    12  C   -0.090710
    13  H    0.202667
    14  C    0.627822
    15  C   -0.294898
    16  H    0.172907
    17  H    0.166452
    18  O   -0.507748
    19  C   -0.078326
    20  H    0.106690
    21  C   -0.448051
    22  H    0.148520
    23  H    0.161463
    24  H    0.155110
    25  C   -0.462925
    26  H    0.165229
    27  H    0.134216
    28  H    0.164110
    29  N   -0.619128
    30  H    0.354778
    31  C   -0.051872
    32  H    0.178025
    33  C    0.634145
    34  C   -0.088459
    35  H    0.162777
    36  O   -0.527590
    37  C   -0.463562
    38  H    0.146816
    39  H    0.156173
    40  H    0.193302
    41  C   -0.477734
    42  H    0.150127
    43  H    0.159399
    44  H    0.089649
    45  N   -0.628584
    46  H    0.377034
    47  C   -0.024470
    48  H    0.199480
    49  C    0.583793
    50  C   -0.287214
    51  H    0.170397
    52  H    0.180476
    53  O   -0.465811
    54  C   -0.287961
    55  H    0.152954
    56  H    0.115642
    57  C   -0.246290
    58  H    0.161586
    59  H    0.134363
    60  C   -0.139256
    61  H    0.153058
    62  H    0.087744
    63  N   -0.726546
    64  H    0.310261
    65  H    0.311065
    66  O   -0.560799
    67  H    0.424368
 Sum of Mulliken charges =   1.00000

 Dipole moment (field-independent basis, Debye):
    X=            -12.3192    Y=             -2.6855    Z=             10.0132  Tot=             16.1008
 Quadrupole moment (field-independent basis, Debye-Ang):
   XX=           -114.2999   YY=           -144.8030   ZZ=           -151.0152
   XY=             20.5864   XZ=            -35.3676   YZ=            -20.8824

 Normal termination of Gaussian 16 at Thu Jun  2 03:38:27 2022.
