 Gaussian 16, Revision C.01,
 Gaussian 16:  ES64L-G16RevC.01  3-Jul-2019

 ----------------------------------------------------------------------
 # B3LYP/6-31G* empiricaldispersion=gd3 guess=read geom=check nosymm in
 tegral(ultrafinegrid)
 ----------------------------------------------------------------------

 ------------------------------------------------------
 Candidate Structure: Conf:418 Charge calc in gas phase
 ------------------------------------------------------
 Structure from the checkpoint file:  "conf-418.chk"
 Charge =  1 Multiplicity = 1

                          Input orientation:
 ---------------------------------------------------------------------
 Center     Atomic      Atomic             Coordinates (Angstroms)
 Number     Number       Type             X           Y           Z
 ---------------------------------------------------------------------
      1          7           0       -1.397009   -2.704137    2.553732
      2          1           0       -1.612019   -3.493669    3.168688
      3          1           0       -1.606403   -2.919530    1.540442
      4          1           0       -0.390650   -2.500016    2.599379
      5          6           0       -2.227214   -1.475174    2.805815
      6          1           0       -1.702519   -0.808716    3.491968
      7          1           0       -3.180099   -1.782508    3.243268
      8          6           0       -2.422679   -0.876498    1.390940
      9          8           0       -2.187940   -1.626868    0.434335
     10          7           0       -2.810289    0.394261    1.307496
     11          1           0       -2.876314    0.950784    2.153279
     12          6           0       -2.730500    1.158368    0.035384
     13          1           0       -2.925644    0.441456   -0.763746
     14          6           0       -1.262176    1.653299   -0.007943
     15          6           0       -3.737952    2.302748    0.018406
     16          1           0       -3.433101    3.041196    0.770102
     17          1           0       -3.631171    2.806509   -0.950856
     18          8           0       -0.940513    2.735483    0.465560
     19          6           0       -5.206486    1.887334    0.226006
     20          1           0       -5.292939    1.419127    1.219344
     21          6           0       -6.099277    3.136353    0.217118
     22          1           0       -6.063257    3.632222   -0.760726
     23          1           0       -7.143035    2.873117    0.418844
     24          1           0       -5.781166    3.863862    0.972744
     25          6           0       -5.680229    0.867597   -0.820139
     26          1           0       -5.559184    1.266895   -1.835070
     27          1           0       -5.129120   -0.078898   -0.763191
     28          1           0       -6.741418    0.635540   -0.680867
     29          7           0       -0.386568    0.718991   -0.457020
     30          1           0       -0.706017   -0.111502   -0.946229
     31          6           0        1.054376    0.885229   -0.398021
     32          1           0        1.275055    1.956672   -0.445569
     33          6           0        1.640473    0.129059   -1.598514
     34          6           0        1.665698    0.305654    0.918975
     35          1           0        2.740395    0.529788    0.885867
     36          8           0        1.024690   -0.805430   -2.104615
     37          6           0        1.073375    0.988383    2.158655
     38          1           0        0.014998    0.719914    2.278746
     39          1           0        1.609916    0.672143    3.060501
     40          1           0        1.115710    2.077981    2.088374
     41          6           0        1.504968   -1.222399    0.995115
     42          1           0        0.458621   -1.496740    0.805360
     43          1           0        1.812312   -1.583236    1.987389
     44          1           0        2.111347   -1.741315    0.248273
     45          7           0        2.885973    0.511581   -1.974807
     46          1           0        3.314512    1.312049   -1.527890
     47          6           0        3.685348   -0.236140   -2.945070
     48          1           0        3.007891   -0.989773   -3.359541
     49          6           0        4.795206   -0.978279   -2.190076
     50          6           0        4.235474    0.662516   -4.057032
     51          1           0        3.409745    1.294145   -4.406687
     52          1           0        5.002120    1.326920   -3.638112
     53          8           0        5.982042   -0.850811   -2.374016
     54          6           0        4.822100   -0.120278   -5.238913
     55          1           0        4.049006   -0.792830   -5.637995
     56          1           0        5.646334   -0.750906   -4.885990
     57          6           0        5.328940    0.798117   -6.356452
     58          1           0        4.504437    1.434736   -6.712625
     59          1           0        6.092201    1.476511   -5.948506
     60          6           0        5.929268    0.034493   -7.553064
     61          1           0        6.345286    0.759354   -8.263448
     62          1           0        6.773826   -0.575387   -7.205669
     63          7           0        5.025333   -0.845100   -8.297057
     64          1           0        4.671745   -1.588403   -7.698104
     65          1           0        4.212984   -0.321742   -8.621230
     66          8           0        4.282280   -1.808141   -1.243548
     67          1           0        5.047426   -2.242127   -0.819885
 ---------------------------------------------------------------------

 SCF Done:  E(RB3LYP) =  -1396.70176851     A.U. after    1 cycles

 Alpha  occ. eigenvalues --  -19.29384 -19.28537 -19.22941 -19.22135 -19.21774
 Alpha  occ. eigenvalues --  -14.63288 -14.52539 -14.46545 -14.46280 -14.35737
 Alpha  occ. eigenvalues --  -10.46448 -10.43533 -10.40735 -10.39457 -10.38945
 Alpha  occ. eigenvalues --  -10.35448 -10.33709 -10.32561 -10.30927 -10.29276
 Alpha  occ. eigenvalues --  -10.28595 -10.28510 -10.28464 -10.26385 -10.26117
 Alpha  occ. eigenvalues --  -10.25434 -10.25224 -10.24627 -10.23473  -1.21990
 Alpha  occ. eigenvalues --   -1.19304  -1.16898  -1.14458  -1.13585  -1.10407
 Alpha  occ. eigenvalues --   -1.08699  -1.03038  -1.02778  -0.93531  -0.92516
 Alpha  occ. eigenvalues --   -0.91502  -0.90461  -0.87948  -0.85858  -0.83229
 Alpha  occ. eigenvalues --   -0.80830  -0.79906  -0.77710  -0.76924  -0.76282
 Alpha  occ. eigenvalues --   -0.76101  -0.75668  -0.74832  -0.71407  -0.70578
 Alpha  occ. eigenvalues --   -0.69102  -0.68453  -0.67414  -0.67089  -0.66111
 Alpha  occ. eigenvalues --   -0.64738  -0.63853  -0.63645  -0.62664  -0.61030
 Alpha  occ. eigenvalues --   -0.60448  -0.58853  -0.57852  -0.57413  -0.56956
 Alpha  occ. eigenvalues --   -0.56511  -0.56259  -0.55899  -0.54354  -0.53984
 Alpha  occ. eigenvalues --   -0.53682  -0.52651  -0.52450  -0.51961  -0.51847
 Alpha  occ. eigenvalues --   -0.51036  -0.50565  -0.50326  -0.49579  -0.49120
 Alpha  occ. eigenvalues --   -0.48640  -0.48398  -0.48171  -0.47914  -0.46686
 Alpha  occ. eigenvalues --   -0.46479  -0.46191  -0.45556  -0.45228  -0.44923
 Alpha  occ. eigenvalues --   -0.44581  -0.43945  -0.43671  -0.42714  -0.41917
 Alpha  occ. eigenvalues --   -0.41826  -0.41675  -0.41235  -0.41150  -0.40457
 Alpha  occ. eigenvalues --   -0.39212  -0.38319  -0.37483  -0.36596  -0.35537
 Alpha  occ. eigenvalues --   -0.35058  -0.34288  -0.27699
 Alpha virt. eigenvalues --   -0.15802  -0.13229  -0.09243  -0.08924  -0.08581
 Alpha virt. eigenvalues --   -0.07785  -0.06603  -0.04241  -0.03840  -0.02765
 Alpha virt. eigenvalues --   -0.02449  -0.00782  -0.00563   0.00570   0.01119

 Mulliken charges:
               1
     1  N   -0.745594
     2  H    0.425248
     3  H    0.441004
     4  H    0.425384
     5  C   -0.286405
     6  H    0.241265
     7  H    0.256577
     8  C    0.658664
     9  O   -0.523662
    10  N   -0.580401
    11  H    0.359932
    12  C   -0.091623
    13  H    0.201301
    14  C    0.628408
    15  C   -0.284924
    16  H    0.169439
    17  H    0.171795
    18  O   -0.511797
    19  C   -0.076722
    20  H    0.108744
    21  C   -0.444988
    22  H    0.157217
    23  H    0.158548
    24  H    0.150649
    25  C   -0.455839
    26  H    0.157511
    27  H    0.137024
    28  H    0.163631
    29  N   -0.618596
    30  H    0.369301
    31  C   -0.067410
    32  H    0.185612
    33  C    0.640596
    34  C   -0.059294
    35  H    0.149477
    36  O   -0.532052
    37  C   -0.454568
    38  H    0.096891
    39  H    0.151373
    40  H    0.196686
    41  C   -0.508846
    42  H    0.118057
    43  H    0.129745
    44  H    0.215925
    45  N   -0.613134
    46  H    0.341767
    47  C   -0.051678
    48  H    0.212804
    49  C    0.589102
    50  C   -0.264089
    51  H    0.151042
    52  H    0.152587
    53  O   -0.437591
    54  C   -0.273391
    55  H    0.121533
    56  H    0.165543
    57  C   -0.263741
    58  H    0.124895
    59  H    0.136842
    60  C   -0.147326
    61  H    0.151235
    62  H    0.146497
    63  N   -0.701689
    64  H    0.295383
    65  H    0.293184
    66  O   -0.571455
    67  H    0.418390
 Sum of Mulliken charges =   1.00000

 Dipole moment (field-independent basis, Debye):
    X=             -6.2285    Y=             -6.3082    Z=             11.5287  Tot=             14.5430
 Quadrupole moment (field-independent basis, Debye-Ang):
   XX=           -140.9573   YY=           -148.8777   ZZ=           -147.0340
   XY=              9.0877   XZ=            -12.0401   YZ=            -38.7876

 Normal termination of Gaussian 16 at Thu Jun  2 03:38:25 2022.
