 Gaussian 16, Revision C.01,
 Gaussian 16:  ES64L-G16RevC.01  3-Jul-2019

 ----------------------------------------------------------------------
 # B3LYP/6-31G* empiricaldispersion=gd3 guess=read geom=check nosymm in
 tegral(ultrafinegrid)
 ----------------------------------------------------------------------

 ------------------------------------------------------
 Candidate Structure: Conf:883 Charge calc in gas phase
 ------------------------------------------------------
 Structure from the checkpoint file:  "conf-883.chk"
 Charge =  1 Multiplicity = 1

                          Input orientation:
 ---------------------------------------------------------------------
 Center     Atomic      Atomic             Coordinates (Angstroms)
 Number     Number       Type             X           Y           Z
 ---------------------------------------------------------------------
      1          7           0       -1.295261   -1.570188   -3.648499
      2          1           0       -1.318205   -2.483000   -4.108825
      3          1           0       -1.351527   -0.767725   -4.424508
      4          1           0       -0.395856   -1.482785   -3.124937
      5          6           0       -2.428732   -1.426004   -2.692967
      6          1           0       -2.442256   -2.282415   -2.013837
      7          1           0       -3.365515   -1.410359   -3.258952
      8          6           0       -2.219926   -0.097778   -1.949760
      9          8           0       -1.596595    0.814714   -2.485530
     10          7           0       -2.703993   -0.030975   -0.691072
     11          1           0       -3.217287   -0.809537   -0.296719
     12          6           0       -2.368366    1.106990    0.180819
     13          1           0       -2.706155    2.026906   -0.299687
     14          6           0       -0.836744    1.248661    0.314408
     15          6           0       -3.048172    0.917580    1.547701
     16          1           0       -4.135418    0.895940    1.385632
     17          1           0       -2.760199   -0.067058    1.945470
     18          8           0       -0.307636    2.343151    0.412058
     19          6           0       -2.716694    1.995215    2.599486
     20          1           0       -1.636660    1.955119    2.795048
     21          6           0       -3.054260    3.410080    2.108184
     22          1           0       -4.104776    3.477854    1.795216
     23          1           0       -2.901599    4.137983    2.912040
     24          1           0       -2.414609    3.705898    1.271587
     25          6           0       -3.452461    1.668938    3.906796
     26          1           0       -4.540107    1.717326    3.767883
     27          1           0       -3.203716    0.665524    4.273228
     28          1           0       -3.185993    2.386892    4.689371
     29          7           0       -0.157695    0.060219    0.386590
     30          1           0       -0.660009   -0.777937    0.127507
     31          6           0        1.275389   -0.019231    0.173446
     32          1           0        1.669688    0.992180    0.313058
     33          6           0        1.514370   -0.484433   -1.271092
     34          6           0        1.943813   -0.980436    1.194836
     35          1           0        1.459001   -1.960686    1.072521
     36          8           0        0.774381   -1.339275   -1.794371
     37          6           0        3.447935   -1.150126    0.934785
     38          1           0        3.968404   -0.184482    0.963642
     39          1           0        3.891163   -1.783630    1.709348
     40          1           0        3.661287   -1.615009   -0.032672
     41          6           0        1.690493   -0.475853    2.622003
     42          1           0        2.178001    0.493632    2.781518
     43          1           0        2.098889   -1.181645    3.352652
     44          1           0        0.622348   -0.352882    2.822802
     45          7           0        2.572726    0.065723   -1.889036
     46          1           0        3.176914    0.676353   -1.347479
     47          6           0        3.170101   -0.423835   -3.124211
     48          1           0        2.863878   -1.465747   -3.267124
     49          6           0        4.685337   -0.382338   -2.930896
     50          6           0        2.757450    0.406069   -4.360065
     51          1           0        2.958689    1.464590   -4.151563
     52          1           0        3.392626    0.113718   -5.203541
     53          8           0        5.238604    0.178886   -2.011060
     54          6           0        1.284861    0.203593   -4.720160
     55          1           0        0.666539    0.407813   -3.840223
     56          1           0        1.137726   -0.855038   -4.985595
     57          6           0        0.819629    1.091623   -5.880926
     58          1           0        0.736074    2.130033   -5.532513
     59          1           0        1.568822    1.094750   -6.682705
     60          6           0       -0.509026    0.645056   -6.494840
     61          1           0       -0.831530    1.377180   -7.245905
     62          1           0       -0.378113   -0.314187   -7.010328
     63          7           0       -1.558313    0.445775   -5.459019
     64          1           0       -1.587547    1.239446   -4.816215
     65          1           0       -2.475253    0.402689   -5.905165
     66          8           0        5.320570   -1.021217   -3.926241
     67          1           0        6.280911   -0.936394   -3.767846
 ---------------------------------------------------------------------

 SCF Done:  E(RB3LYP) =  -1396.76821222     A.U. after    3 cycles

 Alpha  occ. eigenvalues --  -19.30450 -19.25323 -19.25041 -19.24468 -19.20933
 Alpha  occ. eigenvalues --  -14.54605 -14.49565 -14.47954 -14.46740 -14.45465
 Alpha  occ. eigenvalues --  -10.43047 -10.42913 -10.40836 -10.38850 -10.38213
 Alpha  occ. eigenvalues --  -10.35225 -10.33763 -10.33138 -10.33112 -10.29923
 Alpha  occ. eigenvalues --  -10.29511 -10.29477 -10.28993 -10.28728 -10.26900
 Alpha  occ. eigenvalues --  -10.26211 -10.25524 -10.24423 -10.23927  -1.21509
 Alpha  occ. eigenvalues --   -1.17654  -1.15631  -1.12945  -1.12725  -1.09936
 Alpha  occ. eigenvalues --   -1.05827  -1.04677  -1.02229  -1.02094  -0.92017
 Alpha  occ. eigenvalues --   -0.90960  -0.89428  -0.87387  -0.87276  -0.83377
 Alpha  occ. eigenvalues --   -0.81706  -0.79949  -0.76944  -0.75496  -0.74717
 Alpha  occ. eigenvalues --   -0.74350  -0.72832  -0.72448  -0.70614  -0.70055
 Alpha  occ. eigenvalues --   -0.69356  -0.68526  -0.68233  -0.66901  -0.64859
 Alpha  occ. eigenvalues --   -0.64111  -0.63230  -0.62739  -0.61347  -0.60386
 Alpha  occ. eigenvalues --   -0.59886  -0.59236  -0.58822  -0.58398  -0.57955
 Alpha  occ. eigenvalues --   -0.57246  -0.56845  -0.56415  -0.55860  -0.54993
 Alpha  occ. eigenvalues --   -0.54269  -0.53948  -0.53597  -0.52811  -0.51946
 Alpha  occ. eigenvalues --   -0.51252  -0.50948  -0.50689  -0.50239  -0.50001
 Alpha  occ. eigenvalues --   -0.49521  -0.48668  -0.48493  -0.47905  -0.46959
 Alpha  occ. eigenvalues --   -0.46876  -0.46675  -0.46211  -0.45636  -0.45397
 Alpha  occ. eigenvalues --   -0.44876  -0.44232  -0.44119  -0.43208  -0.42774
 Alpha  occ. eigenvalues --   -0.42326  -0.42093  -0.41035  -0.40358  -0.40119
 Alpha  occ. eigenvalues --   -0.39790  -0.39624  -0.39047  -0.38744  -0.38327
 Alpha  occ. eigenvalues --   -0.37569  -0.35103  -0.33995
 Alpha virt. eigenvalues --   -0.12186  -0.10278  -0.09640  -0.07559  -0.07179
 Alpha virt. eigenvalues --   -0.05215  -0.03746  -0.02258  -0.01385  -0.01017
 Alpha virt. eigenvalues --   -0.00763   0.00385   0.00822   0.01045   0.01381

 Mulliken charges:
               1
     1  N   -0.810786
     2  H    0.381519
     3  H    0.465857
     4  H    0.449108
     5  C   -0.274465
     6  H    0.205549
     7  H    0.220932
     8  C    0.642493
     9  O   -0.512499
    10  N   -0.640804
    11  H    0.344745
    12  C   -0.020186
    13  H    0.204029
    14  C    0.625376
    15  C   -0.305367
    16  H    0.155067
    17  H    0.135591
    18  O   -0.502656
    19  C   -0.082336
    20  H    0.153880
    21  C   -0.462411
    22  H    0.137562
    23  H    0.160354
    24  H    0.173906
    25  C   -0.446672
    26  H    0.147236
    27  H    0.142051
    28  H    0.162663
    29  N   -0.588234
    30  H    0.319701
    31  C   -0.074603
    32  H    0.190697
    33  C    0.656087
    34  C   -0.081734
    35  H    0.133670
    36  O   -0.609596
    37  C   -0.467170
    38  H    0.159183
    39  H    0.171100
    40  H    0.146270
    41  C   -0.447735
    42  H    0.159993
    43  H    0.162507
    44  H    0.157506
    45  N   -0.576938
    46  H    0.370947
    47  C   -0.060050
    48  H    0.190711
    49  C    0.591330
    50  C   -0.267673
    51  H    0.165988
    52  H    0.178105
    53  O   -0.452297
    54  C   -0.287399
    55  H    0.173783
    56  H    0.118296
    57  C   -0.281911
    58  H    0.163268
    59  H    0.166397
    60  C   -0.141619
    61  H    0.170584
    62  H    0.159037
    63  N   -0.799779
    64  H    0.365904
    65  H    0.338637
    66  O   -0.557028
    67  H    0.434329
 Sum of Mulliken charges =   1.00000

 Dipole moment (field-independent basis, Debye):
    X=             -3.5982    Y=             -5.7304    Z=            -15.1161  Tot=             16.5614
 Quadrupole moment (field-independent basis, Debye-Ang):
   XX=           -120.1609   YY=           -167.0481   ZZ=            -83.3823
   XY=              2.6185   XZ=              1.0988   YZ=              9.9762

 Normal termination of Gaussian 16 at Thu Jun  2 03:47:15 2022.
