 Gaussian 16, Revision C.01,
 Gaussian 16:  ES64L-G16RevC.01  3-Jul-2019

 ----------------------------------------------------------------------
 # B3LYP/6-31G* empiricaldispersion=gd3 guess=read geom=check nosymm in
 tegral(ultrafinegrid)
 ----------------------------------------------------------------------

 ------------------------------------------------------
 Candidate Structure: Conf:879 Charge calc in gas phase
 ------------------------------------------------------
 Structure from the checkpoint file:  "conf-879.chk"
 Charge =  1 Multiplicity = 1

                          Input orientation:
 ---------------------------------------------------------------------
 Center     Atomic      Atomic             Coordinates (Angstroms)
 Number     Number       Type             X           Y           Z
 ---------------------------------------------------------------------
      1          7           0       -5.748408    2.027235    3.352248
      2          1           0       -6.489226    2.692929    3.117502
      3          1           0       -5.809277    1.158698    2.713560
      4          1           0       -5.857589    1.752357    4.331908
      5          6           0       -4.366217    2.513100    3.010969
      6          1           0       -3.745649    2.531296    3.908421
      7          1           0       -4.420151    3.518306    2.589520
      8          6           0       -3.866450    1.471231    1.971341
      9          8           0       -4.660444    0.561315    1.673789
     10          7           0       -2.648185    1.641488    1.499180
     11          1           0       -2.025857    2.400347    1.795899
     12          6           0       -2.001641    0.764529    0.516548
     13          1           0       -2.165882   -0.273411    0.820024
     14          6           0       -0.507584    1.139564    0.623606
     15          6           0       -2.584074    1.009953   -0.896177
     16          1           0       -3.672125    0.891710   -0.812991
     17          1           0       -2.389482    2.057763   -1.159090
     18          8           0       -0.182413    2.209915    1.150953
     19          6           0       -2.076921    0.088148   -2.024217
     20          1           0       -0.996718    0.235259   -2.146462
     21          6           0       -2.332240   -1.397922   -1.729233
     22          1           0       -3.401384   -1.585355   -1.567490
     23          1           0       -2.002866   -2.016304   -2.569865
     24          1           0       -1.796433   -1.760131   -0.843030
     25          6           0       -2.749988    0.496059   -3.343698
     26          1           0       -3.836890    0.353449   -3.290645
     27          1           0       -2.558561    1.548402   -3.583722
     28          1           0       -2.374046   -0.111619   -4.173363
     29          7           0        0.352170    0.257347    0.103014
     30          1           0        0.033982   -0.586511   -0.365128
     31          6           0        1.782312    0.502973   -0.035794
     32          1           0        1.929656    1.577829   -0.187359
     33          6           0        2.200406   -0.282574   -1.287869
     34          6           0        2.557449    0.071230    1.246126
     35          1           0        2.066502    0.633967    2.051288
     36          8           0        1.526843   -1.232785   -1.688370
     37          6           0        2.417861   -1.430851    1.527339
     38          1           0        2.920518   -2.023864    0.756520
     39          1           0        2.877657   -1.674956    2.490849
     40          1           0        1.367275   -1.738377    1.570471
     41          6           0        4.034762    0.487924    1.203270
     42          1           0        4.600818   -0.135627    0.503516
     43          1           0        4.486587    0.356688    2.191884
     44          1           0        4.153553    1.545250    0.930087
     45          7           0        3.333026    0.124788   -1.910562
     46          1           0        3.921425    0.802110   -1.443957
     47          6           0        3.958479   -0.719215   -2.920009
     48          1           0        3.213836   -0.956172   -3.684275
     49          6           0        4.408689   -2.032020   -2.271336
     50          6           0        5.148688    0.029342   -3.550884
     51          1           0        4.776536    1.009778   -3.875278
     52          1           0        5.901992    0.213724   -2.771243
     53          8           0        4.743314   -2.148579   -1.112294
     54          6           0        5.795040   -0.685440   -4.742750
     55          1           0        5.017802   -0.911844   -5.483826
     56          1           0        6.213882   -1.647768   -4.422273
     57          6           0        6.891569    0.165313   -5.395036
     58          1           0        6.454690    1.103327   -5.761221
     59          1           0        7.647624    0.428029   -4.641222
     60          6           0        7.586287   -0.536326   -6.567309
     61          1           0        8.353683    0.135260   -6.969144
     62          1           0        8.117270   -1.430082   -6.189425
     63          7           0        6.635087   -0.824644   -7.649241
     64          1           0        7.141873   -1.054344   -8.501770
     65          1           0        6.089486   -1.653940   -7.421987
     66          8           0        4.428628   -3.043255   -3.159321
     67          1           0        4.757799   -3.832807   -2.688053
 ---------------------------------------------------------------------

 SCF Done:  E(RB3LYP) =  -1396.71488612     A.U. after    1 cycles

 Alpha  occ. eigenvalues --  -19.28307 -19.27031 -19.22170 -19.21373 -19.20556
 Alpha  occ. eigenvalues --  -14.61799 -14.50372 -14.45625 -14.44597 -14.35756
 Alpha  occ. eigenvalues --  -10.45059 -10.42283 -10.39287 -10.39196 -10.37371
 Alpha  occ. eigenvalues --  -10.34887 -10.31849 -10.31416 -10.28674 -10.27629
 Alpha  occ. eigenvalues --  -10.27192 -10.26624 -10.25509 -10.25434 -10.25037
 Alpha  occ. eigenvalues --  -10.24491 -10.24405 -10.23848 -10.23179  -1.20757
 Alpha  occ. eigenvalues --   -1.17947  -1.15363  -1.14164  -1.12454  -1.08928
 Alpha  occ. eigenvalues --   -1.07075  -1.02442  -1.01194  -0.92520  -0.92419
 Alpha  occ. eigenvalues --   -0.89831  -0.88615  -0.86890  -0.84862  -0.81964
 Alpha  occ. eigenvalues --   -0.79282  -0.76869  -0.76138  -0.75776  -0.75479
 Alpha  occ. eigenvalues --   -0.75395  -0.75169  -0.72140  -0.71067  -0.69221
 Alpha  occ. eigenvalues --   -0.68117  -0.66823  -0.66365  -0.65368  -0.64150
 Alpha  occ. eigenvalues --   -0.63866  -0.62724  -0.61818  -0.61387  -0.59507
 Alpha  occ. eigenvalues --   -0.59028  -0.57412  -0.56802  -0.55723  -0.55199
 Alpha  occ. eigenvalues --   -0.54934  -0.54404  -0.54024  -0.53680  -0.53372
 Alpha  occ. eigenvalues --   -0.52952  -0.52101  -0.51814  -0.51449  -0.50787
 Alpha  occ. eigenvalues --   -0.50479  -0.49043  -0.48272  -0.47891  -0.47708
 Alpha  occ. eigenvalues --   -0.46743  -0.46667  -0.46272  -0.46039  -0.45334
 Alpha  occ. eigenvalues --   -0.45274  -0.45151  -0.44700  -0.43501  -0.43159
 Alpha  occ. eigenvalues --   -0.42815  -0.42533  -0.41536  -0.41336  -0.41001
 Alpha  occ. eigenvalues --   -0.40794  -0.40715  -0.39577  -0.39269  -0.39180
 Alpha  occ. eigenvalues --   -0.38646  -0.37785  -0.36405  -0.35803  -0.35113
 Alpha  occ. eigenvalues --   -0.34031  -0.33734  -0.28055
 Alpha virt. eigenvalues --   -0.13358  -0.13101  -0.08143  -0.07556  -0.06938
 Alpha virt. eigenvalues --   -0.06002  -0.05715  -0.02430  -0.01569  -0.00645
 Alpha virt. eigenvalues --   -0.00036   0.00777   0.01094   0.02339   0.02827

 Mulliken charges:
               1
     1  N   -0.751898
     2  H    0.422490
     3  H    0.440365
     4  H    0.422630
     5  C   -0.276223
     6  H    0.248319
     7  H    0.248279
     8  C    0.642260
     9  O   -0.534112
    10  N   -0.603213
    11  H    0.376045
    12  C   -0.069505
    13  H    0.193489
    14  C    0.626530
    15  C   -0.259964
    16  H    0.161502
    17  H    0.151429
    18  O   -0.551118
    19  C   -0.099587
    20  H    0.149181
    21  C   -0.455794
    22  H    0.150962
    23  H    0.174882
    24  H    0.136224
    25  C   -0.447714
    26  H    0.146145
    27  H    0.148890
    28  H    0.163928
    29  N   -0.621331
    30  H    0.380474
    31  C   -0.069450
    32  H    0.178094
    33  C    0.646920
    34  C   -0.067303
    35  H    0.152108
    36  O   -0.547878
    37  C   -0.469091
    38  H    0.189416
    39  H    0.155740
    40  H    0.133595
    41  C   -0.491982
    42  H    0.182835
    43  H    0.165842
    44  H    0.137241
    45  N   -0.609982
    46  H    0.344965
    47  C   -0.018722
    48  H    0.196849
    49  C    0.601086
    50  C   -0.308523
    51  H    0.163550
    52  H    0.152119
    53  O   -0.462846
    54  C   -0.271664
    55  H    0.152324
    56  H    0.144586
    57  C   -0.237823
    58  H    0.146110
    59  H    0.128609
    60  C   -0.148089
    61  H    0.147481
    62  H    0.117758
    63  N   -0.718105
    64  H    0.305221
    65  H    0.297363
    66  O   -0.553079
    67  H    0.421160
 Sum of Mulliken charges =   1.00000

 Dipole moment (field-independent basis, Debye):
    X=            -13.7334    Y=              7.4039    Z=              8.4003  Tot=             17.7197
 Quadrupole moment (field-independent basis, Debye-Ang):
   XX=            -22.9677   YY=           -146.6017   ZZ=           -110.1877
   XY=            -58.8753   XZ=            -94.6871   YZ=             39.0186

 Normal termination of Gaussian 16 at Thu Jun  2 03:46:52 2022.
