 Gaussian 16, Revision C.01,
 Gaussian 16:  ES64L-G16RevC.01  3-Jul-2019

 -------------------------------------------------------------------
 # B3LYP/6-31G* guess=read geom=check nosymm integral(ultrafinegrid)
 -------------------------------------------------------------------

 ------------------------------------------------------
 Candidate Structure: Conf:306 Charge calc in gas phase
 ------------------------------------------------------
 Structure from the checkpoint file:  "conf-306.chk"
 Charge =  1 Multiplicity = 1

                          Input orientation:
 ---------------------------------------------------------------------
 Center     Atomic      Atomic             Coordinates (Angstroms)
 Number     Number       Type             X           Y           Z
 ---------------------------------------------------------------------
      1          7           0        0.058491   -1.621508    3.889848
      2          1           0       -0.250265   -2.087005    4.739775
      3          1           0        0.742682   -2.221782    3.431776
      4          6           0       -1.059304   -1.411413    2.975542
      5          1           0       -1.708596   -0.636160    3.407324
      6          6           0       -0.457204   -0.896573    1.662745
      7          6           0       -1.931036   -2.653643    2.648624
      8          1           0       -1.283657   -3.418920    2.201286
      9          1           0       -2.683012   -2.385540    1.897990
     10          8           0        0.553119   -1.400441    1.180926
     11          6           0       -2.648547   -3.227071    3.882463
     12          1           0       -3.316649   -2.465663    4.307216
     13          1           0       -1.938728   -3.528132    4.656942
     14          6           0       -3.478449   -4.453610    3.561415
     15          8           0       -3.343754   -5.546538    4.060366
     16          8           0       -4.424921   -4.189815    2.621636
     17          7           0       -1.099103    0.156290    1.063553
     18          1           0       -2.009465    0.417409    1.419154
     19          6           0       -0.778899    0.575261   -0.304889
     20          1           0       -1.267750    1.550091   -0.433681
     21          6           0        0.737857    0.818461   -0.461328
     22          6           0       -1.305008   -0.386857   -1.392859
     23          1           0       -0.987074    0.012100   -2.361739
     24          1           0       -0.797817   -1.348403   -1.271999
     25          8           0        1.348866    0.495006   -1.472830
     26          6           0       -2.807423   -0.561291   -1.340989
     27          6           0       -3.383062   -1.732809   -0.827241
     28          1           0       -2.737104   -2.544761   -0.502868
     29          6           0       -3.674199    0.448336   -1.779634
     30          1           0       -3.266260    1.364824   -2.202664
     31          6           0       -4.762953   -1.892775   -0.734943
     32          1           0       -5.196687   -2.800224   -0.327694
     33          6           0       -5.059252    0.304945   -1.699941
     34          1           0       -5.711877    1.100980   -2.054126
     35          8           0       -6.954359   -1.074000   -1.060419
     36          1           0       -7.428575   -0.305504   -1.414408
     37          6           0       -5.609854   -0.868570   -1.171766
     38          7           0        1.321836    1.512711    0.567346
     39          1           0        0.784675    1.588838    1.427652
     40          6           0        2.753790    1.395965    0.801672
     41          1           0        3.105566    0.442144    0.388573
     42          6           0        2.960180    1.359212    2.315440
     43          6           0        3.594766    2.539862    0.185791
     44          1           0        3.223783    3.497628    0.574001
     45          1           0        4.628591    2.424196    0.533302
     46          8           0        2.096159    1.588236    3.130576
     47          6           0        3.561938    2.544193   -1.347171
     48          1           0        2.537133    2.700484   -1.696821
     49          1           0        3.855955    1.556777   -1.721027
     50          6           0        4.488128    3.619193   -1.943808
     51          1           0        4.183029    4.615575   -1.593374
     52          1           0        5.520145    3.453807   -1.602508
     53          6           0        4.433422    3.565469   -3.464062
     54          1           0        4.763402    2.601622   -3.858908
     55          1           0        3.437217    3.785166   -3.855161
     56          7           0        5.367245    4.612487   -4.086048
     57          1           0        5.345424    4.591627   -5.113108
     58          1           0        6.339121    4.457559   -3.790812
     59          1           0        5.107626    5.560358   -3.786527
     60          8           0        4.234495    1.062072    2.637966
     61          1           0       -4.911055   -5.025606    2.487354
     62          1           0        4.282600    1.047858    3.613437
 ---------------------------------------------------------------------

 SCF Done:  E(RB3LYP) =  -1526.18485726     A.U. after    1 cycles

 Alpha  occ. eigenvalues --  -19.28262 -19.24532 -19.23298 -19.22694 -19.19301
 Alpha  occ. eigenvalues --  -19.18859 -19.18740 -14.65632 -14.43778 -14.42878
 Alpha  occ. eigenvalues --  -14.37149 -10.42382 -10.40648 -10.37038 -10.36448
 Alpha  occ. eigenvalues --  -10.35645 -10.34836 -10.32540 -10.31167 -10.30624
 Alpha  occ. eigenvalues --  -10.30512 -10.29408 -10.28875 -10.25822 -10.25336
 Alpha  occ. eigenvalues --  -10.25222 -10.25137 -10.24996 -10.24904 -10.24734
 Alpha  occ. eigenvalues --  -10.24105  -1.19462  -1.19240  -1.15261  -1.11527
 Alpha  occ. eigenvalues --   -1.11385  -1.10499  -1.10269  -1.06269  -1.00623
 Alpha  occ. eigenvalues --   -0.99319  -0.95872  -0.94772  -0.91133  -0.89071
 Alpha  occ. eigenvalues --   -0.85399  -0.84717  -0.83778  -0.80534  -0.80047
 Alpha  occ. eigenvalues --   -0.79116  -0.78076  -0.76754  -0.75953  -0.72638
 Alpha  occ. eigenvalues --   -0.71159  -0.70187  -0.68071  -0.67862  -0.66765
 Alpha  occ. eigenvalues --   -0.65805  -0.65442  -0.64919  -0.63901  -0.63317
 Alpha  occ. eigenvalues --   -0.60090  -0.59664  -0.59259  -0.58137  -0.57450
 Alpha  occ. eigenvalues --   -0.56353  -0.56115  -0.55394  -0.54761  -0.54009
 Alpha  occ. eigenvalues --   -0.53613  -0.53102  -0.52791  -0.52153  -0.51885
 Alpha  occ. eigenvalues --   -0.51592  -0.51256  -0.50394  -0.49797  -0.49485
 Alpha  occ. eigenvalues --   -0.49188  -0.48582  -0.48223  -0.47900  -0.47364
 Alpha  occ. eigenvalues --   -0.47256  -0.46164  -0.46059  -0.45816  -0.45313
 Alpha  occ. eigenvalues --   -0.45162  -0.44412  -0.44089  -0.43206  -0.42602
 Alpha  occ. eigenvalues --   -0.42196  -0.41939  -0.40823  -0.40812  -0.40297
 Alpha  occ. eigenvalues --   -0.39314  -0.38453  -0.36654  -0.36445  -0.34275
 Alpha  occ. eigenvalues --   -0.33712  -0.32710  -0.32281  -0.31971  -0.30999
 Alpha  occ. eigenvalues --   -0.29182  -0.27412
 Alpha virt. eigenvalues --   -0.16033  -0.09328  -0.09288  -0.07752  -0.06705
 Alpha virt. eigenvalues --   -0.06371  -0.05626  -0.05389  -0.04644  -0.03395
 Alpha virt. eigenvalues --   -0.03236  -0.01937  -0.01065  -0.00147   0.00673

 Mulliken charges:
               1
     1  N   -0.714642
     2  H    0.308630
     3  H    0.317244
     4  C   -0.070023
     5  H    0.137973
     6  C    0.636268
     7  C   -0.291847
     8  H    0.163282
     9  H    0.167933
    10  O   -0.530803
    11  C   -0.341921
    12  H    0.173064
    13  H    0.168379
    14  C    0.565237
    15  O   -0.445541
    16  O   -0.564428
    17  N   -0.622908
    18  H    0.342838
    19  C   -0.062860
    20  H    0.164802
    21  C    0.639432
    22  C   -0.349809
    23  H    0.163274
    24  H    0.182788
    25  O   -0.539265
    26  C    0.158972
    27  C   -0.206023
    28  H    0.141710
    29  C   -0.196166
    30  H    0.119240
    31  C   -0.155929
    32  H    0.152082
    33  C   -0.190366
    34  H    0.125970
    35  O   -0.635165
    36  H    0.411720
    37  C    0.351242
    38  N   -0.614719
    39  H    0.364415
    40  C   -0.031069
    41  H    0.204405
    42  C    0.585833
    43  C   -0.273929
    44  H    0.153042
    45  H    0.164433
    46  O   -0.447325
    47  C   -0.264278
    48  H    0.180119
    49  H    0.176422
    50  C   -0.295212
    51  H    0.166281
    52  H    0.165619
    53  C   -0.206475
    54  H    0.234878
    55  H    0.232859
    56  N   -0.732278
    57  H    0.432299
    58  H    0.427806
    59  H    0.427246
    60  O   -0.567924
    61  H    0.415243
    62  H    0.427923
 Sum of Mulliken charges =   1.00000

 Dipole moment (field-independent basis, Debye):
    X=             19.0133    Y=             21.9963    Z=            -15.1103  Tot=             32.7668
 Quadrupole moment (field-independent basis, Debye-Ang):
   XX=            -22.5311   YY=            -93.6746   ZZ=           -106.3437
   XY=             99.6930   XZ=            -79.0711   YZ=            -76.8202

 Normal termination of Gaussian 16 at Tue May 24 03:09:54 2022.
