 Gaussian 16, Revision C.01,
 Gaussian 16:  ES64L-G16RevC.01  3-Jul-2019

 -------------------------------------------------------------------
 # B3LYP/6-31G* guess=read geom=check nosymm integral(ultrafinegrid)
 -------------------------------------------------------------------

 ------------------------------------------------------
 Candidate Structure: Conf:123 Charge calc in gas phase
 ------------------------------------------------------
 Structure from the checkpoint file:  "conf-123.chk"
 Charge =  1 Multiplicity = 1

                          Input orientation:
 ---------------------------------------------------------------------
 Center     Atomic      Atomic             Coordinates (Angstroms)
 Number     Number       Type             X           Y           Z
 ---------------------------------------------------------------------
      1          7           0       -0.305490   -1.641008    4.011769
      2          1           0       -0.741602   -2.012698    4.853913
      3          1           0        0.310616   -2.365385    3.644268
      4          6           0       -1.328594   -1.348030    3.007631
      5          1           0       -1.920692   -0.496414    3.372432
      6          6           0       -0.564974   -0.946819    1.740514
      7          6           0       -2.284525   -2.522036    2.691875
      8          1           0       -2.706998   -2.884232    3.635605
      9          1           0       -1.690492   -3.338079    2.262908
     10          8           0        0.254103   -1.697185    1.223515
     11          6           0       -3.432034   -2.145724    1.735497
     12          1           0       -3.051223   -1.775670    0.779811
     13          1           0       -4.043325   -1.353787    2.189982
     14          6           0       -4.344472   -3.310952    1.410836
     15          8           0       -4.571196   -3.736302    0.301254
     16          8           0       -4.895695   -3.840493    2.530647
     17          7           0       -0.824854    0.296692    1.222656
     18          1           0       -1.560932    0.851991    1.637020
     19          6           0       -0.260386    0.732973   -0.052075
     20          1           0       -0.431988    1.815356   -0.091421
     21          6           0        1.278754    0.551678   -0.084379
     22          6           0       -0.942626    0.079726   -1.278733
     23          1           0       -0.770453   -0.998269   -1.236191
     24          1           0       -2.022569    0.247794   -1.178348
     25          8           0        1.857155    0.005100   -1.018250
     26          6           0       -0.442142    0.635256   -2.597822
     27          6           0       -0.498883    2.006172   -2.882345
     28          1           0       -1.002361    2.684210   -2.197343
     29          6           0        0.156121   -0.208763   -3.543274
     30          1           0        0.202152   -1.275828   -3.349905
     31          6           0        0.100760    2.538838   -4.027011
     32          1           0        0.065828    3.602972   -4.240907
     33          6           0        0.753440    0.300318   -4.695027
     34          1           0        1.240432   -0.368292   -5.402306
     35          8           0        1.512375    2.259889   -5.935409
     36          1           0        1.447361    1.719198   -6.740905
     37          6           0        0.747730    1.680142   -4.911411
     38          7           0        1.938982    1.192108    0.923319
     39          1           0        1.435670    1.430056    1.773745
     40          6           0        3.381901    1.077003    1.079106
     41          1           0        3.701224    0.098599    0.701441
     42          6           0        3.686775    1.150755    2.571831
     43          6           0        4.174288    2.181330    0.323866
     44          1           0        3.961437    3.156794    0.780645
     45          1           0        5.243735    1.984037    0.460480
     46          8           0        2.878775    1.462960    3.417509
     47          6           0        3.814410    2.218243   -1.165871
     48          1           0        2.753815    2.485416   -1.253772
     49          1           0        3.903963    1.197351   -1.553598
     50          6           0        4.639090    3.187816   -2.024698
     51          1           0        4.721654    4.168875   -1.540575
     52          1           0        5.666595    2.823684   -2.157315
     53          6           0        3.981586    3.434793   -3.384749
     54          1           0        3.018116    3.938499   -3.275479
     55          1           0        4.608233    4.017606   -4.063585
     56          7           0        3.663106    2.132186   -4.101240
     57          1           0        3.096817    2.284162   -4.967690
     58          1           0        3.090844    1.520091   -3.502061
     59          1           0        4.516711    1.617745   -4.341763
     60          8           0        4.974036    0.858428    2.828708
     61          1           0       -5.460806   -4.580412    2.237262
     62          1           0        5.101617    0.938739    3.793947
 ---------------------------------------------------------------------

 SCF Done:  E(RB3LYP) =  -1526.20580131     A.U. after    2 cycles

 Alpha  occ. eigenvalues --  -19.31516 -19.29273 -19.25504 -19.23777 -19.21242
 Alpha  occ. eigenvalues --  -19.20338 -19.19782 -14.60020 -14.45964 -14.45166
 Alpha  occ. eigenvalues --  -14.38593 -10.41793 -10.39475 -10.38593 -10.38127
 Alpha  occ. eigenvalues --  -10.37244 -10.36536 -10.33924 -10.33835 -10.33057
 Alpha  occ. eigenvalues --  -10.30813 -10.30601 -10.30403 -10.30277 -10.30265
 Alpha  occ. eigenvalues --  -10.30157 -10.30153 -10.29840 -10.28725 -10.27133
 Alpha  occ. eigenvalues --  -10.26399  -1.20301  -1.18430  -1.16316  -1.14483
 Alpha  occ. eigenvalues --   -1.13422  -1.12222  -1.11443  -1.07331  -1.02527
 Alpha  occ. eigenvalues --   -1.01329  -0.96659  -0.96147  -0.93860  -0.89452
 Alpha  occ. eigenvalues --   -0.88626  -0.86408  -0.86057  -0.84494  -0.82903
 Alpha  occ. eigenvalues --   -0.78259  -0.77587  -0.76091  -0.74021  -0.73115
 Alpha  occ. eigenvalues --   -0.72257  -0.72015  -0.70845  -0.70587  -0.68861
 Alpha  occ. eigenvalues --   -0.67635  -0.67172  -0.66432  -0.66025  -0.63875
 Alpha  occ. eigenvalues --   -0.61695  -0.61037  -0.60617  -0.59325  -0.59224
 Alpha  occ. eigenvalues --   -0.58468  -0.57654  -0.57249  -0.56540  -0.56466
 Alpha  occ. eigenvalues --   -0.55530  -0.55118  -0.54986  -0.54557  -0.53700
 Alpha  occ. eigenvalues --   -0.53398  -0.53253  -0.52581  -0.52070  -0.51807
 Alpha  occ. eigenvalues --   -0.51658  -0.50759  -0.50652  -0.49988  -0.49790
 Alpha  occ. eigenvalues --   -0.49141  -0.48453  -0.47810  -0.47362  -0.47245
 Alpha  occ. eigenvalues --   -0.46470  -0.46212  -0.46078  -0.45732  -0.45086
 Alpha  occ. eigenvalues --   -0.44850  -0.44642  -0.44367  -0.43737  -0.42932
 Alpha  occ. eigenvalues --   -0.42126  -0.41352  -0.37675  -0.37646  -0.36628
 Alpha  occ. eigenvalues --   -0.36121  -0.35729  -0.34913  -0.34020  -0.33537
 Alpha  occ. eigenvalues --   -0.32941  -0.30524
 Alpha virt. eigenvalues --   -0.11883  -0.11203  -0.10509  -0.08724  -0.07858
 Alpha virt. eigenvalues --   -0.06422  -0.05596  -0.05166  -0.04249  -0.03655
 Alpha virt. eigenvalues --   -0.02318  -0.01428  -0.01268  -0.01161  -0.00137

 Mulliken charges:
               1
     1  N   -0.712297
     2  H    0.310163
     3  H    0.319143
     4  C   -0.063593
     5  H    0.132513
     6  C    0.638478
     7  C   -0.283319
     8  H    0.168175
     9  H    0.170852
    10  O   -0.518741
    11  C   -0.353999
    12  H    0.168585
    13  H    0.167037
    14  C    0.568730
    15  O   -0.451076
    16  O   -0.559066
    17  N   -0.625541
    18  H    0.339635
    19  C   -0.061766
    20  H    0.159725
    21  C    0.656419
    22  C   -0.353003
    23  H    0.200561
    24  H    0.164928
    25  O   -0.544204
    26  C    0.192432
    27  C   -0.196514
    28  H    0.147342
    29  C   -0.156567
    30  H    0.170088
    31  C   -0.170265
    32  H    0.160478
    33  C   -0.202920
    34  H    0.146007
    35  O   -0.675407
    36  H    0.434969
    37  C    0.265990
    38  N   -0.619411
    39  H    0.364153
    40  C   -0.032905
    41  H    0.205686
    42  C    0.586272
    43  C   -0.270762
    44  H    0.158263
    45  H    0.174989
    46  O   -0.449900
    47  C   -0.298829
    48  H    0.157359
    49  H    0.162524
    50  C   -0.284162
    51  H    0.191859
    52  H    0.170506
    53  C   -0.198529
    54  H    0.217611
    55  H    0.214617
    56  N   -0.770774
    57  H    0.442147
    58  H    0.432718
    59  H    0.405831
    60  O   -0.561941
    61  H    0.417941
    62  H    0.430763
 Sum of Mulliken charges =   1.00000

 Dipole moment (field-independent basis, Debye):
    X=             12.2662    Y=              9.9098    Z=            -11.4071  Tot=             19.4624
 Quadrupole moment (field-independent basis, Debye-Ang):
   XX=           -101.5228   YY=           -147.5733   ZZ=            -86.2810
   XY=             37.8873   XZ=            -57.4678   YZ=            -39.9990

 Normal termination of Gaussian 16 at Tue May 24 03:10:11 2022.
