 Gaussian 16, Revision C.01,
 Gaussian 16:  ES64L-G16RevC.01  3-Jul-2019

 -------------------------------------------------------------------
 # B3LYP/6-31G* guess=read geom=check nosymm integral(ultrafinegrid)
 -------------------------------------------------------------------

 ------------------------------------------------------
 Candidate Structure: Conf:883 Charge calc in gas phase
 ------------------------------------------------------
 Structure from the checkpoint file:  "conf-883.chk"
 Charge =  1 Multiplicity = 1

                          Input orientation:
 ---------------------------------------------------------------------
 Center     Atomic      Atomic             Coordinates (Angstroms)
 Number     Number       Type             X           Y           Z
 ---------------------------------------------------------------------
      1          7           0        2.181961   -2.546003    1.458260
      2          1           0        2.419507   -3.028357    2.328224
      3          1           0        2.111799   -3.240899    0.714324
      4          6           0        0.861630   -1.911222    1.655981
      5          1           0        0.929465   -1.360257    2.599054
      6          6           0        0.660599   -0.928659    0.493768
      7          6           0       -0.334220   -2.892414    1.724376
      8          1           0       -0.526546   -3.284525    0.718219
      9          1           0       -1.229966   -2.329453    2.012326
     10          8           0        1.080469   -1.201413   -0.633544
     11          6           0       -0.152876   -4.104155    2.669530
     12          1           0        0.585662   -4.794490    2.246430
     13          1           0       -1.099317   -4.643841    2.747024
     14          6           0        0.348316   -3.733753    4.050197
     15          8           0        1.452633   -3.266815    4.273814
     16          8           0       -0.552406   -3.966453    5.016293
     17          7           0        0.028693    0.231795    0.780745
     18          1           0       -0.219387    0.427663    1.739732
     19          6           0       -0.092891    1.314729   -0.190042
     20          1           0       -0.502349    2.163985    0.370575
     21          6           0        1.330619    1.763520   -0.616316
     22          6           0       -1.079725    0.991868   -1.344750
     23          1           0       -1.219012    1.903795   -1.939573
     24          1           0       -0.628522    0.236529   -1.993277
     25          8           0        2.287855    1.643072    0.163798
     26          6           0       -2.429347    0.520335   -0.847686
     27          6           0       -2.753332   -0.844008   -0.831716
     28          1           0       -2.034917   -1.566002   -1.213332
     29          6           0       -3.386056    1.428223   -0.378532
     30          1           0       -3.176429    2.496201   -0.397312
     31          6           0       -3.981675   -1.292988   -0.357056
     32          1           0       -4.237923   -2.347701   -0.360038
     33          6           0       -4.621019    0.995764    0.102738
     34          1           0       -5.352871    1.719992    0.454700
     35          8           0       -6.107613   -0.866637    0.570653
     36          1           0       -6.690589   -0.135551    0.829502
     37          6           0       -4.923259   -0.370950    0.116584
     38          7           0        1.456337    2.338129   -1.825655
     39          1           0        0.635393    2.503259   -2.399508
     40          6           0        2.635450    3.094525   -2.245949
     41          1           0        3.096745    3.532356   -1.353733
     42          6           0        2.105500    4.229336   -3.125456
     43          6           0        3.720474    2.293642   -3.013111
     44          1           0        3.265818    1.824656   -3.895223
     45          1           0        4.437115    3.032913   -3.384256
     46          8           0        0.968353    4.286867   -3.542465
     47          6           0        4.473891    1.243454   -2.170637
     48          1           0        4.577412    1.627875   -1.148696
     49          1           0        5.492727    1.144599   -2.565247
     50          6           0        3.812447   -0.146592   -2.169665
     51          1           0        2.725976   -0.078215   -2.073262
     52          1           0        4.000188   -0.635922   -3.133622
     53          6           0        4.325869   -1.090468   -1.083404
     54          1           0        3.900031   -2.086523   -1.215153
     55          1           0        5.415691   -1.176202   -1.098834
     56          7           0        3.923388   -0.632161    0.309056
     57          1           0        4.736344   -0.420524    0.891013
     58          1           0        3.333275   -1.380562    0.808270
     59          1           0        3.333837    0.228873    0.267088
     60          8           0        3.054508    5.137399   -3.393434
     61          1           0       -0.141849   -3.715795    5.867328
     62          1           0        2.658149    5.816277   -3.973789
 ---------------------------------------------------------------------

 SCF Done:  E(RB3LYP) =  -1526.24952934     A.U. after    1 cycles

 Alpha  occ. eigenvalues --  -19.30417 -19.29897 -19.25311 -19.25052 -19.24429
 Alpha  occ. eigenvalues --  -19.23834 -19.23344 -14.53241 -14.47946 -14.47893
 Alpha  occ. eigenvalues --  -14.45557 -10.43049 -10.42645 -10.41137 -10.40243
 Alpha  occ. eigenvalues --  -10.35505 -10.35342 -10.35141 -10.34541 -10.32850
 Alpha  occ. eigenvalues --  -10.30962 -10.30757 -10.29805 -10.29654 -10.29351
 Alpha  occ. eigenvalues --  -10.29345 -10.27582 -10.27447 -10.27227 -10.26945
 Alpha  occ. eigenvalues --  -10.26413  -1.21553  -1.20901  -1.16043  -1.14773
 Alpha  occ. eigenvalues --   -1.13466  -1.12717  -1.11778  -1.08370  -1.04308
 Alpha  occ. eigenvalues --   -1.04157  -1.01735  -0.93677  -0.91778  -0.90227
 Alpha  occ. eigenvalues --   -0.89298  -0.87402  -0.83821  -0.82808  -0.82547
 Alpha  occ. eigenvalues --   -0.81113  -0.76389  -0.75628  -0.74886  -0.72961
 Alpha  occ. eigenvalues --   -0.70549  -0.70266  -0.69766  -0.69567  -0.69199
 Alpha  occ. eigenvalues --   -0.67568  -0.66915  -0.66696  -0.65206  -0.63541
 Alpha  occ. eigenvalues --   -0.62298  -0.60854  -0.60544  -0.60170  -0.59592
 Alpha  occ. eigenvalues --   -0.58780  -0.58210  -0.57873  -0.57370  -0.57282
 Alpha  occ. eigenvalues --   -0.56660  -0.56179  -0.55586  -0.54943  -0.54675
 Alpha  occ. eigenvalues --   -0.54272  -0.53849  -0.53297  -0.52836  -0.52168
 Alpha  occ. eigenvalues --   -0.51872  -0.51195  -0.50842  -0.50349  -0.50187
 Alpha  occ. eigenvalues --   -0.49932  -0.49614  -0.48515  -0.48214  -0.47705
 Alpha  occ. eigenvalues --   -0.47375  -0.46942  -0.46440  -0.46162  -0.45500
 Alpha  occ. eigenvalues --   -0.44938  -0.44458  -0.44146  -0.43961  -0.42420
 Alpha  occ. eigenvalues --   -0.41914  -0.41661  -0.40818  -0.39857  -0.38937
 Alpha  occ. eigenvalues --   -0.38001  -0.37643  -0.37487  -0.37095  -0.36663
 Alpha  occ. eigenvalues --   -0.33252  -0.29725
 Alpha virt. eigenvalues --   -0.10851  -0.10132  -0.09722  -0.09305  -0.08275
 Alpha virt. eigenvalues --   -0.07098  -0.06173  -0.03994  -0.03256  -0.02178
 Alpha virt. eigenvalues --   -0.01359  -0.00492  -0.00141   0.00219   0.00572

 Mulliken charges:
               1
     1  N   -0.789610
     2  H    0.363901
     3  H    0.335192
     4  C   -0.069554
     5  H    0.171434
     6  C    0.634785
     7  C   -0.296532
     8  H    0.176934
     9  H    0.177995
    10  O   -0.557815
    11  C   -0.356154
    12  H    0.179415
    13  H    0.201648
    14  C    0.587657
    15  O   -0.474075
    16  O   -0.539377
    17  N   -0.578598
    18  H    0.348466
    19  C   -0.060721
    20  H    0.190526
    21  C    0.659218
    22  C   -0.395335
    23  H    0.164062
    24  H    0.189455
    25  O   -0.585866
    26  C    0.173333
    27  C   -0.199519
    28  H    0.136805
    29  C   -0.196395
    30  H    0.131782
    31  C   -0.162917
    32  H    0.151455
    33  C   -0.190582
    34  H    0.137643
    35  O   -0.631513
    36  H    0.416628
    37  C    0.355600
    38  N   -0.612517
    39  H    0.375684
    40  C   -0.041457
    41  H    0.202883
    42  C    0.587759
    43  C   -0.277639
    44  H    0.162329
    45  H    0.186103
    46  O   -0.457271
    47  C   -0.276076
    48  H    0.144725
    49  H    0.159868
    50  C   -0.314858
    51  H    0.202758
    52  H    0.173333
    53  C   -0.158236
    54  H    0.194975
    55  H    0.186588
    56  N   -0.828716
    57  H    0.382349
    58  H    0.444376
    59  H    0.457130
    60  O   -0.553674
    61  H    0.425536
    62  H    0.434674
 Sum of Mulliken charges =   1.00000

 Dipole moment (field-independent basis, Debye):
    X=              8.2485    Y=             -0.0111    Z=              1.7149  Tot=              8.4249
 Quadrupole moment (field-independent basis, Debye-Ang):
   XX=           -112.6243   YY=           -131.9328   ZZ=           -146.1447
   XY=             -4.9896   XZ=            -21.3759   YZ=            -27.2869

 Normal termination of Gaussian 16 at Tue May 24 03:10:25 2022.
