 Gaussian 16, Revision C.01,
 Gaussian 16:  ES64L-G16RevC.01  3-Jul-2019

 -------------------------------------------------------------------
 # B3LYP/6-31G* guess=read geom=check nosymm integral(ultrafinegrid)
 -------------------------------------------------------------------

 ------------------------------------------------------
 Candidate Structure: Conf:304 Charge calc in gas phase
 ------------------------------------------------------
 Structure from the checkpoint file:  "conf-304.chk"
 Charge =  1 Multiplicity = 1

                          Input orientation:
 ---------------------------------------------------------------------
 Center     Atomic      Atomic             Coordinates (Angstroms)
 Number     Number       Type             X           Y           Z
 ---------------------------------------------------------------------
      1          7           0       -1.167264   -2.494006    4.309276
      2          1           0       -0.778541   -3.338479    3.889128
      3          1           0       -0.385227   -1.996339    4.733333
      4          6           0       -1.759604   -1.686421    3.242787
      5          1           0       -2.048611   -0.720746    3.679143
      6          6           0       -0.772328   -1.463444    2.081993
      7          6           0       -3.026007   -2.398886    2.728759
      8          1           0       -3.635046   -2.643205    3.603040
      9          1           0       -2.721918   -3.345376    2.264021
     10          8           0       -0.160343   -2.429517    1.601155
     11          6           0       -3.850081   -1.571083    1.726282
     12          1           0       -3.270736   -1.322916    0.833382
     13          1           0       -4.175022   -0.635010    2.199883
     14          6           0       -5.085203   -2.308773    1.246995
     15          8           0       -5.308859   -2.632471    0.103550
     16          8           0       -5.931321   -2.578221    2.271046
     17          7           0       -0.609606   -0.184852    1.656226
     18          1           0       -1.157386    0.520223    2.131185
     19          6           0        0.102400    0.274914    0.445039
     20          1           0       -0.053531    1.354539    0.408004
     21          6           0        1.636814    0.130325    0.543285
     22          6           0       -0.478091   -0.351996   -0.852398
     23          1           0       -0.299868   -1.430813   -0.843196
     24          1           0       -1.565276   -0.210634   -0.810097
     25          8           0        2.381154    1.096883    0.455975
     26          6           0        0.075337    0.274938   -2.113806
     27          6           0       -0.422462    1.503004   -2.577663
     28          1           0       -1.224853    1.997669   -2.033738
     29          6           0        1.092233   -0.340417   -2.850884
     30          1           0        1.495300   -1.294143   -2.519592
     31          6           0        0.074051    2.101167   -3.728937
     32          1           0       -0.318484    3.046513   -4.089126
     33          6           0        1.601237    0.245533   -4.010373
     34          1           0        2.387223   -0.253183   -4.574783
     35          8           0        1.539736    2.098619   -5.578335
     36          1           0        2.223122    1.556310   -6.002098
     37          6           0        1.093420    1.470637   -4.453395
     38          7           0        2.108078   -1.148782    0.688099
     39          1           0        1.429927   -1.882523    0.920232
     40          6           0        3.537171   -1.362356    0.760905
     41          1           0        3.984954   -0.572545    0.140541
     42          6           0        3.892470   -2.694986    0.111701
     43          6           0        4.120728   -1.244452    2.181480
     44          1           0        3.632360   -0.389548    2.656579
     45          1           0        3.818834   -2.126040    2.764045
     46          8           0        4.575866   -3.580348    0.627514
     47          6           0        5.652467   -1.026104    2.197537
     48          1           0        5.842499    0.048097    2.110560
     49          1           0        6.116292   -1.476928    1.309818
     50          6           0        6.367924   -1.560043    3.456801
     51          1           0        7.251865   -0.949184    3.673518
     52          1           0        5.721431   -1.470231    4.340333
     53          6           0        6.893392   -2.989426    3.332646
     54          1           0        7.599358   -3.080356    2.502993
     55          1           0        7.385792   -3.324367    4.248875
     56          7           0        5.790408   -3.991482    3.036456
     57          1           0        6.166946   -4.941464    2.949195
     58          1           0        5.287440   -3.764334    2.130734
     59          1           0        5.094259   -4.007923    3.788757
     60          8           0        3.398670   -2.835010   -1.111909
     61          1           0       -6.691006   -3.054433    1.884940
     62          1           0        3.669434   -3.708883   -1.456895
 ---------------------------------------------------------------------

 SCF Done:  E(RB3LYP) =  -1526.20571793     A.U. after    3 cycles

 Alpha  occ. eigenvalues --  -19.33847 -19.29813 -19.25564 -19.23776 -19.22086
 Alpha  occ. eigenvalues --  -19.20992 -19.19866 -14.60667 -14.46893 -14.45227
 Alpha  occ. eigenvalues --  -14.40277 -10.47110 -10.40387 -10.38541 -10.38212
 Alpha  occ. eigenvalues --  -10.38041 -10.36029 -10.34079 -10.33026 -10.32179
 Alpha  occ. eigenvalues --  -10.31850 -10.31406 -10.31129 -10.27342 -10.27324
 Alpha  occ. eigenvalues --  -10.26964 -10.25746 -10.25642 -10.25433 -10.25277
 Alpha  occ. eigenvalues --  -10.24589  -1.25526  -1.16487  -1.16393  -1.15054
 Alpha  occ. eigenvalues --   -1.13742  -1.12789  -1.11891  -1.07425  -1.02770
 Alpha  occ. eigenvalues --   -1.02423  -0.97617  -0.94884  -0.91940  -0.90452
 Alpha  occ. eigenvalues --   -0.87393  -0.86582  -0.84969  -0.81118  -0.80933
 Alpha  occ. eigenvalues --   -0.79805  -0.78191  -0.75531  -0.74624  -0.74026
 Alpha  occ. eigenvalues --   -0.73247  -0.71498  -0.70733  -0.68836  -0.68414
 Alpha  occ. eigenvalues --   -0.67580  -0.66615  -0.65769  -0.65372  -0.64469
 Alpha  occ. eigenvalues --   -0.63337  -0.62110  -0.60611  -0.60325  -0.59636
 Alpha  occ. eigenvalues --   -0.59376  -0.57831  -0.57403  -0.56413  -0.56019
 Alpha  occ. eigenvalues --   -0.55786  -0.55147  -0.54765  -0.54364  -0.53747
 Alpha  occ. eigenvalues --   -0.53426  -0.52473  -0.52025  -0.51619  -0.51081
 Alpha  occ. eigenvalues --   -0.50846  -0.50525  -0.50098  -0.49895  -0.49306
 Alpha  occ. eigenvalues --   -0.48492  -0.48273  -0.47572  -0.47388  -0.47202
 Alpha  occ. eigenvalues --   -0.46482  -0.46150  -0.45964  -0.45602  -0.45083
 Alpha  occ. eigenvalues --   -0.43844  -0.43629  -0.43470  -0.43026  -0.42582
 Alpha  occ. eigenvalues --   -0.41984  -0.39922  -0.39189  -0.37745  -0.37220
 Alpha  occ. eigenvalues --   -0.36487  -0.35311  -0.33803  -0.33434  -0.32204
 Alpha  occ. eigenvalues --   -0.31417  -0.27967
 Alpha virt. eigenvalues --   -0.14257  -0.12222  -0.08449  -0.07383  -0.06772
 Alpha virt. eigenvalues --   -0.06401  -0.05370  -0.05275  -0.04952  -0.04125
 Alpha virt. eigenvalues --   -0.02635  -0.02400  -0.01596  -0.00362   0.00575

 Mulliken charges:
               1
     1  N   -0.689613
     2  H    0.310139
     3  H    0.296068
     4  C   -0.074112
     5  H    0.139792
     6  C    0.615180
     7  C   -0.266465
     8  H    0.195389
     9  H    0.165547
    10  O   -0.568227
    11  C   -0.357058
    12  H    0.175581
    13  H    0.167809
    14  C    0.566235
    15  O   -0.446191
    16  O   -0.557841
    17  N   -0.611019
    18  H    0.348353
    19  C   -0.069860
    20  H    0.187335
    21  C    0.622748
    22  C   -0.375059
    23  H    0.175380
    24  H    0.169905
    25  O   -0.504423
    26  C    0.169094
    27  C   -0.185069
    28  H    0.127859
    29  C   -0.192540
    30  H    0.128020
    31  C   -0.151956
    32  H    0.154490
    33  C   -0.191301
    34  H    0.119259
    35  O   -0.632661
    36  H    0.411429
    37  C    0.355007
    38  N   -0.638436
    39  H    0.384809
    40  C   -0.028669
    41  H    0.225685
    42  C    0.612421
    43  C   -0.277437
    44  H    0.197477
    45  H    0.104833
    46  O   -0.532700
    47  C   -0.299902
    48  H    0.199206
    49  H    0.151003
    50  C   -0.290983
    51  H    0.202463
    52  H    0.171660
    53  C   -0.203198
    54  H    0.219654
    55  H    0.215977
    56  N   -0.771589
    57  H    0.413929
    58  H    0.466811
    59  H    0.404926
    60  O   -0.510747
    61  H    0.418376
    62  H    0.437210
 Sum of Mulliken charges =   1.00000

 Dipole moment (field-independent basis, Debye):
    X=             22.7160    Y=            -14.7378    Z=             12.4593  Tot=             29.8070
 Quadrupole moment (field-independent basis, Debye-Ang):
   XX=            -22.0421   YY=           -124.1738   ZZ=           -125.3192
   XY=            -91.5177   XZ=             51.6100   YZ=            -35.1120

 Normal termination of Gaussian 16 at Tue May 24 03:10:18 2022.
