 Gaussian 16, Revision C.01,
 Gaussian 16:  ES64L-G16RevC.01  3-Jul-2019

 -------------------------------------------------------------------
 # B3LYP/6-31G* guess=read geom=check nosymm integral(ultrafinegrid)
 -------------------------------------------------------------------

 ------------------------------------------------------
 Candidate Structure: Conf:302 Charge calc in gas phase
 ------------------------------------------------------
 Structure from the checkpoint file:  "conf-302.chk"
 Charge =  1 Multiplicity = 1

                          Input orientation:
 ---------------------------------------------------------------------
 Center     Atomic      Atomic             Coordinates (Angstroms)
 Number     Number       Type             X           Y           Z
 ---------------------------------------------------------------------
      1          7           0       -3.298946    0.702342    2.321259
      2          1           0       -4.100957    0.888042    1.721089
      3          1           0       -3.671095    0.529775    3.252997
      4          6           0       -2.557647   -0.471828    1.833581
      5          1           0       -3.206687   -1.255571    1.416168
      6          6           0       -1.621746   -0.058419    0.679663
      7          6           0       -1.754184   -1.083981    3.004461
      8          1           0       -2.454920   -1.254916    3.832523
      9          1           0       -1.012970   -0.356103    3.354514
     10          8           0       -1.190308   -0.870222   -0.132592
     11          6           0       -1.061643   -2.420017    2.659927
     12          1           0       -0.347315   -2.275118    1.848326
     13          1           0       -1.806335   -3.155256    2.342319
     14          6           0       -0.324096   -2.957774    3.867000
     15          8           0        0.813363   -2.665091    4.206807
     16          8           0       -1.076626   -3.797543    4.594138
     17          7           0       -1.272200    1.262995    0.683876
     18          1           0       -1.789872    1.835312    1.346864
     19          6           0       -0.473892    1.882401   -0.368338
     20          1           0       -0.146120    2.844451    0.044376
     21          6           0        0.823839    1.080965   -0.636190
     22          6           0       -1.273732    2.156677   -1.666613
     23          1           0       -1.616775    1.200747   -2.071265
     24          1           0       -2.163602    2.733621   -1.383401
     25          8           0        1.258889    0.873283   -1.767787
     26          6           0       -0.459446    2.900585   -2.707368
     27          6           0        0.179601    4.109571   -2.402788
     28          1           0       -0.004890    4.599741   -1.449934
     29          6           0       -0.251863    2.347554   -3.977319
     30          1           0       -0.751263    1.420904   -4.243442
     31          6           0        1.090287    4.692472   -3.286539
     32          1           0        1.603480    5.617403   -3.040779
     33          6           0        0.645585    2.917015   -4.877600
     34          1           0        0.829309    2.447335   -5.841943
     35          8           0        2.416153    4.552388   -5.268346
     36          1           0        2.221321    4.431344   -6.213156
     37          6           0        1.344208    4.063112   -4.500655
     38          7           0        1.507844    0.731397    0.480107
     39          1           0        1.010092    0.733207    1.361290
     40          6           0        2.642051   -0.182985    0.379551
     41          1           0        2.358487   -0.982689   -0.321309
     42          6           0        2.857349   -0.918129    1.706438
     43          6           0        3.926946    0.502865   -0.158677
     44          1           0        3.734256    1.581607   -0.165143
     45          1           0        4.745688    0.330803    0.546171
     46          8           0        3.864666   -1.531067    1.968698
     47          6           0        4.353971    0.015550   -1.562969
     48          1           0        3.492066   -0.417461   -2.080794
     49          1           0        5.096070   -0.783127   -1.461876
     50          6           0        4.950878    1.118943   -2.462311
     51          1           0        5.655508    1.736080   -1.886088
     52          1           0        5.527499    0.650038   -3.272457
     53          6           0        3.861599    1.994593   -3.078417
     54          1           0        3.178196    1.420246   -3.704935
     55          1           0        3.254807    2.522622   -2.343213
     56          7           0        4.471678    3.066371   -3.981528
     57          1           0        3.748394    3.617552   -4.509579
     58          1           0        5.104916    2.638982   -4.666188
     59          1           0        5.032723    3.728785   -3.435547
     60          8           0        1.762547   -0.852262    2.483036
     61          1           0       -0.541019   -4.077972    5.362134
     62          1           0        1.765242   -1.517384    3.220271
 ---------------------------------------------------------------------

 SCF Done:  E(RB3LYP) =  -1526.21863846     A.U. after    1 cycles

 Alpha  occ. eigenvalues --  -19.31316 -19.28315 -19.26310 -19.23339 -19.21120
 Alpha  occ. eigenvalues --  -19.20587 -19.20050 -14.59604 -14.44660 -14.44065
 Alpha  occ. eigenvalues --  -14.41700 -10.41225 -10.39638 -10.37673 -10.37455
 Alpha  occ. eigenvalues --  -10.36948 -10.35751 -10.33258 -10.32182 -10.31843
 Alpha  occ. eigenvalues --  -10.31533 -10.29750 -10.29568 -10.29473 -10.29273
 Alpha  occ. eigenvalues --  -10.29007 -10.28847 -10.28537 -10.28347 -10.28102
 Alpha  occ. eigenvalues --  -10.27799  -1.19518  -1.18089  -1.17361  -1.13780
 Alpha  occ. eigenvalues --   -1.12667  -1.11620  -1.10313  -1.08788  -1.01959
 Alpha  occ. eigenvalues --   -1.00619  -0.98159  -0.95837  -0.92204  -0.88469
 Alpha  occ. eigenvalues --   -0.88089  -0.86750  -0.85277  -0.83273  -0.81351
 Alpha  occ. eigenvalues --   -0.79620  -0.76831  -0.75607  -0.72910  -0.72803
 Alpha  occ. eigenvalues --   -0.72452  -0.71840  -0.69816  -0.69272  -0.68382
 Alpha  occ. eigenvalues --   -0.67820  -0.67147  -0.65378  -0.65297  -0.63010
 Alpha  occ. eigenvalues --   -0.62000  -0.60648  -0.58876  -0.58681  -0.58586
 Alpha  occ. eigenvalues --   -0.58420  -0.57552  -0.57071  -0.56893  -0.55827
 Alpha  occ. eigenvalues --   -0.55200  -0.55059  -0.54502  -0.54170  -0.53951
 Alpha  occ. eigenvalues --   -0.53014  -0.52935  -0.52769  -0.52239  -0.51446
 Alpha  occ. eigenvalues --   -0.50856  -0.50623  -0.50458  -0.49583  -0.49501
 Alpha  occ. eigenvalues --   -0.48611  -0.48526  -0.48014  -0.46971  -0.46465
 Alpha  occ. eigenvalues --   -0.46385  -0.45513  -0.45203  -0.45157  -0.44240
 Alpha  occ. eigenvalues --   -0.44140  -0.43881  -0.43449  -0.43318  -0.42928
 Alpha  occ. eigenvalues --   -0.42610  -0.40496  -0.39081  -0.36941  -0.35994
 Alpha  occ. eigenvalues --   -0.35468  -0.35369  -0.34959  -0.34778  -0.33927
 Alpha  occ. eigenvalues --   -0.32639  -0.31950
 Alpha virt. eigenvalues --   -0.11114  -0.10786  -0.09971  -0.08303  -0.07023
 Alpha virt. eigenvalues --   -0.06496  -0.06338  -0.05483  -0.05127  -0.02769
 Alpha virt. eigenvalues --   -0.01328  -0.00840  -0.00213   0.00020   0.00715

 Mulliken charges:
               1
     1  N   -0.761698
     2  H    0.322231
     3  H    0.323306
     4  C   -0.050726
     5  H    0.163347
     6  C    0.597373
     7  C   -0.294223
     8  H    0.163541
     9  H    0.171138
    10  O   -0.520796
    11  C   -0.340710
    12  H    0.204461
    13  H    0.184610
    14  C    0.587458
    15  O   -0.490107
    16  O   -0.537653
    17  N   -0.623299
    18  H    0.363813
    19  C   -0.052562
    20  H    0.164730
    21  C    0.641720
    22  C   -0.351044
    23  H    0.189760
    24  H    0.159372
    25  O   -0.550263
    26  C    0.203568
    27  C   -0.197293
    28  H    0.144809
    29  C   -0.163186
    30  H    0.160204
    31  C   -0.167462
    32  H    0.154005
    33  C   -0.182696
    34  H    0.140415
    35  O   -0.682677
    36  H    0.432772
    37  C    0.284568
    38  N   -0.619826
    39  H    0.365412
    40  C   -0.021477
    41  H    0.206288
    42  C    0.578354
    43  C   -0.279180
    44  H    0.138509
    45  H    0.187785
    46  O   -0.450419
    47  C   -0.273416
    48  H    0.178849
    49  H    0.173784
    50  C   -0.301490
    51  H    0.157517
    52  H    0.154117
    53  C   -0.188349
    54  H    0.230030
    55  H    0.227037
    56  N   -0.775259
    57  H    0.451673
    58  H    0.401706
    59  H    0.406319
    60  O   -0.623480
    61  H    0.425989
    62  H    0.458721
 Sum of Mulliken charges =   1.00000

 Dipole moment (field-independent basis, Debye):
    X=              8.8965    Y=             11.8755    Z=            -10.5193  Tot=             18.1888
 Quadrupole moment (field-independent basis, Debye-Ang):
   XX=            -99.3677   YY=           -131.5293   ZZ=            -81.3583
   XY=             48.4392   XZ=            -80.1562   YZ=            -57.1751

 Normal termination of Gaussian 16 at Tue May 24 03:09:57 2022.
