 Gaussian 16, Revision C.01,
 Gaussian 16:  ES64L-G16RevC.01  3-Jul-2019

 -------------------------------------------------------------------
 # B3LYP/6-31G* guess=read geom=check nosymm integral(ultrafinegrid)
 -------------------------------------------------------------------

 -----------------------------------------------------
 Candidate Structure: Conf:14 Charge calc in gas phase
 -----------------------------------------------------
 Structure from the checkpoint file:  "conf-14.chk"
 Charge =  1 Multiplicity = 1

                          Input orientation:
 ---------------------------------------------------------------------
 Center     Atomic      Atomic             Coordinates (Angstroms)
 Number     Number       Type             X           Y           Z
 ---------------------------------------------------------------------
      1          7           0       -0.858723   -2.471890    2.684479
      2          1           0       -0.720986   -3.319665    3.228428
      3          1           0       -1.850390   -2.425809    2.449975
      4          6           0       -0.453783   -1.282956    3.447606
      5          1           0        0.495024   -1.531664    3.943989
      6          6           0       -0.120514   -0.121894    2.489082
      7          6           0       -1.449771   -0.797810    4.518415
      8          1           0       -2.412373   -0.574361    4.039495
      9          1           0       -1.076988    0.141048    4.937858
     10          8           0        0.004995    1.039091    2.892398
     11          6           0       -1.672240   -1.832783    5.636805
     12          1           0       -0.736359   -2.032528    6.168730
     13          1           0       -2.044275   -2.771183    5.212247
     14          6           0       -2.724870   -1.339891    6.606995
     15          8           0       -3.919092   -1.371947    6.409455
     16          8           0       -2.177215   -0.806789    7.725969
     17          7           0        0.049712   -0.477252    1.195605
     18          1           0       -0.122982   -1.457376    0.987987
     19          6           0        0.144871    0.506786    0.120921
     20          1           0       -0.468239    1.364954    0.426265
     21          6           0        1.595832    1.015840   -0.044137
     22          6           0       -0.388923   -0.073677   -1.201356
     23          1           0       -0.287862    0.705552   -1.964555
     24          1           0        0.271824   -0.887666   -1.519363
     25          8           0        2.262941    0.818802   -1.060320
     26          6           0       -1.821352   -0.555245   -1.108181
     27          6           0       -2.122806   -1.922045   -1.018821
     28          1           0       -1.316757   -2.652138   -1.057827
     29          6           0       -2.890151    0.349560   -1.083138
     30          1           0       -2.694997    1.417248   -1.161102
     31          6           0       -3.434018   -2.375659   -0.897560
     32          1           0       -3.661621   -3.435281   -0.837801
     33          6           0       -4.208876   -0.085460   -0.963013
     34          1           0       -5.022800    0.637109   -0.949617
     35          8           0       -5.751628   -1.949696   -0.746575
     36          1           0       -6.385719   -1.215741   -0.737238
     37          6           0       -4.485982   -1.454118   -0.866298
     38          7           0        2.075670    1.725282    1.014958
     39          1           0        1.525720    1.776346    1.878593
     40          6           0        3.459790    2.151096    1.012439
     41          1           0        4.086651    1.320258    0.659373
     42          6           0        3.871336    2.474681    2.440794
     43          6           0        3.678686    3.345553    0.041243
     44          1           0        3.053931    3.126851   -0.829016
     45          1           0        3.302151    4.269301    0.498772
     46          8           0        3.143886    2.489393    3.385017
     47          6           0        5.128325    3.518565   -0.430192
     48          1           0        5.495288    2.553318   -0.804594
     49          1           0        5.775262    3.805352    0.405237
     50          6           0        5.229375    4.562213   -1.557401
     51          1           0        4.564022    4.269845   -2.381921
     52          1           0        4.887352    5.540424   -1.190910
     53          6           0        6.658951    4.673976   -2.068174
     54          1           0        7.352602    5.037756   -1.306308
     55          1           0        7.033693    3.728803   -2.468465
     56          7           0        6.744819    5.677822   -3.225262
     57          1           0        7.699750    5.767781   -3.593776
     58          1           0        6.435490    6.610921   -2.926166
     59          1           0        6.135432    5.391977   -4.001866
     60          8           0        5.194044    2.759763    2.529740
     61          1           0       -2.922869   -0.487655    8.269617
     62          1           0        5.367229    2.943884    3.473583
 ---------------------------------------------------------------------

 SCF Done:  E(RB3LYP) =  -1526.19407197     A.U. after    1 cycles

 Alpha  occ. eigenvalues --  -19.28484 -19.24002 -19.22836 -19.22761 -19.18484
 Alpha  occ. eigenvalues --  -19.18066 -19.17681 -14.65839 -14.42167 -14.41813
 Alpha  occ. eigenvalues --  -14.39160 -10.42711 -10.40601 -10.36455 -10.35258
 Alpha  occ. eigenvalues --  -10.35084 -10.34477 -10.32506 -10.31135 -10.30172
 Alpha  occ. eigenvalues --  -10.29803 -10.29086 -10.28947 -10.25198 -10.25161
 Alpha  occ. eigenvalues --  -10.24681 -10.24631 -10.24575 -10.24462 -10.24341
 Alpha  occ. eigenvalues --  -10.23747  -1.19768  -1.19675  -1.14728  -1.11047
 Alpha  occ. eigenvalues --   -1.10927  -1.10317  -1.09283  -1.05683  -0.99475
 Alpha  occ. eigenvalues --   -0.98808  -0.96149  -0.95573  -0.90658  -0.89123
 Alpha  occ. eigenvalues --   -0.84825  -0.84503  -0.83556  -0.80084  -0.79761
 Alpha  occ. eigenvalues --   -0.78759  -0.78272  -0.76766  -0.76095  -0.72482
 Alpha  occ. eigenvalues --   -0.71648  -0.69726  -0.67880  -0.67538  -0.66867
 Alpha  occ. eigenvalues --   -0.64984  -0.64401  -0.63879  -0.63535  -0.63368
 Alpha  occ. eigenvalues --   -0.60237  -0.59599  -0.58400  -0.57968  -0.57578
 Alpha  occ. eigenvalues --   -0.56939  -0.55328  -0.55155  -0.54841  -0.54107
 Alpha  occ. eigenvalues --   -0.54087  -0.53773  -0.52610  -0.52215  -0.51378
 Alpha  occ. eigenvalues --   -0.50875  -0.50823  -0.50603  -0.49484  -0.49190
 Alpha  occ. eigenvalues --   -0.48891  -0.48408  -0.47971  -0.47504  -0.46888
 Alpha  occ. eigenvalues --   -0.46530  -0.46185  -0.45939  -0.45657  -0.45125
 Alpha  occ. eigenvalues --   -0.45003  -0.44107  -0.43050  -0.42740  -0.42131
 Alpha  occ. eigenvalues --   -0.41403  -0.40949  -0.40819  -0.40585  -0.40157
 Alpha  occ. eigenvalues --   -0.38898  -0.37904  -0.36388  -0.35913  -0.34055
 Alpha  occ. eigenvalues --   -0.33300  -0.32488  -0.31823  -0.30714  -0.30265
 Alpha  occ. eigenvalues --   -0.30090  -0.26967
 Alpha virt. eigenvalues --   -0.16187  -0.09489  -0.09437  -0.07560  -0.07188
 Alpha virt. eigenvalues --   -0.05857  -0.05046  -0.04394  -0.04063  -0.03620
 Alpha virt. eigenvalues --   -0.02675  -0.02224  -0.01135  -0.00420   0.01466

 Mulliken charges:
               1
     1  N   -0.753778
     2  H    0.323104
     3  H    0.323152
     4  C   -0.069441
     5  H    0.171630
     6  C    0.619436
     7  C   -0.281603
     8  H    0.161194
     9  H    0.190580
    10  O   -0.553768
    11  C   -0.334068
    12  H    0.166452
    13  H    0.158515
    14  C    0.560499
    15  O   -0.454704
    16  O   -0.557175
    17  N   -0.604647
    18  H    0.370408
    19  C   -0.047249
    20  H    0.178177
    21  C    0.629634
    22  C   -0.387440
    23  H    0.162275
    24  H    0.167848
    25  O   -0.548749
    26  C    0.177443
    27  C   -0.205589
    28  H    0.131301
    29  C   -0.186091
    30  H    0.125642
    31  C   -0.164808
    32  H    0.149013
    33  C   -0.190540
    34  H    0.128522
    35  O   -0.635427
    36  H    0.412660
    37  C    0.351792
    38  N   -0.654308
    39  H    0.406231
    40  C   -0.012796
    41  H    0.186950
    42  C    0.570116
    43  C   -0.277681
    44  H    0.186145
    45  H    0.152852
    46  O   -0.422113
    47  C   -0.279400
    48  H    0.165536
    49  H    0.178429
    50  C   -0.294088
    51  H    0.174259
    52  H    0.169418
    53  C   -0.207383
    54  H    0.230483
    55  H    0.232770
    56  N   -0.731875
    57  H    0.432547
    58  H    0.428188
    59  H    0.429389
    60  O   -0.582180
    61  H    0.412608
    62  H    0.421703
 Sum of Mulliken charges =   1.00000

 Dipole moment (field-independent basis, Debye):
    X=             28.5500    Y=             23.3523    Z=            -10.5455  Tot=             38.3620
 Quadrupole moment (field-independent basis, Debye-Ang):
   XX=             36.5018   YY=            -31.2126   ZZ=           -124.4205
   XY=            162.1669   XZ=            -75.9522   YZ=            -82.5230

 Normal termination of Gaussian 16 at Tue May 24 03:09:46 2022.
