 Gaussian 16, Revision C.01,
 Gaussian 16:  ES64L-G16RevC.01  3-Jul-2019

 -------------------------------------------------------------------
 # B3LYP/6-31G* guess=read geom=check nosymm integral(ultrafinegrid)
 -------------------------------------------------------------------

 ------------------------------------------------------
 Candidate Structure: Conf:474 Charge calc in gas phase
 ------------------------------------------------------
 Structure from the checkpoint file:  "conf-474.chk"
 Charge =  1 Multiplicity = 1

                          Input orientation:
 ---------------------------------------------------------------------
 Center     Atomic      Atomic             Coordinates (Angstroms)
 Number     Number       Type             X           Y           Z
 ---------------------------------------------------------------------
      1          7           0        1.245581   -2.758237    2.960790
      2          1           0        1.775819   -3.201000    2.209279
      3          1           0        1.863961   -2.038265    3.333037
      4          6           0        0.066714   -2.125493    2.374675
      5          1           0       -0.378011   -1.477615    3.137824
      6          6           0        0.438853   -1.246561    1.158858
      7          6           0       -0.951167   -3.233937    2.024245
      8          1           0       -1.067579   -3.839967    2.928113
      9          1           0       -0.513500   -3.888362    1.260037
     10          8           0        1.435442   -1.475502    0.472892
     11          6           0       -2.338006   -2.777196    1.512750
     12          1           0       -2.973605   -3.656579    1.383054
     13          1           0       -2.247416   -2.282166    0.541327
     14          6           0       -3.018181   -1.804060    2.446314
     15          8           0       -2.726410   -0.620117    2.555208
     16          8           0       -3.981825   -2.366530    3.188745
     17          7           0       -0.344081   -0.142894    0.945158
     18          1           0       -1.238790   -0.088387    1.438999
     19          6           0       -0.101184    0.736529   -0.195108
     20          1           0       -0.758059    1.603877   -0.048693
     21          6           0        1.335109    1.284629   -0.134961
     22          6           0       -0.400852    0.124018   -1.583184
     23          1           0       -0.106970    0.869072   -2.331010
     24          1           0        0.255985   -0.738414   -1.723012
     25          8           0        1.965351    1.556136   -1.176740
     26          6           0       -1.846669   -0.279899   -1.781146
     27          6           0       -2.184745   -1.610673   -2.068028
     28          1           0       -1.396999   -2.358080   -2.134101
     29          6           0       -2.886172    0.658663   -1.732344
     30          1           0       -2.666378    1.706644   -1.536599
     31          6           0       -3.503836   -1.999135   -2.289733
     32          1           0       -3.757537   -3.028892   -2.520349
     33          6           0       -4.212377    0.287596   -1.945850
     34          1           0       -5.001079    1.036274   -1.904211
     35          8           0       -5.800434   -1.481075   -2.445439
     36          1           0       -6.412676   -0.729669   -2.404645
     37          6           0       -4.527590   -1.047714   -2.225843
     38          7           0        1.834952    1.529639    1.088403
     39          1           0        1.305141    1.208565    1.889895
     40          6           0        3.223163    1.921061    1.274798
     41          1           0        3.826497    1.356229    0.556520
     42          6           0        3.758514    1.501110    2.640032
     43          6           0        3.421373    3.448918    1.052837
     44          1           0        2.788568    3.736109    0.204922
     45          1           0        3.006982    3.967913    1.924484
     46          8           0        4.935420    1.489945    2.912064
     47          6           0        4.874127    3.907790    0.820479
     48          1           0        5.551625    3.333188    1.461310
     49          1           0        4.954436    4.947490    1.156618
     50          6           0        5.396124    3.888943   -0.630485
     51          1           0        4.772280    4.534564   -1.266781
     52          1           0        6.385075    4.360869   -0.624369
     53          6           0        5.580817    2.527079   -1.319400
     54          1           0        6.403374    2.564269   -2.037762
     55          1           0        5.792859    1.725681   -0.607226
     56          7           0        4.364904    2.097174   -2.115499
     57          1           0        4.543680    1.217210   -2.611149
     58          1           0        4.138828    2.797506   -2.829464
     59          1           0        3.462081    1.937242   -1.551185
     60          8           0        2.781610    1.176399    3.515220
     61          1           0       -4.348388   -1.670646    3.768760
     62          1           0        3.211830    0.957531    4.365175
 ---------------------------------------------------------------------

 SCF Done:  E(RB3LYP) =  -1526.22439928     A.U. after    2 cycles

 Alpha  occ. eigenvalues --  -19.32242 -19.28566 -19.26052 -19.25792 -19.24797
 Alpha  occ. eigenvalues --  -19.23350 -19.21097 -14.58508 -14.48548 -14.45136
 Alpha  occ. eigenvalues --  -14.39380 -10.44541 -10.41944 -10.41281 -10.39050
 Alpha  occ. eigenvalues --  -10.37420 -10.37015 -10.34294 -10.33075 -10.32290
 Alpha  occ. eigenvalues --  -10.31598 -10.30716 -10.30687 -10.28146 -10.27795
 Alpha  occ. eigenvalues --  -10.27696 -10.26977 -10.26921 -10.26596 -10.26511
 Alpha  occ. eigenvalues --  -10.25827  -1.22924  -1.19658  -1.17036  -1.13946
 Alpha  occ. eigenvalues --   -1.13197  -1.12943  -1.12738  -1.10410  -1.05732
 Alpha  occ. eigenvalues --   -1.01575  -0.96958  -0.93797  -0.92952  -0.90473
 Alpha  occ. eigenvalues --   -0.87879  -0.86995  -0.84730  -0.82272  -0.81825
 Alpha  occ. eigenvalues --   -0.79168  -0.78781  -0.75314  -0.74299  -0.73254
 Alpha  occ. eigenvalues --   -0.72211  -0.71541  -0.70144  -0.69796  -0.69685
 Alpha  occ. eigenvalues --   -0.68315  -0.67247  -0.66384  -0.64412  -0.63946
 Alpha  occ. eigenvalues --   -0.62071  -0.61690  -0.60771  -0.60334  -0.59678
 Alpha  occ. eigenvalues --   -0.58981  -0.58297  -0.58146  -0.57287  -0.56583
 Alpha  occ. eigenvalues --   -0.55756  -0.55432  -0.54956  -0.54675  -0.53980
 Alpha  occ. eigenvalues --   -0.53804  -0.53339  -0.53131  -0.52651  -0.52380
 Alpha  occ. eigenvalues --   -0.51486  -0.50868  -0.50592  -0.50293  -0.49881
 Alpha  occ. eigenvalues --   -0.49807  -0.49465  -0.48041  -0.47312  -0.47012
 Alpha  occ. eigenvalues --   -0.46907  -0.46658  -0.46454  -0.45546  -0.44697
 Alpha  occ. eigenvalues --   -0.44441  -0.44031  -0.43839  -0.43120  -0.42477
 Alpha  occ. eigenvalues --   -0.41084  -0.40671  -0.40615  -0.40125  -0.39556
 Alpha  occ. eigenvalues --   -0.38133  -0.36968  -0.35508  -0.34550  -0.32721
 Alpha  occ. eigenvalues --   -0.31983  -0.29132
 Alpha virt. eigenvalues --   -0.11823  -0.10437  -0.10030  -0.08552  -0.08020
 Alpha virt. eigenvalues --   -0.07156  -0.06383  -0.05137  -0.04715  -0.03531
 Alpha virt. eigenvalues --   -0.03184  -0.01714  -0.00505   0.00162   0.00278

 Mulliken charges:
               1
     1  N   -0.685029
     2  H    0.314794
     3  H    0.291730
     4  C   -0.093965
     5  H    0.160198
     6  C    0.571239
     7  C   -0.268867
     8  H    0.188412
     9  H    0.163946
    10  O   -0.539374
    11  C   -0.375348
    12  H    0.190964
    13  H    0.195249
    14  C    0.597540
    15  O   -0.490112
    16  O   -0.536210
    17  N   -0.657289
    18  H    0.393177
    19  C   -0.055781
    20  H    0.185392
    21  C    0.684632
    22  C   -0.355785
    23  H    0.165622
    24  H    0.180299
    25  O   -0.609950
    26  C    0.174782
    27  C   -0.217224
    28  H    0.137955
    29  C   -0.193266
    30  H    0.124628
    31  C   -0.156779
    32  H    0.155704
    33  C   -0.188871
    34  H    0.133939
    35  O   -0.631596
    36  H    0.415099
    37  C    0.353293
    38  N   -0.596789
    39  H    0.376805
    40  C   -0.045919
    41  H    0.165848
    42  C    0.600251
    43  C   -0.286091
    44  H    0.161208
    45  H    0.179845
    46  O   -0.437936
    47  C   -0.290475
    48  H    0.195779
    49  H    0.176509
    50  C   -0.296889
    51  H    0.157569
    52  H    0.196865
    53  C   -0.194902
    54  H    0.209660
    55  H    0.220835
    56  N   -0.773602
    57  H    0.408509
    58  H    0.401664
    59  H    0.463322
    60  O   -0.575803
    61  H    0.421895
    62  H    0.438694
 Sum of Mulliken charges =   1.00000

 Dipole moment (field-independent basis, Debye):
    X=             10.9200    Y=              9.5689    Z=             -2.0317  Tot=             14.6608
 Quadrupole moment (field-independent basis, Debye-Ang):
   XX=            -77.8534   YY=           -147.5966   ZZ=           -146.0103
   XY=             42.1312   XZ=            -29.1155   YZ=            -11.9732

 Normal termination of Gaussian 16 at Tue May 24 03:10:39 2022.
