 Gaussian 16, Revision C.01,
 Gaussian 16:  ES64L-G16RevC.01  3-Jul-2019

 -------------------------------------------------------------------
 # B3LYP/6-31G* guess=read geom=check nosymm integral(ultrafinegrid)
 -------------------------------------------------------------------

 ------------------------------------------------------
 Candidate Structure: Conf:137 Charge calc in gas phase
 ------------------------------------------------------
 Structure from the checkpoint file:  "conf-137.chk"
 Charge =  1 Multiplicity = 1

                          Input orientation:
 ---------------------------------------------------------------------
 Center     Atomic      Atomic             Coordinates (Angstroms)
 Number     Number       Type             X           Y           Z
 ---------------------------------------------------------------------
      1          7           0       -2.563724   -1.002680    3.962296
      2          1           0       -1.929899   -0.285198    4.316589
      3          1           0       -3.481537   -0.563807    3.908537
      4          6           0       -2.110756   -1.384353    2.630198
      5          1           0       -2.917545   -1.945137    2.139480
      6          6           0       -1.712043   -0.171451    1.771993
      7          6           0       -0.848444   -2.273220    2.734104
      8          1           0       -0.043719   -1.676434    3.176161
      9          1           0       -0.505726   -2.547260    1.728067
     10          8           0       -1.175142    0.813421    2.278368
     11          6           0       -1.061237   -3.533796    3.569852
     12          1           0       -1.784301   -4.217854    3.107559
     13          1           0       -1.484088   -3.271285    4.546396
     14          6           0        0.231065   -4.288714    3.791538
     15          8           0        1.339742   -3.921646    3.459256
     16          8           0        0.014847   -5.460037    4.431064
     17          7           0       -1.913076   -0.262302    0.416295
     18          1           0       -2.209323   -1.150756    0.030506
     19          6           0       -1.223628    0.665219   -0.479951
     20          1           0       -1.113747    1.587019    0.094929
     21          6           0        0.176006    0.094926   -0.792899
     22          6           0       -2.006789    0.958593   -1.771641
     23          1           0       -2.125350    0.035488   -2.346961
     24          1           0       -3.004877    1.314806   -1.493345
     25          8           0        0.389904   -0.599207   -1.783702
     26          6           0       -1.268011    1.990782   -2.603297
     27          6           0       -1.209606    3.331783   -2.196663
     28          1           0       -1.792222    3.661482   -1.339811
     29          6           0       -0.541414    1.611477   -3.740500
     30          1           0       -0.569285    0.578588   -4.069803
     31          6           0       -0.408546    4.259662   -2.866209
     32          1           0       -0.377427    5.300970   -2.558565
     33          6           0        0.267923    2.522816   -4.419985
     34          1           0        0.846261    2.203642   -5.284302
     35          8           0        1.255790    4.753728   -4.509470
     36          1           0        1.378013    4.565285   -5.455154
     37          6           0        0.345081    3.834537   -3.957952
     38          7           0        1.133893    0.415228    0.126563
     39          1           0        0.826967    0.782532    1.027628
     40          6           0        2.448578   -0.219224    0.114307
     41          1           0        2.397292   -1.099699   -0.532718
     42          6           0        2.762653   -0.670581    1.539059
     43          6           0        3.533857    0.752841   -0.412266
     44          1           0        3.469927    1.660814    0.201805
     45          1           0        4.527772    0.325524   -0.237599
     46          8           0        2.233806   -0.201522    2.522645
     47          6           0        3.336462    1.064144   -1.910731
     48          1           0        2.273313    1.010010   -2.162884
     49          1           0        3.820903    0.284108   -2.507978
     50          6           0        3.858056    2.432466   -2.387453
     51          1           0        4.940897    2.525656   -2.231668
     52          1           0        3.679921    2.497898   -3.469808
     53          6           0        3.133256    3.588324   -1.694576
     54          1           0        2.064766    3.392118   -1.583357
     55          1           0        3.553389    3.821758   -0.714364
     56          7           0        3.227645    4.864774   -2.522508
     57          1           0        2.908572    5.681185   -1.990028
     58          1           0        2.617250    4.807860   -3.379956
     59          1           0        4.193664    5.048761   -2.813672
     60          8           0        3.695784   -1.633314    1.563772
     61          1           0        0.888134   -5.878865    4.549756
     62          1           0        3.786089   -1.924890    2.492705
 ---------------------------------------------------------------------

 SCF Done:  E(RB3LYP) =  -1526.21421436     A.U. after    2 cycles

 Alpha  occ. eigenvalues --  -19.32684 -19.28316 -19.25019 -19.22864 -19.21027
 Alpha  occ. eigenvalues --  -19.20198 -19.19689 -14.61146 -14.45296 -14.45077
 Alpha  occ. eigenvalues --  -14.38225 -10.40955 -10.39683 -10.37947 -10.37828
 Alpha  occ. eigenvalues --  -10.37135 -10.36770 -10.33460 -10.33194 -10.32640
 Alpha  occ. eigenvalues --  -10.30844 -10.30831 -10.30498 -10.30441 -10.30165
 Alpha  occ. eigenvalues --  -10.30070 -10.29978 -10.29925 -10.28956 -10.25721
 Alpha  occ. eigenvalues --  -10.25698  -1.19406  -1.19392  -1.16023  -1.15386
 Alpha  occ. eigenvalues --   -1.13020  -1.11871  -1.10547  -1.06989  -1.01901
 Alpha  occ. eigenvalues --   -1.01109  -0.96998  -0.95861  -0.94025  -0.89467
 Alpha  occ. eigenvalues --   -0.88423  -0.86370  -0.85394  -0.83969  -0.82786
 Alpha  occ. eigenvalues --   -0.78417  -0.78134  -0.75777  -0.74594  -0.73779
 Alpha  occ. eigenvalues --   -0.73187  -0.71581  -0.70563  -0.69987  -0.68421
 Alpha  occ. eigenvalues --   -0.67125  -0.66722  -0.66489  -0.64961  -0.63932
 Alpha  occ. eigenvalues --   -0.62480  -0.60936  -0.59941  -0.59076  -0.58679
 Alpha  occ. eigenvalues --   -0.57904  -0.57707  -0.56914  -0.56224  -0.56027
 Alpha  occ. eigenvalues --   -0.55735  -0.55128  -0.55074  -0.54586  -0.53860
 Alpha  occ. eigenvalues --   -0.53674  -0.53371  -0.52560  -0.52269  -0.51897
 Alpha  occ. eigenvalues --   -0.51402  -0.51077  -0.50517  -0.50002  -0.49241
 Alpha  occ. eigenvalues --   -0.48464  -0.48251  -0.48078  -0.47313  -0.46360
 Alpha  occ. eigenvalues --   -0.46252  -0.45640  -0.45238  -0.45202  -0.44936
 Alpha  occ. eigenvalues --   -0.44844  -0.44527  -0.44183  -0.42980  -0.41485
 Alpha  occ. eigenvalues --   -0.41126  -0.40206  -0.37402  -0.36990  -0.36720
 Alpha  occ. eigenvalues --   -0.36401  -0.35159  -0.34738  -0.34565  -0.33275
 Alpha  occ. eigenvalues --   -0.32817  -0.30716
 Alpha virt. eigenvalues --   -0.12652  -0.11690  -0.11197  -0.08544  -0.07657
 Alpha virt. eigenvalues --   -0.06877  -0.06252  -0.05604  -0.04905  -0.04501
 Alpha virt. eigenvalues --   -0.02327  -0.01570  -0.01148  -0.00504  -0.00235

 Mulliken charges:
               1
     1  N   -0.696840
     2  H    0.321731
     3  H    0.309728
     4  C   -0.079259
     5  H    0.138347
     6  C    0.594303
     7  C   -0.273049
     8  H    0.189071
     9  H    0.136555
    10  O   -0.529210
    11  C   -0.354193
    12  H    0.173952
    13  H    0.218969
    14  C    0.584493
    15  O   -0.483248
    16  O   -0.560485
    17  N   -0.600353
    18  H    0.340167
    19  C   -0.056353
    20  H    0.181579
    21  C    0.617957
    22  C   -0.356915
    23  H    0.173018
    24  H    0.175064
    25  O   -0.533916
    26  C    0.152263
    27  C   -0.186386
    28  H    0.161276
    29  C   -0.165057
    30  H    0.179313
    31  C   -0.181343
    32  H    0.150556
    33  C   -0.179928
    34  H    0.148441
    35  O   -0.692272
    36  H    0.437661
    37  C    0.301447
    38  N   -0.623854
    39  H    0.380097
    40  C   -0.052318
    41  H    0.210043
    42  C    0.587387
    43  C   -0.276274
    44  H    0.140725
    45  H    0.178798
    46  O   -0.452741
    47  C   -0.287208
    48  H    0.189967
    49  H    0.175756
    50  C   -0.297893
    51  H    0.171994
    52  H    0.156819
    53  C   -0.197075
    54  H    0.228912
    55  H    0.214453
    56  N   -0.770121
    57  H    0.414222
    58  H    0.449042
    59  H    0.409299
    60  O   -0.556695
    61  H    0.412881
    62  H    0.436700
 Sum of Mulliken charges =   1.00000

 Dipole moment (field-independent basis, Debye):
    X=             10.7264    Y=             15.8993    Z=            -11.3757  Tot=             22.2991
 Quadrupole moment (field-independent basis, Debye-Ang):
   XX=           -117.2416   YY=            -80.4041   ZZ=           -133.9914
   XY=             54.9066   XZ=            -29.9168   YZ=            -61.5251

 Normal termination of Gaussian 16 at Tue May 24 03:10:12 2022.
