 Gaussian 16, Revision C.01,
 Gaussian 16:  ES64L-G16RevC.01  3-Jul-2019

 -------------------------------------------------------------------
 # B3LYP/6-31G* guess=read geom=check nosymm integral(ultrafinegrid)
 -------------------------------------------------------------------

 ------------------------------------------------------
 Candidate Structure: Conf:797 Charge calc in gas phase
 ------------------------------------------------------
 Structure from the checkpoint file:  "conf-797.chk"
 Charge =  1 Multiplicity = 1

                          Input orientation:
 ---------------------------------------------------------------------
 Center     Atomic      Atomic             Coordinates (Angstroms)
 Number     Number       Type             X           Y           Z
 ---------------------------------------------------------------------
      1          7           0        0.073281   -2.914461    3.432340
      2          1           0        0.572080   -3.406488    2.690478
      3          1           0        0.791514   -2.456250    3.990470
      4          6           0       -0.798670   -1.921388    2.821954
      5          1           0       -1.128928   -1.228686    3.608775
      6          6           0       -0.091418   -1.112152    1.718097
      7          6           0       -2.043643   -2.603301    2.210423
      8          1           0       -1.718828   -3.291860    1.420817
      9          1           0       -2.680723   -1.859492    1.716748
     10          8           0        0.895403   -1.528246    1.123040
     11          6           0       -2.862971   -3.368018    3.249304
     12          1           0       -3.211593   -2.704397    4.052435
     13          1           0       -2.248092   -4.127755    3.742103
     14          6           0       -4.076403   -4.029209    2.632086
     15          8           0       -4.411639   -3.942790    1.470154
     16          8           0       -4.769910   -4.742565    3.547653
     17          7           0       -0.623328    0.127101    1.422642
     18          1           0       -1.524917    0.362282    1.819210
     19          6           0       -0.233988    0.826631    0.198801
     20          1           0       -0.654760    1.836364    0.287800
     21          6           0        1.296856    1.013599    0.148394
     22          6           0       -0.784456    0.168139   -1.088477
     23          1           0       -0.285703   -0.794593   -1.223265
     24          1           0       -1.845907   -0.041842   -0.903247
     25          8           0        1.933132    0.850654   -0.908434
     26          6           0       -0.651107    1.006681   -2.346642
     27          6           0       -1.180259    2.306246   -2.428951
     28          1           0       -1.708216    2.732338   -1.578322
     29          6           0       -0.022970    0.493210   -3.487191
     30          1           0        0.394157   -0.509632   -3.459997
     31          6           0       -1.079626    3.070689   -3.590007
     32          1           0       -1.517548    4.062021   -3.652070
     33          6           0        0.085940    1.241153   -4.665729
     34          1           0        0.550835    0.801931   -5.546798
     35          8           0       -0.397964    3.319586   -5.838204
     36          1           0       -0.123010    2.791233   -6.604773
     37          6           0       -0.454580    2.535383   -4.726068
     38          7           0        1.860207    1.483443    1.271190
     39          1           0        1.303998    1.531419    2.120960
     40          6           0        3.289550    1.710815    1.458456
     41          1           0        3.817180    0.746146    1.440839
     42          6           0        3.441612    2.259769    2.878574
     43          6           0        3.943081    2.607067    0.377624
     44          1           0        4.973588    2.800765    0.690252
     45          1           0        4.002664    2.001425   -0.528167
     46          8           0        2.526268    2.363788    3.666017
     47          6           0        3.212681    3.937093    0.110032
     48          1           0        3.529114    4.673021    0.857432
     49          1           0        2.132226    3.811831    0.257943
     50          6           0        3.461534    4.526714   -1.296831
     51          1           0        3.396372    5.619925   -1.246399
     52          1           0        4.484669    4.310128   -1.634793
     53          6           0        2.455402    4.126757   -2.380256
     54          1           0        1.426394    4.291900   -2.051631
     55          1           0        2.616177    4.706105   -3.293070
     56          7           0        2.518992    2.671325   -2.784352
     57          1           0        1.812825    2.454532   -3.507537
     58          1           0        2.312486    2.001730   -1.987547
     59          1           0        3.439338    2.429070   -3.163617
     60          8           0        4.713782    2.583324    3.153677
     61          1           0       -5.530824   -5.133569    3.077634
     62          1           0        4.746258    2.885234    4.082349
 ---------------------------------------------------------------------

 SCF Done:  E(RB3LYP) =  -1526.22448010     A.U. after    3 cycles

 Alpha  occ. eigenvalues --  -19.31344 -19.28685 -19.25936 -19.25221 -19.24715
 Alpha  occ. eigenvalues --  -19.22148 -19.19780 -14.57283 -14.48244 -14.47153
 Alpha  occ. eigenvalues --  -14.39439 -10.44005 -10.41935 -10.38429 -10.38286
 Alpha  occ. eigenvalues --  -10.37997 -10.36546 -10.36225 -10.35642 -10.32853
 Alpha  occ. eigenvalues --  -10.31282 -10.31203 -10.31080 -10.30579 -10.30561
 Alpha  occ. eigenvalues --  -10.30527 -10.30355 -10.29985 -10.29768 -10.27062
 Alpha  occ. eigenvalues --  -10.26480  -1.22474  -1.16877  -1.16515  -1.16192
 Alpha  occ. eigenvalues --   -1.13948  -1.13637  -1.12164  -1.07235  -1.05234
 Alpha  occ. eigenvalues --   -1.03022  -0.97209  -0.96674  -0.93586  -0.90579
 Alpha  occ. eigenvalues --   -0.89206  -0.86380  -0.86111  -0.84915  -0.83581
 Alpha  occ. eigenvalues --   -0.79240  -0.78229  -0.76986  -0.74094  -0.73431
 Alpha  occ. eigenvalues --   -0.73017  -0.71129  -0.71003  -0.70122  -0.69877
 Alpha  occ. eigenvalues --   -0.68720  -0.68360  -0.65615  -0.64768  -0.63590
 Alpha  occ. eigenvalues --   -0.63214  -0.62469  -0.60828  -0.60132  -0.59520
 Alpha  occ. eigenvalues --   -0.59327  -0.58830  -0.58046  -0.57687  -0.56893
 Alpha  occ. eigenvalues --   -0.56688  -0.56185  -0.55162  -0.54373  -0.54299
 Alpha  occ. eigenvalues --   -0.53836  -0.53420  -0.53190  -0.52885  -0.52652
 Alpha  occ. eigenvalues --   -0.52628  -0.52259  -0.52003  -0.51491  -0.50370
 Alpha  occ. eigenvalues --   -0.49656  -0.49418  -0.49370  -0.48962  -0.47257
 Alpha  occ. eigenvalues --   -0.46817  -0.46630  -0.46486  -0.46200  -0.45951
 Alpha  occ. eigenvalues --   -0.45210  -0.44604  -0.44288  -0.43705  -0.43472
 Alpha  occ. eigenvalues --   -0.42552  -0.41991  -0.39597  -0.39040  -0.38318
 Alpha  occ. eigenvalues --   -0.37558  -0.36967  -0.36843  -0.35643  -0.33452
 Alpha  occ. eigenvalues --   -0.32917  -0.32049
 Alpha virt. eigenvalues --   -0.12142  -0.11603  -0.10723  -0.10150  -0.08662
 Alpha virt. eigenvalues --   -0.08030  -0.04731  -0.04329  -0.03599  -0.03208
 Alpha virt. eigenvalues --   -0.02701  -0.01935  -0.01547  -0.00456  -0.00139

 Mulliken charges:
               1
     1  N   -0.688868
     2  H    0.319472
     3  H    0.309059
     4  C   -0.095291
     5  H    0.146847
     6  C    0.593511
     7  C   -0.257691
     8  H    0.170370
     9  H    0.141425
    10  O   -0.509242
    11  C   -0.351109
    12  H    0.173982
    13  H    0.216195
    14  C    0.580816
    15  O   -0.465776
    16  O   -0.562549
    17  N   -0.619745
    18  H    0.342776
    19  C   -0.067624
    20  H    0.168632
    21  C    0.672068
    22  C   -0.348382
    23  H    0.197998
    24  H    0.172808
    25  O   -0.592380
    26  C    0.172855
    27  C   -0.204921
    28  H    0.144148
    29  C   -0.191388
    30  H    0.163783
    31  C   -0.176746
    32  H    0.168963
    33  C   -0.255538
    34  H    0.150913
    35  O   -0.627812
    36  H    0.422252
    37  C    0.339582
    38  N   -0.605363
    39  H    0.372805
    40  C   -0.022158
    41  H    0.217775
    42  C    0.589491
    43  C   -0.296329
    44  H    0.192525
    45  H    0.148190
    46  O   -0.456967
    47  C   -0.284209
    48  H    0.178112
    49  H    0.150735
    50  C   -0.289576
    51  H    0.192425
    52  H    0.165803
    53  C   -0.195202
    54  H    0.207434
    55  H    0.207886
    56  N   -0.792424
    57  H    0.409859
    58  H    0.468996
    59  H    0.392958
    60  O   -0.558451
    61  H    0.415941
    62  H    0.436352
 Sum of Mulliken charges =   1.00000

 Dipole moment (field-independent basis, Debye):
    X=              9.0610    Y=             12.4582    Z=             -5.3948  Tot=             16.3221
 Quadrupole moment (field-independent basis, Debye-Ang):
   XX=           -129.9887   YY=           -135.6167   ZZ=           -115.6712
   XY=             39.3071   XZ=            -17.0998   YZ=            -21.8161

 Normal termination of Gaussian 16 at Tue May 24 03:10:52 2022.
