 Gaussian 16, Revision C.01,
 Gaussian 16:  ES64L-G16RevC.01  3-Jul-2019

 -------------------------------------------------------------------
 # B3LYP/6-31G* guess=read geom=check nosymm integral(ultrafinegrid)
 -------------------------------------------------------------------

 ------------------------------------------------------
 Candidate Structure: Conf:122 Charge calc in gas phase
 ------------------------------------------------------
 Structure from the checkpoint file:  "conf-122.chk"
 Charge =  1 Multiplicity = 1

                          Input orientation:
 ---------------------------------------------------------------------
 Center     Atomic      Atomic             Coordinates (Angstroms)
 Number     Number       Type             X           Y           Z
 ---------------------------------------------------------------------
      1          7           0       -1.905857   -3.048791    4.230652
      2          1           0       -2.435196   -2.264922    4.615589
      3          1           0       -2.497011   -3.423217    3.489347
      4          6           0       -0.679579   -2.512510    3.645973
      5          1           0       -0.246530   -3.280693    2.996964
      6          6           0       -0.945786   -1.245143    2.806214
      7          6           0        0.312179   -2.223986    4.798856
      8          1           0        0.353510   -3.132338    5.408234
      9          1           0       -0.109856   -1.436470    5.435503
     10          8           0       -1.915401   -0.522523    3.026043
     11          6           0        1.745032   -1.793891    4.401867
     12          1           0        2.339968   -1.655159    5.307904
     13          1           0        1.729536   -0.846196    3.854701
     14          6           0        2.417145   -2.810822    3.510458
     15          8           0        2.154568   -2.991396    2.331319
     16          8           0        3.336804   -3.550696    4.156654
     17          7           0       -0.052538   -0.972526    1.804398
     18          1           0        0.822632   -1.495169    1.749664
     19          6           0       -0.151680    0.279845    1.081411
     20          1           0       -0.623879    1.006068    1.755739
     21          6           0        1.265142    0.760996    0.736741
     22          6           0       -1.091566    0.180532   -0.161868
     23          1           0       -2.002903   -0.309919    0.196917
     24          1           0       -1.392233    1.191277   -0.462199
     25          8           0        2.262992    0.099331    1.011485
     26          6           0       -0.522050   -0.540251   -1.366312
     27          6           0       -0.377147    0.133748   -2.587375
     28          1           0       -0.711334    1.164352   -2.671615
     29          6           0       -0.119438   -1.884514   -1.306635
     30          1           0       -0.237762   -2.439929   -0.382606
     31          6           0        0.168630   -0.490889   -3.710279
     32          1           0        0.244494    0.027425   -4.661615
     33          6           0        0.455235   -2.516996   -2.410240
     34          1           0        0.781105   -3.552455   -2.337842
     35          8           0        1.243949   -2.377008   -4.718642
     36          1           0        0.991754   -3.312616   -4.793769
     37          6           0        0.600730   -1.808344   -3.601168
     38          7           0        1.337557    1.950635    0.071210
     39          1           0        0.513733    2.535025    0.023017
     40          6           0        2.616296    2.579647   -0.243734
     41          1           0        3.348888    2.200757    0.480053
     42          6           0        2.574857    4.097068   -0.059082
     43          6           0        3.116018    2.248520   -1.671088
     44          1           0        2.296215    2.452383   -2.373057
     45          1           0        3.931579    2.937131   -1.914472
     46          8           0        3.489673    4.826706   -0.357097
     47          6           0        3.583049    0.792937   -1.813960
     48          1           0        2.871235    0.121016   -1.327082
     49          1           0        4.535740    0.664225   -1.283266
     50          6           0        3.729587    0.362040   -3.281764
     51          1           0        2.745820    0.434626   -3.762573
     52          1           0        4.413520    1.028714   -3.824291
     53          6           0        4.231610   -1.077429   -3.370228
     54          1           0        5.309212   -1.152156   -3.206999
     55          1           0        3.719793   -1.726988   -2.656345
     56          7           0        3.943690   -1.677155   -4.742855
     57          1           0        4.488144   -2.531376   -4.902719
     58          1           0        4.182705   -1.018346   -5.492101
     59          1           0        2.921998   -1.929783   -4.828094
     60          8           0        1.408924    4.538096    0.466860
     61          1           0        3.686424   -4.197425    3.513950
     62          1           0        1.486589    5.508056    0.553581
 ---------------------------------------------------------------------

 SCF Done:  E(RB3LYP) =  -1526.21252235     A.U. after    1 cycles

 Alpha  occ. eigenvalues --  -19.32785 -19.29618 -19.27449 -19.23364 -19.21993
 Alpha  occ. eigenvalues --  -19.21428 -19.18314 -14.61120 -14.45942 -14.42576
 Alpha  occ. eigenvalues --  -14.36993 -10.41845 -10.39957 -10.39894 -10.38503
 Alpha  occ. eigenvalues --  -10.36955 -10.34865 -10.34023 -10.33060 -10.32199
 Alpha  occ. eigenvalues --  -10.30836 -10.30608 -10.30401 -10.30262 -10.29996
 Alpha  occ. eigenvalues --  -10.29975 -10.29455 -10.28853 -10.28528 -10.27060
 Alpha  occ. eigenvalues --  -10.26135  -1.20318  -1.19419  -1.18396  -1.15385
 Alpha  occ. eigenvalues --   -1.13429  -1.11276  -1.10125  -1.09152  -1.02492
 Alpha  occ. eigenvalues --   -0.99444  -0.96751  -0.94662  -0.94005  -0.89405
 Alpha  occ. eigenvalues --   -0.88229  -0.86218  -0.86147  -0.84174  -0.82335
 Alpha  occ. eigenvalues --   -0.77958  -0.77721  -0.75622  -0.74495  -0.74197
 Alpha  occ. eigenvalues --   -0.73297  -0.71090  -0.70907  -0.70494  -0.69514
 Alpha  occ. eigenvalues --   -0.67934  -0.66523  -0.66023  -0.65127  -0.64534
 Alpha  occ. eigenvalues --   -0.62708  -0.61464  -0.60049  -0.59243  -0.58151
 Alpha  occ. eigenvalues --   -0.57714  -0.57133  -0.57016  -0.56800  -0.56343
 Alpha  occ. eigenvalues --   -0.55845  -0.55472  -0.54927  -0.54760  -0.54161
 Alpha  occ. eigenvalues --   -0.53509  -0.53334  -0.53028  -0.52643  -0.51463
 Alpha  occ. eigenvalues --   -0.51278  -0.50672  -0.50446  -0.50092  -0.49312
 Alpha  occ. eigenvalues --   -0.48791  -0.48369  -0.47875  -0.47498  -0.47215
 Alpha  occ. eigenvalues --   -0.46628  -0.45937  -0.45614  -0.45346  -0.45020
 Alpha  occ. eigenvalues --   -0.44760  -0.44203  -0.43582  -0.42934  -0.42255
 Alpha  occ. eigenvalues --   -0.41266  -0.40459  -0.39359  -0.37920  -0.36607
 Alpha  occ. eigenvalues --   -0.35730  -0.35208  -0.35076  -0.34404  -0.32557
 Alpha  occ. eigenvalues --   -0.32238  -0.29757
 Alpha virt. eigenvalues --   -0.12453  -0.11973  -0.11158  -0.08729  -0.07377
 Alpha virt. eigenvalues --   -0.07081  -0.06723  -0.06354  -0.04606  -0.04470
 Alpha virt. eigenvalues --   -0.02822  -0.01910  -0.01770  -0.00952  -0.00137

 Mulliken charges:
               1
     1  N   -0.692644
     2  H    0.316598
     3  H    0.301339
     4  C   -0.092728
     5  H    0.155192
     6  C    0.573394
     7  C   -0.267391
     8  H    0.182988
     9  H    0.165339
    10  O   -0.527998
    11  C   -0.366889
    12  H    0.184764
    13  H    0.183742
    14  C    0.596973
    15  O   -0.487278
    16  O   -0.543779
    17  N   -0.641492
    18  H    0.394357
    19  C   -0.060595
    20  H    0.199493
    21  C    0.619983
    22  C   -0.360031
    23  H    0.204728
    24  H    0.145227
    25  O   -0.528922
    26  C    0.174215
    27  C   -0.193604
    28  H    0.149130
    29  C   -0.179114
    30  H    0.173821
    31  C   -0.160713
    32  H    0.154867
    33  C   -0.174761
    34  H    0.145789
    35  O   -0.701407
    36  H    0.436829
    37  C    0.301195
    38  N   -0.617373
    39  H    0.352445
    40  C   -0.056571
    41  H    0.216915
    42  C    0.589980
    43  C   -0.267353
    44  H    0.142027
    45  H    0.185979
    46  O   -0.442769
    47  C   -0.280796
    48  H    0.188969
    49  H    0.162249
    50  C   -0.301141
    51  H    0.165624
    52  H    0.168745
    53  C   -0.195305
    54  H    0.216289
    55  H    0.222947
    56  N   -0.773914
    57  H    0.409914
    58  H    0.410674
    59  H    0.453997
    60  O   -0.576175
    61  H    0.412447
    62  H    0.431582
 Sum of Mulliken charges =   1.00000

 Dipole moment (field-independent basis, Debye):
    X=             14.8590    Y=             -5.8506    Z=            -17.6440  Tot=             23.7977
 Quadrupole moment (field-independent basis, Debye-Ang):
   XX=           -123.5627   YY=           -137.0139   ZZ=            -90.2983
   XY=            -34.5100   XZ=            -56.8268   YZ=             35.7711

 Normal termination of Gaussian 16 at Tue May 24 03:09:51 2022.
