 Gaussian 16, Revision C.01,
 Gaussian 16:  ES64L-G16RevC.01  3-Jul-2019

 -------------------------------------------------------------------
 # B3LYP/6-31G* guess=read geom=check nosymm integral(ultrafinegrid)
 -------------------------------------------------------------------

 ------------------------------------------------------
 Candidate Structure: Conf:234 Charge calc in gas phase
 ------------------------------------------------------
 Structure from the checkpoint file:  "conf-234.chk"
 Charge =  1 Multiplicity = 1

                          Input orientation:
 ---------------------------------------------------------------------
 Center     Atomic      Atomic             Coordinates (Angstroms)
 Number     Number       Type             X           Y           Z
 ---------------------------------------------------------------------
      1          7           0        1.950181   -1.657741    0.770613
      2          1           0        1.887982   -2.012408   -0.188621
      3          1           0        1.972545   -0.632738    0.667048
      4          6           0        0.623811   -1.966136    1.389828
      5          1           0        0.617222   -1.506708    2.384888
      6          6           0       -0.350067   -1.248548    0.422903
      7          6           0        0.373430   -3.468139    1.508198
      8          1           0        0.252686   -3.898711    0.508845
      9          1           0       -0.586052   -3.604963    2.018544
     10          8           0       -0.533586   -1.719305   -0.694997
     11          6           0        1.464457   -4.228753    2.305187
     12          1           0        1.016561   -5.137851    2.721889
     13          1           0        1.839257   -3.629373    3.139195
     14          6           0        2.651657   -4.676615    1.480137
     15          8           0        3.809350   -4.305367    1.605252
     16          8           0        2.296002   -5.584695    0.556947
     17          7           0       -0.761756    0.000251    0.809794
     18          1           0       -0.449011    0.273356    1.732891
     19          6           0       -0.738549    1.136856   -0.133607
     20          1           0       -1.043113    2.006071    0.461484
     21          6           0        0.762053    1.374182   -0.472969
     22          6           0       -1.716824    1.020767   -1.321614
     23          1           0       -1.623122    1.945976   -1.906527
     24          1           0       -1.416567    0.186416   -1.959179
     25          8           0        1.605814    1.236953    0.430010
     26          6           0       -3.160103    0.861995   -0.889054
     27          6           0       -3.743086   -0.408208   -0.770852
     28          1           0       -3.151911   -1.288649   -1.007355
     29          6           0       -3.945918    1.979924   -0.588445
     30          1           0       -3.527799    2.980108   -0.687936
     31          6           0       -5.063411   -0.560296   -0.361911
     32          1           0       -5.518326   -1.542217   -0.278801
     33          6           0       -5.270579    1.843889   -0.174670
     34          1           0       -5.866861    2.726952    0.046578
     35          8           0       -7.122325    0.358893    0.335695
     36          1           0       -7.556605    1.212345    0.490778
     37          6           0       -5.834361    0.568671   -0.059308
     38          7           0        1.112461    1.698929   -1.727883
     39          1           0        0.414152    1.843632   -2.450574
     40          6           0        2.490681    1.975616   -2.132644
     41          1           0        2.961453    2.612341   -1.375017
     42          6           0        2.391685    2.779652   -3.428503
     43          6           0        3.358613    0.691682   -2.337777
     44          1           0        2.669845   -0.122482   -2.594126
     45          1           0        4.010919    0.833940   -3.205677
     46          8           0        1.365426    2.945227   -4.049770
     47          6           0        4.227223    0.295653   -1.122492
     48          1           0        3.651126    0.475123   -0.210747
     49          1           0        5.104507    0.954349   -1.071854
     50          6           0        4.684019   -1.170993   -1.214467
     51          1           0        3.817542   -1.818054   -1.405098
     52          1           0        5.341050   -1.301278   -2.084038
     53          6           0        5.454016   -1.732892   -0.015109
     54          1           0        5.705302   -2.780313   -0.192915
     55          1           0        6.382433   -1.185604    0.167515
     56          7           0        4.661622   -1.714162    1.280063
     57          1           0        4.864583   -2.546856    1.847086
     58          1           0        3.587071   -1.780721    1.133952
     59          1           0        4.850303   -0.873227    1.830501
     60          8           0        3.586917    3.267971   -3.796554
     61          1           0        3.103464   -5.865839    0.085415
     62          1           0        3.458581    3.758845   -4.631551
 ---------------------------------------------------------------------

 SCF Done:  E(RB3LYP) =  -1526.22100326     A.U. after    3 cycles

 Alpha  occ. eigenvalues --  -19.31241 -19.30633 -19.26278 -19.25253 -19.23772
 Alpha  occ. eigenvalues --  -19.23238 -19.22784 -14.55972 -14.47821 -14.46553
 Alpha  occ. eigenvalues --  -14.46420 -10.44345 -10.43296 -10.40422 -10.39606
 Alpha  occ. eigenvalues --  -10.37864 -10.35648 -10.34831 -10.34342 -10.32542
 Alpha  occ. eigenvalues --  -10.31399 -10.31160 -10.30926 -10.30728 -10.30569
 Alpha  occ. eigenvalues --  -10.28067 -10.25917 -10.25818 -10.25287 -10.25246
 Alpha  occ. eigenvalues --  -10.24597  -1.22450  -1.21749  -1.15450  -1.14292
 Alpha  occ. eigenvalues --   -1.13296  -1.12931  -1.11885  -1.10927  -1.04144
 Alpha  occ. eigenvalues --   -1.03180  -1.02444  -0.93268  -0.92020  -0.90815
 Alpha  occ. eigenvalues --   -0.89625  -0.87156  -0.83776  -0.83286  -0.81066
 Alpha  occ. eigenvalues --   -0.80625  -0.76969  -0.75526  -0.74387  -0.72689
 Alpha  occ. eigenvalues --   -0.72158  -0.70876  -0.70503  -0.69737  -0.68711
 Alpha  occ. eigenvalues --   -0.67925  -0.67488  -0.65157  -0.64224  -0.63643
 Alpha  occ. eigenvalues --   -0.62727  -0.61864  -0.60676  -0.60516  -0.60064
 Alpha  occ. eigenvalues --   -0.59579  -0.59006  -0.58768  -0.57976  -0.57838
 Alpha  occ. eigenvalues --   -0.57170  -0.56728  -0.56167  -0.55624  -0.55065
 Alpha  occ. eigenvalues --   -0.53638  -0.53474  -0.53086  -0.52461  -0.52078
 Alpha  occ. eigenvalues --   -0.51843  -0.50951  -0.50600  -0.50464  -0.49779
 Alpha  occ. eigenvalues --   -0.49429  -0.48746  -0.48489  -0.48176  -0.48047
 Alpha  occ. eigenvalues --   -0.46962  -0.46627  -0.46436  -0.46210  -0.45923
 Alpha  occ. eigenvalues --   -0.45427  -0.45337  -0.44104  -0.43733  -0.42750
 Alpha  occ. eigenvalues --   -0.42603  -0.41439  -0.40005  -0.39645  -0.39191
 Alpha  occ. eigenvalues --   -0.38972  -0.37573  -0.37281  -0.36592  -0.34980
 Alpha  occ. eigenvalues --   -0.31450  -0.28083
 Alpha virt. eigenvalues --   -0.11629  -0.10875  -0.10195  -0.09102  -0.08133
 Alpha virt. eigenvalues --   -0.06587  -0.05470  -0.05161  -0.03382  -0.03212
 Alpha virt. eigenvalues --   -0.02443  -0.02369  -0.01732   0.00186   0.00305

 Mulliken charges:
               1
     1  N   -0.844804
     2  H    0.337772
     3  H    0.392159
     4  C   -0.041835
     5  H    0.154811
     6  C    0.580573
     7  C   -0.289111
     8  H    0.197964
     9  H    0.182223
    10  O   -0.512260
    11  C   -0.337157
    12  H    0.205813
    13  H    0.169856
    14  C    0.582994
    15  O   -0.518247
    16  O   -0.529731
    17  N   -0.552720
    18  H    0.339436
    19  C   -0.067810
    20  H    0.193706
    21  C    0.623412
    22  C   -0.395467
    23  H    0.154504
    24  H    0.191309
    25  O   -0.569223
    26  C    0.165028
    27  C   -0.187584
    28  H    0.149906
    29  C   -0.192358
    30  H    0.124602
    31  C   -0.160748
    32  H    0.149580
    33  C   -0.191655
    34  H    0.131104
    35  O   -0.634016
    36  H    0.413569
    37  C    0.355621
    38  N   -0.620767
    39  H    0.380555
    40  C   -0.018254
    41  H    0.206228
    42  C    0.572027
    43  C   -0.282910
    44  H    0.163656
    45  H    0.185065
    46  O   -0.447532
    47  C   -0.301779
    48  H    0.168217
    49  H    0.162411
    50  C   -0.295535
    51  H    0.153404
    52  H    0.186905
    53  C   -0.180500
    54  H    0.212137
    55  H    0.201593
    56  N   -0.784693
    57  H    0.423152
    58  H    0.452849
    59  H    0.391835
    60  O   -0.558524
    61  H    0.423968
    62  H    0.435270
 Sum of Mulliken charges =   1.00000

 Dipole moment (field-independent basis, Debye):
    X=             15.0468    Y=             -3.1521    Z=              1.7066  Tot=             15.4678
 Quadrupole moment (field-independent basis, Debye-Ang):
   XX=            -86.7824   YY=           -134.3046   ZZ=           -156.2518
   XY=            -33.2661   XZ=             -9.8494   YZ=            -18.3155

 Normal termination of Gaussian 16 at Tue May 24 03:10:22 2022.
