 Gaussian 16, Revision C.01,
 Gaussian 16:  ES64L-G16RevC.01  3-Jul-2019

 -------------------------------------------------------------------
 # B3LYP/6-31G* guess=read geom=check nosymm integral(ultrafinegrid)
 -------------------------------------------------------------------

 ------------------------------------------------------
 Candidate Structure: Conf:879 Charge calc in gas phase
 ------------------------------------------------------
 Structure from the checkpoint file:  "conf-879.chk"
 Charge =  1 Multiplicity = 1

                          Input orientation:
 ---------------------------------------------------------------------
 Center     Atomic      Atomic             Coordinates (Angstroms)
 Number     Number       Type             X           Y           Z
 ---------------------------------------------------------------------
      1          7           0       -0.142284   -3.176179    3.411408
      2          1           0       -0.469565   -3.695111    4.222954
      3          1           0        0.130128   -3.851099    2.697614
      4          6           0       -1.205347   -2.332104    2.868958
      5          1           0       -1.362938   -1.501067    3.573360
      6          6           0       -0.677190   -1.793356    1.530856
      7          6           0       -2.571399   -3.010336    2.602427
      8          1           0       -2.429537   -3.800845    1.856350
      9          1           0       -3.262572   -2.284263    2.157091
     10          8           0       -0.223642   -2.548655    0.683711
     11          6           0       -3.217048   -3.588972    3.862623
     12          1           0       -3.274103   -2.833630    4.660590
     13          1           0       -2.639068   -4.421850    4.278602
     14          6           0       -4.631853   -4.075276    3.613028
     15          8           0       -5.308521   -3.814532    2.643411
     16          8           0       -5.076608   -4.839164    4.638118
     17          7           0       -0.799030   -0.436417    1.350296
     18          1           0       -1.127727    0.106191    2.136024
     19          6           0       -0.378199    0.302117    0.158718
     20          1           0       -0.754160    1.322480    0.302098
     21          6           0        1.165353    0.381337    0.051617
     22          6           0       -0.984462   -0.256047   -1.150585
     23          1           0       -0.646621   -1.285993   -1.266463
     24          1           0       -2.074171   -0.268200   -1.033837
     25          8           0        1.842113   -0.449215   -0.538049
     26          6           0       -0.582399    0.578429   -2.348016
     27          6           0       -1.152142    1.837415   -2.583160
     28          1           0       -1.956686    2.192639   -1.943308
     29          6           0        0.416646    0.130246   -3.224791
     30          1           0        0.873855   -0.838383   -3.053796
     31          6           0       -0.720732    2.646744   -3.637437
     32          1           0       -1.195407    3.602528   -3.843849
     33          6           0        0.863721    0.923806   -4.281245
     34          1           0        1.649491    0.564911   -4.943004
     35          8           0        0.780845    3.069582   -5.443545
     36          1           0        1.167221    2.567113   -6.180616
     37          6           0        0.296389    2.181969   -4.468922
     38          7           0        1.715992    1.493332    0.629402
     39          1           0        1.172027    2.091914    1.240632
     40          6           0        3.156737    1.667460    0.710474
     41          1           0        3.622049    0.736637    1.059774
     42          6           0        3.422703    2.747898    1.750780
     43          6           0        3.799519    2.003800   -0.658727
     44          1           0        4.883134    2.083328   -0.518064
     45          1           0        3.610770    1.141783   -1.305208
     46          8           0        2.558200    3.395567    2.303511
     47          6           0        3.258750    3.282138   -1.315820
     48          1           0        3.507966    4.158833   -0.700700
     49          1           0        2.161336    3.212000   -1.345540
     50          6           0        3.833433    3.475497   -2.729272
     51          1           0        4.929421    3.462300   -2.683654
     52          1           0        3.545362    2.635121   -3.374669
     53          6           0        3.456100    4.796368   -3.397126
     54          1           0        3.672303    5.649934   -2.749159
     55          1           0        3.974217    4.940175   -4.348244
     56          7           0        1.971913    4.862950   -3.717308
     57          1           0        1.688573    5.807104   -3.999012
     58          1           0        1.406941    4.598409   -2.901720
     59          1           0        1.686787    4.204452   -4.489498
     60          8           0        4.737587    2.912840    1.973825
     61          1           0       -5.993437   -5.091747    4.417736
     62          1           0        4.831974    3.597136    2.664465
 ---------------------------------------------------------------------

 SCF Done:  E(RB3LYP) =  -1526.20181810     A.U. after    2 cycles

 Alpha  occ. eigenvalues --  -19.32720 -19.30348 -19.24977 -19.24718 -19.20592
 Alpha  occ. eigenvalues --  -19.19197 -19.18599 -14.60838 -14.45562 -14.44650
 Alpha  occ. eigenvalues --  -14.37303 -10.42885 -10.40412 -10.37792 -10.37458
 Alpha  occ. eigenvalues --  -10.37074 -10.35810 -10.34241 -10.33794 -10.33270
 Alpha  occ. eigenvalues --  -10.31861 -10.30790 -10.30642 -10.30358 -10.29991
 Alpha  occ. eigenvalues --  -10.29929 -10.29708 -10.28972 -10.27580 -10.26216
 Alpha  occ. eigenvalues --  -10.24915  -1.21435  -1.19560  -1.15641  -1.15330
 Alpha  occ. eigenvalues --   -1.12930  -1.12364  -1.10643  -1.06685  -1.02205
 Alpha  occ. eigenvalues --   -1.00561  -0.96743  -0.94856  -0.94608  -0.89698
 Alpha  occ. eigenvalues --   -0.88611  -0.86212  -0.85080  -0.84769  -0.82873
 Alpha  occ. eigenvalues --   -0.78186  -0.77852  -0.75750  -0.74513  -0.73673
 Alpha  occ. eigenvalues --   -0.73409  -0.72311  -0.71745  -0.70582  -0.68654
 Alpha  occ. eigenvalues --   -0.67093  -0.66488  -0.65947  -0.65161  -0.63764
 Alpha  occ. eigenvalues --   -0.62124  -0.60900  -0.60195  -0.59262  -0.59049
 Alpha  occ. eigenvalues --   -0.58565  -0.58134  -0.57770  -0.56908  -0.56586
 Alpha  occ. eigenvalues --   -0.56156  -0.55218  -0.55026  -0.53970  -0.53682
 Alpha  occ. eigenvalues --   -0.53585  -0.53102  -0.52943  -0.52324  -0.51444
 Alpha  occ. eigenvalues --   -0.51060  -0.50542  -0.50478  -0.49753  -0.49450
 Alpha  occ. eigenvalues --   -0.49275  -0.48377  -0.47971  -0.46728  -0.46532
 Alpha  occ. eigenvalues --   -0.46213  -0.46165  -0.45874  -0.45064  -0.44622
 Alpha  occ. eigenvalues --   -0.44562  -0.44105  -0.43867  -0.42764  -0.42555
 Alpha  occ. eigenvalues --   -0.42208  -0.40561  -0.38562  -0.37000  -0.36673
 Alpha  occ. eigenvalues --   -0.36127  -0.35099  -0.34488  -0.33002  -0.32414
 Alpha  occ. eigenvalues --   -0.31721  -0.29386
 Alpha virt. eigenvalues --   -0.12725  -0.11438  -0.10899  -0.09894  -0.07417
 Alpha virt. eigenvalues --   -0.06787  -0.06225  -0.04784  -0.04417  -0.03985
 Alpha virt. eigenvalues --   -0.02905  -0.02203  -0.02127  -0.01642  -0.01158

 Mulliken charges:
               1
     1  N   -0.719806
     2  H    0.306924
     3  H    0.322518
     4  C   -0.070195
     5  H    0.122372
     6  C    0.643715
     7  C   -0.260148
     8  H    0.170934
     9  H    0.155145
    10  O   -0.509690
    11  C   -0.366346
    12  H    0.178092
    13  H    0.174195
    14  C    0.582659
    15  O   -0.457102
    16  O   -0.563975
    17  N   -0.627723
    18  H    0.333243
    19  C   -0.046838
    20  H    0.136662
    21  C    0.651689
    22  C   -0.363348
    23  H    0.226794
    24  H    0.165785
    25  O   -0.503594
    26  C    0.155292
    27  C   -0.187490
    28  H    0.151900
    29  C   -0.167521
    30  H    0.190641
    31  C   -0.198809
    32  H    0.149703
    33  C   -0.182710
    34  H    0.148690
    35  O   -0.689363
    36  H    0.438569
    37  C    0.299371
    38  N   -0.638300
    39  H    0.349831
    40  C   -0.025808
    41  H    0.215979
    42  C    0.578601
    43  C   -0.283939
    44  H    0.174969
    45  H    0.196161
    46  O   -0.466188
    47  C   -0.293864
    48  H    0.155361
    49  H    0.144319
    50  C   -0.288500
    51  H    0.196492
    52  H    0.173186
    53  C   -0.199624
    54  H    0.213419
    55  H    0.215633
    56  N   -0.769052
    57  H    0.413048
    58  H    0.411329
    59  H    0.450151
    60  O   -0.558832
    61  H    0.415600
    62  H    0.429794
 Sum of Mulliken charges =   1.00000

 Dipole moment (field-independent basis, Debye):
    X=              8.7344    Y=             19.9622    Z=            -11.4285  Tot=             24.6047
 Quadrupole moment (field-independent basis, Debye-Ang):
   XX=           -135.9455   YY=            -80.6581   ZZ=            -90.9593
   XY=             57.4586   XZ=            -42.6168   YZ=            -73.2931

 Normal termination of Gaussian 16 at Tue May 24 03:10:36 2022.
