 Gaussian 16, Revision C.01,
 Gaussian 16:  ES64L-G16RevC.01  3-Jul-2019

 -------------------------------------------------------------------
 # B3LYP/6-31G* guess=read geom=check nosymm integral(ultrafinegrid)
 -------------------------------------------------------------------

 ------------------------------------------------------
 Candidate Structure: Conf:961 Charge calc in gas phase
 ------------------------------------------------------
 Structure from the checkpoint file:  "conf-961.chk"
 Charge =  1 Multiplicity = 1

                          Input orientation:
 ---------------------------------------------------------------------
 Center     Atomic      Atomic             Coordinates (Angstroms)
 Number     Number       Type             X           Y           Z
 ---------------------------------------------------------------------
      1          7           0       -1.885281   -1.360165    2.599006
      2          1           0       -2.487496   -1.937019    2.010824
      3          1           0       -2.111321   -1.601403    3.562595
      4          6           0       -0.477121   -1.653851    2.313186
      5          1           0       -0.269817   -2.729152    2.196230
      6          6           0       -0.044676   -1.052293    0.959846
      7          6           0        0.453969   -1.171350    3.444511
      8          1           0        1.481474   -1.298490    3.088544
      9          1           0        0.328754   -1.826004    4.315338
     10          8           0        1.006770   -1.393574    0.428613
     11          6           0        0.217890    0.296260    3.879334
     12          1           0       -0.737309    0.391778    4.400910
     13          1           0        0.197154    0.949873    3.005530
     14          6           0        1.328467    0.761122    4.789360
     15          8           0        2.366445    1.314704    4.434654
     16          8           0        1.102512    0.473881    6.074162
     17          7           0       -0.887484   -0.117201    0.420910
     18          1           0       -1.773371   -0.018233    0.908420
     19          6           0       -0.841404    0.215324   -1.008934
     20          1           0       -1.548991    1.043746   -1.141114
     21          6           0        0.552022    0.743252   -1.411607
     22          6           0       -1.267125   -0.957708   -1.925065
     23          1           0       -1.285477   -0.580914   -2.952660
     24          1           0       -0.484825   -1.720742   -1.888024
     25          8           0        1.075182    0.487420   -2.483294
     26          6           0       -2.602733   -1.546696   -1.529048
     27          6           0       -2.672909   -2.751005   -0.811077
     28          1           0       -1.755331   -3.294229   -0.594048
     29          6           0       -3.807733   -0.899770   -1.831477
     30          1           0       -3.794492    0.025138   -2.404852
     31          6           0       -3.890917   -3.286101   -0.395977
     32          1           0       -3.941672   -4.229940    0.138268
     33          6           0       -5.036248   -1.420094   -1.425057
     34          1           0       -5.958879   -0.901886   -1.679559
     35          8           0       -6.245987   -3.181835   -0.269521
     36          1           0       -6.997889   -2.653973   -0.581165
     37          6           0       -5.082432   -2.616496   -0.700484
     38          7           0        1.133251    1.584369   -0.484604
     39          1           0        0.725106    1.510960    0.439071
     40          6           0        2.586117    1.724814   -0.503408
     41          1           0        3.020299    0.753861   -0.795921
     42          6           0        3.091282    1.984303    0.915303
     43          6           0        3.087216    2.773267   -1.506125
     44          1           0        4.182764    2.705238   -1.530907
     45          1           0        2.753866    2.444707   -2.493662
     46          8           0        4.090458    2.654067    1.188758
     47          6           0        2.609749    4.219042   -1.236574
     48          1           0        2.348603    4.354239   -0.178214
     49          1           0        1.681113    4.390555   -1.787730
     50          6           0        3.630292    5.303548   -1.637997
     51          1           0        4.143433    5.026384   -2.569179
     52          1           0        3.109438    6.243625   -1.855668
     53          6           0        4.656354    5.663576   -0.562521
     54          1           0        5.331560    6.453171   -0.901857
     55          1           0        4.165727    5.995380    0.356404
     56          7           0        5.527550    4.490098   -0.151671
     57          1           0        6.226940    4.776844    0.541030
     58          1           0        6.033669    4.104701   -0.955105
     59          1           0        4.949728    3.707836    0.289484
     60          8           0        2.356396    1.387072    1.822725
     61          1           0        1.880391    0.766085    6.588919
     62          1           0        2.623190    1.512487    2.785295
 ---------------------------------------------------------------------

 SCF Done:  E(RB3LYP) =  -1526.22930489     A.U. after    1 cycles

 Alpha  occ. eigenvalues --  -19.30611 -19.30543 -19.27506 -19.25869 -19.24174
 Alpha  occ. eigenvalues --  -19.20337 -19.19905 -14.58902 -14.44328 -14.44298
 Alpha  occ. eigenvalues --  -14.41257 -10.45089 -10.43554 -10.39025 -10.37258
 Alpha  occ. eigenvalues --  -10.36769 -10.34495 -10.32742 -10.32018 -10.31602
 Alpha  occ. eigenvalues --  -10.31451 -10.30627 -10.30066 -10.29823 -10.29195
 Alpha  occ. eigenvalues --  -10.25991 -10.25891 -10.25847 -10.25830 -10.25707
 Alpha  occ. eigenvalues --  -10.25267  -1.22769  -1.21812  -1.14432  -1.13223
 Alpha  occ. eigenvalues --   -1.12559  -1.12409  -1.12289  -1.11501  -1.02056
 Alpha  occ. eigenvalues --   -1.00724  -0.97917  -0.93386  -0.92016  -0.89053
 Alpha  occ. eigenvalues --   -0.88881  -0.85714  -0.83769  -0.81488  -0.81334
 Alpha  occ. eigenvalues --   -0.79856  -0.78332  -0.74377  -0.73989  -0.73212
 Alpha  occ. eigenvalues --   -0.72397  -0.71442  -0.69874  -0.69260  -0.68834
 Alpha  occ. eigenvalues --   -0.66735  -0.66109  -0.65162  -0.63831  -0.62774
 Alpha  occ. eigenvalues --   -0.61728  -0.61054  -0.61033  -0.60415  -0.59725
 Alpha  occ. eigenvalues --   -0.59114  -0.57751  -0.57184  -0.56671  -0.56343
 Alpha  occ. eigenvalues --   -0.55726  -0.55484  -0.55086  -0.54572  -0.53951
 Alpha  occ. eigenvalues --   -0.53637  -0.52782  -0.52120  -0.51903  -0.51335
 Alpha  occ. eigenvalues --   -0.50625  -0.50189  -0.49956  -0.49071  -0.48913
 Alpha  occ. eigenvalues --   -0.48825  -0.48341  -0.47553  -0.47158  -0.46605
 Alpha  occ. eigenvalues --   -0.46161  -0.45645  -0.45475  -0.45181  -0.44965
 Alpha  occ. eigenvalues --   -0.44277  -0.43987  -0.43413  -0.42965  -0.42715
 Alpha  occ. eigenvalues --   -0.41728  -0.41105  -0.40235  -0.39345  -0.39222
 Alpha  occ. eigenvalues --   -0.35625  -0.35052  -0.34649  -0.33111  -0.32477
 Alpha  occ. eigenvalues --   -0.31996  -0.28339
 Alpha virt. eigenvalues --   -0.11987  -0.10675  -0.10464  -0.07601  -0.06636
 Alpha virt. eigenvalues --   -0.06368  -0.05578  -0.05325  -0.02972  -0.02606
 Alpha virt. eigenvalues --   -0.01045  -0.00879  -0.00206   0.00142   0.00905

 Mulliken charges:
               1
     1  N   -0.768459
     2  H    0.331734
     3  H    0.319945
     4  C   -0.044958
     5  H    0.168793
     6  C    0.600770
     7  C   -0.308851
     8  H    0.188279
     9  H    0.170167
    10  O   -0.526538
    11  C   -0.337246
    12  H    0.192198
    13  H    0.176965
    14  C    0.597703
    15  O   -0.509939
    16  O   -0.528379
    17  N   -0.632343
    18  H    0.362703
    19  C   -0.063532
    20  H    0.173956
    21  C    0.637299
    22  C   -0.360496
    23  H    0.176598
    24  H    0.187059
    25  O   -0.508168
    26  C    0.166826
    27  C   -0.218793
    28  H    0.142207
    29  C   -0.194984
    30  H    0.131963
    31  C   -0.171115
    32  H    0.151448
    33  C   -0.189541
    34  H    0.133004
    35  O   -0.634082
    36  H    0.414649
    37  C    0.354234
    38  N   -0.624964
    39  H    0.365099
    40  C   -0.041661
    41  H    0.222685
    42  C    0.628621
    43  C   -0.281565
    44  H    0.101364
    45  H    0.213936
    46  O   -0.545118
    47  C   -0.279195
    48  H    0.144127
    49  H    0.189127
    50  C   -0.293407
    51  H    0.171379
    52  H    0.194353
    53  C   -0.198490
    54  H    0.210836
    55  H    0.214481
    56  N   -0.770009
    57  H    0.410125
    58  H    0.403239
    59  H    0.464910
    60  O   -0.576671
    61  H    0.429681
    62  H    0.466041
 Sum of Mulliken charges =   1.00000

 Dipole moment (field-independent basis, Debye):
    X=             12.5560    Y=             16.4068    Z=              5.2771  Tot=             21.3233
 Quadrupole moment (field-independent basis, Debye-Ang):
   XX=            -54.2219   YY=            -93.8163   ZZ=           -144.9869
   XY=             89.3671   XZ=              3.2327   YZ=            -14.2971

 Normal termination of Gaussian 16 at Tue May 24 03:10:22 2022.
