 Gaussian 16, Revision C.01,
 Gaussian 16:  ES64L-G16RevC.01  3-Jul-2019

 -------------------------------------------------------------------
 # B3LYP/6-31G* guess=read geom=check nosymm integral(ultrafinegrid)
 -------------------------------------------------------------------

 ------------------------------------------------------
 Candidate Structure: Conf:535 Charge calc in gas phase
 ------------------------------------------------------
 Structure from the checkpoint file:  "conf-535.chk"
 Charge =  1 Multiplicity = 1

                          Input orientation:
 ---------------------------------------------------------------------
 Center     Atomic      Atomic             Coordinates (Angstroms)
 Number     Number       Type             X           Y           Z
 ---------------------------------------------------------------------
      1          7           0       -0.190772   -1.809175    4.060971
      2          1           0       -0.744663   -2.357798    4.714600
      3          1           0        0.645007   -2.340020    3.823898
      4          6           0       -0.945849   -1.529499    2.848578
      5          1           0       -1.644052   -0.706242    3.059849
      6          6           0        0.047491   -1.063353    1.780733
      7          6           0       -1.796216   -2.698866    2.271485
      8          1           0       -2.303921   -2.367106    1.357546
      9          1           0       -2.582554   -2.933769    3.000710
     10          8           0        1.183956   -1.515596    1.695429
     11          6           0       -0.991581   -3.976678    1.953102
     12          1           0       -0.631622   -4.452340    2.866804
     13          1           0       -0.132505   -3.714907    1.325698
     14          6           0       -1.863459   -4.925071    1.155231
     15          8           0       -2.393855   -4.636634    0.103466
     16          8           0       -2.045971   -6.114781    1.769291
     17          7           0       -0.419784   -0.125500    0.892522
     18          1           0       -1.393511    0.143515    0.947910
     19          6           0        0.309059    0.214496   -0.327405
     20          1           0       -0.157872    1.134274   -0.701678
     21          6           0        1.780184    0.585669   -0.018853
     22          6           0        0.210148   -0.867962   -1.432111
     23          1           0        0.729300   -1.765276   -1.087632
     24          1           0       -0.849991   -1.124136   -1.547598
     25          8           0        2.723778    0.096652   -0.631766
     26          6           0        0.790666   -0.396583   -2.750798
     27          6           0        1.986973   -0.939414   -3.241050
     28          1           0        2.446827   -1.769681   -2.716047
     29          6           0        0.205772    0.654581   -3.467687
     30          1           0       -0.745150    1.070028   -3.141853
     31          6           0        2.621982   -0.402973   -4.358425
     32          1           0        3.542035   -0.834358   -4.743866
     33          6           0        0.838759    1.225702   -4.577176
     34          1           0        0.387446    2.070588   -5.093482
     35          8           0        2.849839    1.331702   -5.966682
     36          1           0        2.288987    1.859847   -6.559258
     37          6           0        2.063214    0.708534   -4.994041
     38          7           0        1.934158    1.605058    0.874635
     39          1           0        1.170345    1.832409    1.505775
     40          6           0        3.254629    1.989242    1.351876
     41          1           0        3.913860    1.114901    1.304184
     42          6           0        3.111309    2.414847    2.809286
     43          6           0        3.892403    3.135787    0.518919
     44          1           0        3.315731    4.057177    0.673188
     45          1           0        4.902776    3.317189    0.903497
     46          8           0        2.051058    2.610807    3.359677
     47          6           0        3.936542    2.795773   -0.976220
     48          1           0        2.901770    2.687055   -1.327629
     49          1           0        4.397423    1.807617   -1.083888
     50          6           0        4.660411    3.821472   -1.861035
     51          1           0        4.380361    4.845278   -1.582713
     52          1           0        5.749013    3.756661   -1.735013
     53          6           0        4.284732    3.670086   -3.336499
     54          1           0        3.227572    3.896109   -3.497679
     55          1           0        4.882963    4.305562   -3.993721
     56          7           0        4.466303    2.245569   -3.832357
     57          1           0        4.058680    2.104844   -4.782915
     58          1           0        3.975260    1.572373   -3.225281
     59          1           0        5.455120    1.974544   -3.854424
     60          8           0        4.309624    2.575104    3.397023
     61          1           0       -2.652606   -6.631215    1.203683
     62          1           0        4.146583    2.865897    4.315435
 ---------------------------------------------------------------------

 SCF Done:  E(RB3LYP) =  -1526.20675094     A.U. after    1 cycles

 Alpha  occ. eigenvalues --  -19.31874 -19.29235 -19.25682 -19.23759 -19.21221
 Alpha  occ. eigenvalues --  -19.20641 -19.19724 -14.60078 -14.45856 -14.45146
 Alpha  occ. eigenvalues --  -14.38059 -10.41773 -10.39763 -10.38581 -10.38138
 Alpha  occ. eigenvalues --  -10.37397 -10.36794 -10.33886 -10.33744 -10.33183
 Alpha  occ. eigenvalues --  -10.30885 -10.30744 -10.30279 -10.30213 -10.30171
 Alpha  occ. eigenvalues --  -10.30169 -10.30050 -10.29765 -10.28592 -10.26832
 Alpha  occ. eigenvalues --  -10.26496  -1.20266  -1.18872  -1.16425  -1.14617
 Alpha  occ. eigenvalues --   -1.13493  -1.12359  -1.11428  -1.07353  -1.02520
 Alpha  occ. eigenvalues --   -1.01357  -0.96650  -0.95866  -0.93993  -0.89493
 Alpha  occ. eigenvalues --   -0.88619  -0.86082  -0.85911  -0.84575  -0.82956
 Alpha  occ. eigenvalues --   -0.78610  -0.77687  -0.75939  -0.74156  -0.73572
 Alpha  occ. eigenvalues --   -0.72186  -0.72004  -0.71028  -0.70629  -0.68843
 Alpha  occ. eigenvalues --   -0.67657  -0.67211  -0.66034  -0.65672  -0.64118
 Alpha  occ. eigenvalues --   -0.61565  -0.60686  -0.60487  -0.59803  -0.59048
 Alpha  occ. eigenvalues --   -0.57867  -0.57593  -0.57326  -0.56679  -0.56221
 Alpha  occ. eigenvalues --   -0.55846  -0.55547  -0.55040  -0.54648  -0.53800
 Alpha  occ. eigenvalues --   -0.53569  -0.53462  -0.52900  -0.51920  -0.51759
 Alpha  occ. eigenvalues --   -0.51712  -0.50818  -0.50442  -0.49921  -0.49664
 Alpha  occ. eigenvalues --   -0.49091  -0.48713  -0.48480  -0.47635  -0.47011
 Alpha  occ. eigenvalues --   -0.46733  -0.46442  -0.46105  -0.45771  -0.45079
 Alpha  occ. eigenvalues --   -0.44747  -0.44519  -0.43959  -0.43711  -0.42836
 Alpha  occ. eigenvalues --   -0.42168  -0.41334  -0.37648  -0.37596  -0.36665
 Alpha  occ. eigenvalues --   -0.36105  -0.35508  -0.34991  -0.33986  -0.33434
 Alpha  occ. eigenvalues --   -0.32850  -0.30226
 Alpha virt. eigenvalues --   -0.11988  -0.11017  -0.10370  -0.08680  -0.07747
 Alpha virt. eigenvalues --   -0.06678  -0.06127  -0.04939  -0.04210  -0.03711
 Alpha virt. eigenvalues --   -0.02214  -0.01440  -0.01206  -0.01120  -0.00170

 Mulliken charges:
               1
     1  N   -0.716528
     2  H    0.307036
     3  H    0.325360
     4  C   -0.065162
     5  H    0.145233
     6  C    0.634769
     7  C   -0.294372
     8  H    0.156711
     9  H    0.162567
    10  O   -0.519385
    11  C   -0.344113
    12  H    0.169568
    13  H    0.191408
    14  C    0.568351
    15  O   -0.466309
    16  O   -0.552692
    17  N   -0.621519
    18  H    0.340484
    19  C   -0.062261
    20  H    0.159151
    21  C    0.654553
    22  C   -0.349624
    23  H    0.194817
    24  H    0.168741
    25  O   -0.542392
    26  C    0.173854
    27  C   -0.138966
    28  H    0.171229
    29  C   -0.193278
    30  H    0.149193
    31  C   -0.216686
    32  H    0.158312
    33  C   -0.184907
    34  H    0.144870
    35  O   -0.674944
    36  H    0.433643
    37  C    0.291450
    38  N   -0.616529
    39  H    0.361722
    40  C   -0.034817
    41  H    0.208165
    42  C    0.587522
    43  C   -0.270756
    44  H    0.157216
    45  H    0.175173
    46  O   -0.452872
    47  C   -0.299533
    48  H    0.153862
    49  H    0.168720
    50  C   -0.282576
    51  H    0.191121
    52  H    0.173144
    53  C   -0.200993
    54  H    0.211974
    55  H    0.213825
    56  N   -0.769669
    57  H    0.442745
    58  H    0.430583
    59  H    0.408537
    60  O   -0.560652
    61  H    0.414915
    62  H    0.431014
 Sum of Mulliken charges =   1.00000

 Dipole moment (field-independent basis, Debye):
    X=             13.7938    Y=             10.8148    Z=            -12.3009  Tot=             21.4136
 Quadrupole moment (field-independent basis, Debye-Ang):
   XX=            -96.1597   YY=           -127.0878   ZZ=           -100.3865
   XY=             55.1769   XZ=            -54.8978   YZ=            -45.1153

 Normal termination of Gaussian 16 at Tue May 24 03:10:24 2022.
