 Gaussian 16, Revision C.01,
 Gaussian 16:  ES64L-G16RevC.01  3-Jul-2019

 -------------------------------------------------------------------
 # B3LYP/6-31G* guess=read geom=check nosymm integral(ultrafinegrid)
 -------------------------------------------------------------------

 ------------------------------------------------------
 Candidate Structure: Conf:102 Charge calc in gas phase
 ------------------------------------------------------
 Structure from the checkpoint file:  "conf-102.chk"
 Charge =  1 Multiplicity = 1

                          Input orientation:
 ---------------------------------------------------------------------
 Center     Atomic      Atomic             Coordinates (Angstroms)
 Number     Number       Type             X           Y           Z
 ---------------------------------------------------------------------
      1          7           0        0.156201   -3.527461    3.438776
      2          1           0        0.613656   -4.049572    2.689992
      3          1           0        0.915732   -3.099026    3.965795
      4          6           0       -0.664530   -2.490718    2.826750
      5          1           0       -0.933234   -1.764815    3.607550
      6          6           0        0.078089   -1.748994    1.694101
      7          6           0       -1.963311   -3.102289    2.256710
      8          1           0       -1.701379   -3.815811    1.465493
      9          1           0       -2.568959   -2.327031    1.772380
     10          8           0        1.040181   -2.234694    1.118031
     11          6           0       -2.798909   -3.807426    3.324475
     12          1           0       -3.056518   -3.122860    4.144899
     13          1           0       -2.229983   -4.618420    3.789053
     14          6           0       -4.091504   -4.356267    2.761113
     15          8           0       -4.501450   -4.183106    1.633154
     16          8           0       -4.769338   -5.074921    3.685751
     17          7           0       -0.409361   -0.499610    1.370134
     18          1           0       -1.294545   -0.229542    1.780625
     19          6           0       -0.019233    0.212050    0.154259
     20          1           0       -0.394427    1.234260    0.286796
     21          6           0        1.520017    0.340445    0.016788
     22          6           0       -0.632595   -0.352129   -1.152811
     23          1           0       -0.192729   -1.331492   -1.352753
     24          1           0       -1.707488   -0.490896   -0.984812
     25          8           0        2.148435   -0.167330   -0.900624
     26          6           0       -0.396438    0.593576   -2.315810
     27          6           0       -1.030618    1.843433   -2.362104
     28          1           0       -1.789226    2.092072   -1.623262
     29          6           0        0.527291    0.287457   -3.325173
     30          1           0        1.030300   -0.672827   -3.310686
     31          6           0       -0.710607    2.789715   -3.339533
     32          1           0       -1.218514    3.749187   -3.381183
     33          6           0        0.863547    1.219095   -4.307316
     34          1           0        1.608305    0.973889   -5.061593
     35          8           0        0.668183    3.500008   -5.159005
     36          1           0        0.967411    3.110561   -5.997966
     37          6           0        0.261024    2.475112   -4.285921
     38          7           0        2.088302    1.209882    0.908771
     39          1           0        1.585974    1.415264    1.762995
     40          6           0        3.517041    1.508103    0.882298
     41          1           0        4.030987    0.629414    0.470095
     42          6           0        4.089625    1.720311    2.283220
     43          6           0        3.846955    2.738169   -0.005921
     44          1           0        3.143197    3.535363    0.272467
     45          1           0        4.850763    3.090058    0.253352
     46          8           0        5.199487    2.147918    2.493041
     47          6           0        3.767111    2.418595   -1.509271
     48          1           0        2.891485    1.801331   -1.720988
     49          1           0        4.631322    1.802723   -1.783914
     50          6           0        3.732967    3.635856   -2.451345
     51          1           0        4.628266    4.260557   -2.334998
     52          1           0        3.739985    3.251862   -3.481005
     53          6           0        2.478128    4.491244   -2.251156
     54          1           0        1.600214    3.881175   -2.027058
     55          1           0        2.599785    5.244097   -1.469755
     56          7           0        2.124869    5.242684   -3.530518
     57          1           0        1.421362    5.969354   -3.359907
     58          1           0        1.714561    4.590829   -4.250359
     59          1           0        2.950136    5.703254   -3.929327
     60          8           0        3.227523    1.377542    3.269085
     61          1           0       -5.585763   -5.385532    3.250264
     62          1           0        3.694904    1.530367    4.113151
 ---------------------------------------------------------------------

 SCF Done:  E(RB3LYP) =  -1526.19715338     A.U. after    1 cycles

 Alpha  occ. eigenvalues --  -19.32571 -19.29566 -19.24542 -19.23327 -19.20828
 Alpha  occ. eigenvalues --  -19.19898 -19.19079 -14.61096 -14.45454 -14.45257
 Alpha  occ. eigenvalues --  -14.38034 -10.41794 -10.39717 -10.38244 -10.37267
 Alpha  occ. eigenvalues --  -10.36857 -10.36429 -10.33863 -10.33573 -10.33215
 Alpha  occ. eigenvalues --  -10.30603 -10.30473 -10.30287 -10.30090 -10.29784
 Alpha  occ. eigenvalues --  -10.29658 -10.29590 -10.29528 -10.28385 -10.25897
 Alpha  occ. eigenvalues --  -10.25590  -1.20277  -1.19274  -1.15492  -1.15338
 Alpha  occ. eigenvalues --   -1.13118  -1.11683  -1.11208  -1.06515  -1.02279
 Alpha  occ. eigenvalues --   -1.01050  -0.96671  -0.95743  -0.93805  -0.89174
 Alpha  occ. eigenvalues --   -0.88282  -0.86064  -0.85336  -0.84001  -0.82650
 Alpha  occ. eigenvalues --   -0.78420  -0.78161  -0.75623  -0.74585  -0.73912
 Alpha  occ. eigenvalues --   -0.72914  -0.71066  -0.70582  -0.70286  -0.68962
 Alpha  occ. eigenvalues --   -0.67690  -0.66258  -0.66017  -0.64844  -0.63809
 Alpha  occ. eigenvalues --   -0.62298  -0.61216  -0.60772  -0.59543  -0.58202
 Alpha  occ. eigenvalues --   -0.58080  -0.57514  -0.56963  -0.56069  -0.55829
 Alpha  occ. eigenvalues --   -0.55589  -0.55409  -0.54578  -0.54055  -0.53533
 Alpha  occ. eigenvalues --   -0.53384  -0.53067  -0.52891  -0.51942  -0.51543
 Alpha  occ. eigenvalues --   -0.51173  -0.50843  -0.50667  -0.50103  -0.49548
 Alpha  occ. eigenvalues --   -0.49167  -0.48154  -0.47625  -0.46909  -0.46566
 Alpha  occ. eigenvalues --   -0.46044  -0.45714  -0.45482  -0.44811  -0.44619
 Alpha  occ. eigenvalues --   -0.44303  -0.44197  -0.44053  -0.43034  -0.41409
 Alpha  occ. eigenvalues --   -0.41227  -0.40845  -0.37639  -0.36872  -0.36488
 Alpha  occ. eigenvalues --   -0.35839  -0.35271  -0.34208  -0.33729  -0.33021
 Alpha  occ. eigenvalues --   -0.32622  -0.30675
 Alpha virt. eigenvalues --   -0.12517  -0.11446  -0.10958  -0.08714  -0.07714
 Alpha virt. eigenvalues --   -0.06732  -0.06253  -0.05942  -0.05000  -0.04008
 Alpha virt. eigenvalues --   -0.02595  -0.02240  -0.01649  -0.01039  -0.00922

 Mulliken charges:
               1
     1  N   -0.690912
     2  H    0.319319
     3  H    0.307017
     4  C   -0.095194
     5  H    0.138552
     6  C    0.588650
     7  C   -0.255648
     8  H    0.168114
     9  H    0.139893
    10  O   -0.498455
    11  C   -0.348728
    12  H    0.171372
    13  H    0.214244
    14  C    0.579127
    15  O   -0.467179
    16  O   -0.563460
    17  N   -0.615917
    18  H    0.332856
    19  C   -0.061239
    20  H    0.145524
    21  C    0.661627
    22  C   -0.348077
    23  H    0.202730
    24  H    0.160674
    25  O   -0.514055
    26  C    0.161880
    27  C   -0.191168
    28  H    0.146712
    29  C   -0.156703
    30  H    0.181685
    31  C   -0.180162
    32  H    0.146161
    33  C   -0.180253
    34  H    0.147997
    35  O   -0.694865
    36  H    0.437401
    37  C    0.303713
    38  N   -0.624475
    39  H    0.351467
    40  C   -0.047847
    41  H    0.223996
    42  C    0.587153
    43  C   -0.273019
    44  H    0.128015
    45  H    0.188845
    46  O   -0.443532
    47  C   -0.291453
    48  H    0.195010
    49  H    0.174386
    50  C   -0.300208
    51  H    0.173460
    52  H    0.157241
    53  C   -0.195530
    54  H    0.223461
    55  H    0.212367
    56  N   -0.769832
    57  H    0.412413
    58  H    0.448784
    59  H    0.409551
    60  O   -0.576914
    61  H    0.413911
    62  H    0.429518
 Sum of Mulliken charges =   1.00000

 Dipole moment (field-independent basis, Debye):
    X=              6.2465    Y=             20.5637    Z=            -10.2834  Tot=             23.8250
 Quadrupole moment (field-independent basis, Debye-Ang):
   XX=           -158.7934   YY=            -78.3569   ZZ=            -96.9647
   XY=             44.5463   XZ=            -36.0515   YZ=            -68.1484

 Normal termination of Gaussian 16 at Tue May 24 03:09:48 2022.
