 Gaussian 16, Revision C.01,
 Gaussian 16:  ES64L-G16RevC.01  3-Jul-2019

 -------------------------------------------------------------------
 # B3LYP/6-31G* guess=read geom=check nosymm integral(ultrafinegrid)
 -------------------------------------------------------------------

 ------------------------------------------------------
 Candidate Structure: Conf:273 Charge calc in gas phase
 ------------------------------------------------------
 Structure from the checkpoint file:  "conf-273.chk"
 Charge =  1 Multiplicity = 1

                          Input orientation:
 ---------------------------------------------------------------------
 Center     Atomic      Atomic             Coordinates (Angstroms)
 Number     Number       Type             X           Y           Z
 ---------------------------------------------------------------------
      1          7           0        2.597620   -2.076911    2.225259
      2          1           0        2.727643   -2.544176    3.122060
      3          1           0        2.595852   -2.804872    1.508707
      4          6           0        1.277139   -1.403344    2.203329
      5          1           0        1.296587   -0.640681    2.993757
      6          6           0        1.157105   -0.692693    0.839822
      7          6           0        0.072750   -2.339827    2.435971
      8          1           0        0.039908   -3.087988    1.633356
      9          1           0       -0.856602   -1.768456    2.345641
     10          8           0        1.928935   -0.977901   -0.080807
     11          6           0        0.080008   -3.037281    3.799304
     12          1           0        0.229295   -2.313086    4.613393
     13          1           0        0.886076   -3.773928    3.893929
     14          6           0       -1.238397   -3.745441    4.068086
     15          8           0       -2.256228   -3.580771    3.435417
     16          8           0       -1.136987   -4.576348    5.125456
     17          7           0        0.165674    0.219231    0.721037
     18          1           0       -0.308389    0.511392    1.564811
     19          6           0        0.043272    1.096787   -0.451444
     20          1           0       -0.731063    1.825323   -0.187168
     21          6           0        1.365481    1.909584   -0.579792
     22          6           0       -0.439834    0.304450   -1.694095
     23          1           0        0.383892   -0.310569   -2.066481
     24          1           0       -1.203426   -0.391941   -1.325226
     25          8           0        2.041219    2.126274    0.430400
     26          6           0       -1.022687    1.144890   -2.814888
     27          6           0       -2.115497    2.002334   -2.595486
     28          1           0       -2.550808    2.085402   -1.601493
     29          6           0       -0.525527    1.045992   -4.120406
     30          1           0        0.305144    0.375273   -4.329850
     31          6           0       -2.678072    2.741062   -3.627522
     32          1           0       -3.522923    3.399693   -3.454447
     33          6           0       -1.080712    1.779261   -5.169553
     34          1           0       -0.673229    1.685768   -6.173770
     35          8           0       -2.749534    3.385035   -5.893789
     36          1           0       -2.309101    3.227903   -6.743872
     37          6           0       -2.158129    2.634883   -4.925440
     38          7           0        1.713460    2.339118   -1.816868
     39          1           0        1.061256    2.246877   -2.593027
     40          6           0        2.910367    3.137671   -2.075112
     41          1           0        3.095782    3.771435   -1.201413
     42          6           0        2.629354    4.028427   -3.278444
     43          6           0        4.188513    2.276476   -2.331019
     44          1           0        4.079846    1.725347   -3.274044
     45          1           0        5.040645    2.956169   -2.438930
     46          8           0        1.693976    3.889242   -4.033732
     47          6           0        4.355543    1.315345   -1.156218
     48          1           0        3.454114    0.696053   -1.142240
     49          1           0        4.327950    1.931687   -0.251725
     50          6           0        5.548443    0.357087   -1.060143
     51          1           0        5.781842   -0.107166   -2.025828
     52          1           0        6.459009    0.870500   -0.727639
     53          6           0        5.171556   -0.785804   -0.098563
     54          1           0        4.427248   -1.436362   -0.560603
     55          1           0        6.028920   -1.385504    0.215501
     56          7           0        4.497178   -0.278355    1.164031
     57          1           0        3.905628   -1.034903    1.651043
     58          1           0        3.813008    0.453832    0.924046
     59          1           0        5.169524    0.124888    1.822248
     60          8           0        3.579835    4.970503   -3.417381
     61          1           0       -2.017815   -4.976064    5.260954
     62          1           0        3.360612    5.488215   -4.216181
 ---------------------------------------------------------------------

 SCF Done:  E(RB3LYP) =  -1526.23036785     A.U. after    1 cycles

 Alpha  occ. eigenvalues --  -19.29360 -19.28224 -19.24856 -19.24102 -19.23874
 Alpha  occ. eigenvalues --  -19.22781 -19.21903 -14.55747 -14.47929 -14.47453
 Alpha  occ. eigenvalues --  -14.46229 -10.41949 -10.41170 -10.40958 -10.39467
 Alpha  occ. eigenvalues --  -10.36738 -10.35684 -10.34578 -10.34200 -10.32430
 Alpha  occ. eigenvalues --  -10.31250 -10.30789 -10.30607 -10.29773 -10.29200
 Alpha  occ. eigenvalues --  -10.28562 -10.27385 -10.27122 -10.27009 -10.26469
 Alpha  occ. eigenvalues --  -10.26052  -1.20397  -1.19227  -1.15990  -1.13630
 Alpha  occ. eigenvalues --   -1.13049  -1.11552  -1.10636  -1.10373  -1.04115
 Alpha  occ. eigenvalues --   -1.03186  -1.02666  -0.93422  -0.92144  -0.90563
 Alpha  occ. eigenvalues --   -0.89033  -0.87233  -0.83915  -0.82698  -0.82492
 Alpha  occ. eigenvalues --   -0.80782  -0.76308  -0.75779  -0.74628  -0.72186
 Alpha  occ. eigenvalues --   -0.71552  -0.70042  -0.69200  -0.69062  -0.68552
 Alpha  occ. eigenvalues --   -0.68063  -0.67325  -0.66723  -0.65683  -0.62872
 Alpha  occ. eigenvalues --   -0.62043  -0.61092  -0.60408  -0.59817  -0.59746
 Alpha  occ. eigenvalues --   -0.58926  -0.58188  -0.57587  -0.57017  -0.56601
 Alpha  occ. eigenvalues --   -0.56450  -0.55547  -0.55449  -0.54920  -0.54716
 Alpha  occ. eigenvalues --   -0.54259  -0.53598  -0.52633  -0.52473  -0.51682
 Alpha  occ. eigenvalues --   -0.51478  -0.51345  -0.50387  -0.50119  -0.49809
 Alpha  occ. eigenvalues --   -0.49609  -0.48972  -0.48163  -0.47814  -0.47493
 Alpha  occ. eigenvalues --   -0.47332  -0.47294  -0.46501  -0.45827  -0.45292
 Alpha  occ. eigenvalues --   -0.45078  -0.44650  -0.43803  -0.43594  -0.41449
 Alpha  occ. eigenvalues --   -0.41233  -0.40503  -0.40462  -0.40385  -0.37963
 Alpha  occ. eigenvalues --   -0.37698  -0.37354  -0.36427  -0.35931  -0.35617
 Alpha  occ. eigenvalues --   -0.32851  -0.29347
 Alpha virt. eigenvalues --   -0.10586  -0.09094  -0.08532  -0.08113  -0.07905
 Alpha virt. eigenvalues --   -0.07384  -0.06627  -0.04839  -0.03507  -0.01449
 Alpha virt. eigenvalues --   -0.01244  -0.00778  -0.00015   0.00143   0.00374

 Mulliken charges:
               1
     1  N   -0.770158
     2  H    0.341761
     3  H    0.343240
     4  C   -0.098357
     5  H    0.169119
     6  C    0.643478
     7  C   -0.267850
     8  H    0.172269
     9  H    0.183754
    10  O   -0.556754
    11  C   -0.373484
    12  H    0.187216
    13  H    0.174836
    14  C    0.589930
    15  O   -0.445698
    16  O   -0.559789
    17  N   -0.581539
    18  H    0.348764
    19  C   -0.078326
    20  H    0.188196
    21  C    0.641300
    22  C   -0.358254
    23  H    0.178487
    24  H    0.176466
    25  O   -0.561011
    26  C    0.122008
    27  C   -0.185812
    28  H    0.129394
    29  C   -0.203675
    30  H    0.133436
    31  C   -0.151078
    32  H    0.159115
    33  C   -0.169471
    34  H    0.136182
    35  O   -0.629129
    36  H    0.416508
    37  C    0.357487
    38  N   -0.634127
    39  H    0.387389
    40  C   -0.039225
    41  H    0.203480
    42  C    0.581372
    43  C   -0.272470
    44  H    0.157676
    45  H    0.177774
    46  O   -0.449890
    47  C   -0.327750
    48  H    0.189267
    49  H    0.158038
    50  C   -0.273386
    51  H    0.181662
    52  H    0.165856
    53  C   -0.192458
    54  H    0.224583
    55  H    0.194868
    56  N   -0.784111
    57  H    0.442350
    58  H    0.424319
    59  H    0.386465
    60  O   -0.559881
    61  H    0.425926
    62  H    0.429715
 Sum of Mulliken charges =   1.00000

 Dipole moment (field-independent basis, Debye):
    X=             14.6633    Y=             -0.7346    Z=              2.0771  Tot=             14.8279
 Quadrupole moment (field-independent basis, Debye-Ang):
   XX=           -106.6374   YY=           -147.2294   ZZ=           -116.0026
   XY=              0.8724   XZ=              0.5083   YZ=            -36.4078

 Normal termination of Gaussian 16 at Tue May 24 03:09:56 2022.
