 Gaussian 16, Revision C.01,
 Gaussian 16:  ES64L-G16RevC.01  3-Jul-2019

 -------------------------------------------------------------------
 # B3LYP/6-31G* guess=read geom=check nosymm integral(ultrafinegrid)
 -------------------------------------------------------------------

 ------------------------------------------------------
 Candidate Structure: Conf:684 Charge calc in gas phase
 ------------------------------------------------------
 Structure from the checkpoint file:  "conf-684.chk"
 Charge =  1 Multiplicity = 1

                          Input orientation:
 ---------------------------------------------------------------------
 Center     Atomic      Atomic             Coordinates (Angstroms)
 Number     Number       Type             X           Y           Z
 ---------------------------------------------------------------------
      1          7           0        0.362618   -2.312641    3.509964
      2          1           0       -0.068884   -2.860312    4.251533
      3          1           0        0.924226   -2.941983    2.938712
      4          6           0       -0.658684   -1.693473    2.671477
      5          1           0       -1.115114   -0.877447    3.242900
      6          6           0        0.076434   -1.093750    1.465019
      7          6           0       -1.778585   -2.665967    2.212296
      8          1           0       -2.223691   -3.106342    3.113126
      9          1           0       -1.319889   -3.486472    1.647846
     10          8           0        1.015300   -1.670400    0.923701
     11          6           0       -2.907298   -2.059876    1.340037
     12          1           0       -3.656784   -2.829132    1.137374
     13          1           0       -2.500858   -1.720840    0.382091
     14          6           0       -3.575832   -0.871203    1.994090
     15          8           0       -3.134856    0.269051    1.997017
     16          8           0       -4.716877   -1.195132    2.619859
     17          7           0       -0.356207    0.139347    1.048514
     18          1           0       -1.268737    0.457010    1.380738
     19          6           0        0.200192    0.745035   -0.156442
     20          1           0       -0.194299    1.768819   -0.178293
     21          6           0        1.729642    0.890998   -0.028071
     22          6           0       -0.218404    0.019544   -1.457383
     23          1           0        0.229425   -0.976860   -1.449728
     24          1           0       -1.306775   -0.113830   -1.395080
     25          8           0        2.487894    0.720186   -1.001202
     26          6           0        0.117291    0.726459   -2.758001
     27          6           0       -0.203639    2.073118   -2.988107
     28          1           0       -0.701707    2.655732   -2.216407
     29          6           0        0.724918    0.021258   -3.806991
     30          1           0        0.989077   -1.022815   -3.661851
     31          6           0        0.077326    2.698940   -4.205855
     32          1           0       -0.202138    3.732909   -4.384154
     33          6           0        0.997665    0.620735   -5.037681
     34          1           0        1.449868    0.038173   -5.838166
     35          8           0        0.894956    2.620808   -6.422457
     36          1           0        1.150230    1.985889   -7.110877
     37          6           0        0.664742    1.966630   -5.249253
     38          7           0        2.179304    1.315356    1.159005
     39          1           0        1.549009    1.335367    1.957701
     40          6           0        3.588681    1.533566    1.466296
     41          1           0        4.155186    0.619331    1.247110
     42          6           0        3.658273    1.753261    2.977077
     43          6           0        4.215742    2.724719    0.674484
     44          1           0        3.382947    3.356467    0.345482
     45          1           0        4.812665    3.340232    1.354084
     46          8           0        2.691237    1.832891    3.700863
     47          6           0        5.103260    2.287729   -0.511371
     48          1           0        4.760252    1.317820   -0.882288
     49          1           0        6.127206    2.130858   -0.154117
     50          6           0        5.162528    3.298648   -1.672369
     51          1           0        5.493976    4.279025   -1.307025
     52          1           0        5.926943    2.976947   -2.393029
     53          6           0        3.850450    3.542982   -2.423239
     54          1           0        3.066071    3.938344   -1.773876
     55          1           0        3.997642    4.249021   -3.244321
     56          7           0        3.280689    2.278213   -3.019852
     57          1           0        2.453956    2.471374   -3.606807
     58          1           0        2.955590    1.612017   -2.261674
     59          1           0        3.968344    1.792370   -3.602949
     60          8           0        4.930016    1.845630    3.397885
     61          1           0       -5.063595   -0.382109    3.037034
     62          1           0        4.908872    1.975419    4.365835
 ---------------------------------------------------------------------

 SCF Done:  E(RB3LYP) =  -1526.23272118     A.U. after    2 cycles

 Alpha  occ. eigenvalues --  -19.30075 -19.28996 -19.28363 -19.24695 -19.24035
 Alpha  occ. eigenvalues --  -19.23759 -19.20920 -14.56583 -14.47164 -14.45228
 Alpha  occ. eigenvalues --  -14.38737 -10.42747 -10.41785 -10.40963 -10.37732
 Alpha  occ. eigenvalues --  -10.37552 -10.36174 -10.35135 -10.34600 -10.32091
 Alpha  occ. eigenvalues --  -10.30578 -10.30466 -10.30255 -10.30203 -10.30099
 Alpha  occ. eigenvalues --  -10.29953 -10.29935 -10.29824 -10.29219 -10.29154
 Alpha  occ. eigenvalues --  -10.28308  -1.21201  -1.20080  -1.16546  -1.15673
 Alpha  occ. eigenvalues --   -1.12777  -1.12419  -1.11571  -1.10866  -1.04186
 Alpha  occ. eigenvalues --   -1.01647  -0.96539  -0.96302  -0.92792  -0.89588
 Alpha  occ. eigenvalues --   -0.88464  -0.88003  -0.85776  -0.84246  -0.82819
 Alpha  occ. eigenvalues --   -0.79109  -0.77816  -0.76587  -0.73778  -0.73046
 Alpha  occ. eigenvalues --   -0.71883  -0.71356  -0.70254  -0.69585  -0.69544
 Alpha  occ. eigenvalues --   -0.68512  -0.68359  -0.67391  -0.65243  -0.62494
 Alpha  occ. eigenvalues --   -0.61844  -0.61786  -0.60599  -0.59444  -0.59022
 Alpha  occ. eigenvalues --   -0.58742  -0.58598  -0.57706  -0.57639  -0.56880
 Alpha  occ. eigenvalues --   -0.56714  -0.56398  -0.55353  -0.54733  -0.54406
 Alpha  occ. eigenvalues --   -0.53693  -0.53521  -0.53087  -0.52899  -0.52179
 Alpha  occ. eigenvalues --   -0.51929  -0.51402  -0.50976  -0.50335  -0.50114
 Alpha  occ. eigenvalues --   -0.49906  -0.49293  -0.48965  -0.48577  -0.48087
 Alpha  occ. eigenvalues --   -0.46946  -0.46763  -0.46504  -0.45875  -0.45437
 Alpha  occ. eigenvalues --   -0.45273  -0.45013  -0.44384  -0.44230  -0.43827
 Alpha  occ. eigenvalues --   -0.43267  -0.42180  -0.41080  -0.38686  -0.38000
 Alpha  occ. eigenvalues --   -0.37496  -0.37371  -0.36573  -0.35492  -0.34161
 Alpha  occ. eigenvalues --   -0.32516  -0.30939
 Alpha virt. eigenvalues --   -0.11755  -0.10562  -0.09972  -0.09102  -0.08941
 Alpha virt. eigenvalues --   -0.07815  -0.07026  -0.03643  -0.02932  -0.01996
 Alpha virt. eigenvalues --   -0.01576  -0.01316  -0.01000  -0.00392   0.00365

 Mulliken charges:
               1
     1  N   -0.713136
     2  H    0.306783
     3  H    0.320349
     4  C   -0.069869
     5  H    0.161927
     6  C    0.617501
     7  C   -0.290966
     8  H    0.165372
     9  H    0.170524
    10  O   -0.528171
    11  C   -0.361008
    12  H    0.193083
    13  H    0.174295
    14  C    0.591490
    15  O   -0.485877
    16  O   -0.536850
    17  N   -0.656410
    18  H    0.387066
    19  C   -0.057376
    20  H    0.171785
    21  C    0.662118
    22  C   -0.357196
    23  H    0.197084
    24  H    0.170375
    25  O   -0.596744
    26  C    0.177328
    27  C   -0.205047
    28  H    0.147091
    29  C   -0.197859
    30  H    0.159954
    31  C   -0.209040
    32  H    0.168524
    33  C   -0.218410
    34  H    0.148713
    35  O   -0.630186
    36  H    0.422067
    37  C    0.331428
    38  N   -0.605258
    39  H    0.380348
    40  C   -0.005995
    41  H    0.213656
    42  C    0.572400
    43  C   -0.289863
    44  H    0.149036
    45  H    0.188594
    46  O   -0.446873
    47  C   -0.290930
    48  H    0.168571
    49  H    0.176347
    50  C   -0.296148
    51  H    0.187060
    52  H    0.164751
    53  C   -0.190566
    54  H    0.201675
    55  H    0.207499
    56  N   -0.789150
    57  H    0.410723
    58  H    0.471016
    59  H    0.392592
    60  O   -0.559677
    61  H    0.424556
    62  H    0.434924
 Sum of Mulliken charges =   1.00000

 Dipole moment (field-independent basis, Debye):
    X=              9.1727    Y=              7.5217    Z=             -6.9252  Tot=             13.7358
 Quadrupole moment (field-independent basis, Debye-Ang):
   XX=           -104.8841   YY=           -144.6049   ZZ=           -110.0857
   XY=             43.0917   XZ=            -33.5232   YZ=            -20.7691

 Normal termination of Gaussian 16 at Tue May 24 03:10:40 2022.
