 Gaussian 16, Revision C.01,
 Gaussian 16:  ES64L-G16RevC.01  3-Jul-2019

 -------------------------------------------------------------------
 # B3LYP/6-31G* guess=read geom=check nosymm integral(ultrafinegrid)
 -------------------------------------------------------------------

 ------------------------------------------------------
 Candidate Structure: Conf:472 Charge calc in gas phase
 ------------------------------------------------------
 Structure from the checkpoint file:  "conf-472.chk"
 Charge =  1 Multiplicity = 1

                          Input orientation:
 ---------------------------------------------------------------------
 Center     Atomic      Atomic             Coordinates (Angstroms)
 Number     Number       Type             X           Y           Z
 ---------------------------------------------------------------------
      1          7           0       -1.137319   -3.464766    2.281428
      2          1           0       -1.574652   -3.754126    1.410792
      3          1           0       -0.175150   -3.785881    2.315257
      4          6           0       -1.305671   -2.047631    2.580136
      5          1           0       -0.714933   -1.828017    3.476315
      6          6           0       -0.818709   -1.039441    1.521452
      7          6           0       -2.776794   -1.734998    2.930100
      8          1           0       -3.406134   -1.959540    2.057680
      9          1           0       -2.857564   -0.661401    3.116939
     10          8           0       -0.987077    0.175215    1.655339
     11          6           0       -3.302500   -2.532964    4.125306
     12          1           0       -3.120341   -3.604489    3.979497
     13          1           0       -4.388115   -2.415258    4.221551
     14          6           0       -2.675829   -2.139796    5.445746
     15          8           0       -1.734078   -1.389089    5.599279
     16          8           0       -3.294907   -2.747480    6.483733
     17          7           0       -0.187483   -1.550299    0.421877
     18          1           0        0.069396   -2.527941    0.418866
     19          6           0        0.356452   -0.650418   -0.586315
     20          1           0       -0.365204    0.167677   -0.668795
     21          6           0        1.704917   -0.040440   -0.141981
     22          6           0        0.509072   -1.331664   -1.961295
     23          1           0        1.214329   -2.164413   -1.876118
     24          1           0       -0.466449   -1.742108   -2.247187
     25          8           0        2.786137   -0.509740   -0.492122
     26          6           0        1.006436   -0.349170   -3.008015
     27          6           0        0.166968    0.653829   -3.511082
     28          1           0       -0.879053    0.682258   -3.215983
     29          6           0        2.341901   -0.368241   -3.435263
     30          1           0        3.008892   -1.135403   -3.058612
     31          6           0        0.650769    1.644438   -4.369236
     32          1           0       -0.010355    2.430175   -4.728491
     33          6           0        2.838751    0.601209   -4.306382
     34          1           0        3.868181    0.567597   -4.651027
     35          8           0        2.550823    2.630400   -5.543021
     36          1           0        1.872485    2.962630   -6.154158
     37          6           0        1.991364    1.614897   -4.744188
     38          7           0        1.596906    1.103978    0.586216
     39          1           0        0.707142    1.304587    1.038981
     40          6           0        2.780354    1.927656    0.787907
     41          1           0        3.620400    1.253703    1.008691
     42          6           0        2.637608    2.867290    1.976806
     43          6           0        3.089455    2.695643   -0.517791
     44          1           0        2.888071    1.988051   -1.328287
     45          1           0        2.365376    3.514689   -0.607951
     46          8           0        3.132313    3.972762    2.025475
     47          6           0        4.526754    3.211877   -0.679632
     48          1           0        5.231160    2.464816   -0.294744
     49          1           0        4.684042    4.121249   -0.091099
     50          6           0        4.883084    3.439860   -2.163849
     51          1           0        5.946053    3.698818   -2.260001
     52          1           0        4.721651    2.499102   -2.707697
     53          6           0        4.041977    4.540719   -2.805718
     54          1           0        2.973252    4.404230   -2.633115
     55          1           0        4.332374    5.533740   -2.454091
     56          7           0        4.210237    4.537581   -4.322884
     57          1           0        3.913368    5.428976   -4.733886
     58          1           0        3.635161    3.778635   -4.777784
     59          1           0        5.193267    4.396841   -4.581726
     60          8           0        1.922418    2.322592    2.977133
     61          1           0       -2.828090   -2.459431    7.291064
     62          1           0        1.894017    2.975036    3.703567
 ---------------------------------------------------------------------

 SCF Done:  E(RB3LYP) =  -1526.20805460     A.U. after    1 cycles

 Alpha  occ. eigenvalues --  -19.32475 -19.28283 -19.24418 -19.22729 -19.20114
 Alpha  occ. eigenvalues --  -19.19254 -19.19044 -14.60951 -14.44586 -14.44015
 Alpha  occ. eigenvalues --  -14.39598 -10.40966 -10.39649 -10.37153 -10.36856
 Alpha  occ. eigenvalues --  -10.36501 -10.36061 -10.32930 -10.32870 -10.32122
 Alpha  occ. eigenvalues --  -10.30323 -10.29860 -10.29814 -10.29761 -10.29613
 Alpha  occ. eigenvalues --  -10.29264 -10.29077 -10.28735 -10.28716 -10.25170
 Alpha  occ. eigenvalues --  -10.24971  -1.19319  -1.19076  -1.15410  -1.15195
 Alpha  occ. eigenvalues --   -1.12125  -1.10947  -1.10311  -1.06376  -1.01024
 Alpha  occ. eigenvalues --   -1.00650  -0.96431  -0.96084  -0.93706  -0.88748
 Alpha  occ. eigenvalues --   -0.87704  -0.85611  -0.84802  -0.83579  -0.82075
 Alpha  occ. eigenvalues --   -0.78021  -0.77833  -0.75054  -0.74133  -0.74081
 Alpha  occ. eigenvalues --   -0.72823  -0.70892  -0.70239  -0.69791  -0.67731
 Alpha  occ. eigenvalues --   -0.66521  -0.66027  -0.65857  -0.64711  -0.63288
 Alpha  occ. eigenvalues --   -0.62664  -0.60753  -0.59700  -0.59579  -0.58085
 Alpha  occ. eigenvalues --   -0.57733  -0.57576  -0.56768  -0.56348  -0.55730
 Alpha  occ. eigenvalues --   -0.55519  -0.54909  -0.54652  -0.53282  -0.53152
 Alpha  occ. eigenvalues --   -0.52895  -0.52700  -0.52467  -0.52055  -0.51063
 Alpha  occ. eigenvalues --   -0.50455  -0.50326  -0.49716  -0.49417  -0.49129
 Alpha  occ. eigenvalues --   -0.48411  -0.47733  -0.46908  -0.46271  -0.46122
 Alpha  occ. eigenvalues --   -0.45723  -0.45509  -0.45150  -0.44817  -0.44223
 Alpha  occ. eigenvalues --   -0.43797  -0.43522  -0.43499  -0.42144  -0.41340
 Alpha  occ. eigenvalues --   -0.40395  -0.40079  -0.36739  -0.36443  -0.36082
 Alpha  occ. eigenvalues --   -0.35943  -0.35281  -0.34258  -0.33564  -0.32500
 Alpha  occ. eigenvalues --   -0.32119  -0.29988
 Alpha virt. eigenvalues --   -0.12309  -0.11155  -0.10526  -0.08158  -0.06897
 Alpha virt. eigenvalues --   -0.06504  -0.06198  -0.05142  -0.04602  -0.03963
 Alpha virt. eigenvalues --   -0.02155  -0.01435  -0.01042  -0.00472  -0.00326

 Mulliken charges:
               1
     1  N   -0.733652
     2  H    0.305128
     3  H    0.315656
     4  C   -0.073508
     5  H    0.211205
     6  C    0.609443
     7  C   -0.264933
     8  H    0.133120
     9  H    0.187478
    10  O   -0.544055
    11  C   -0.354480
    12  H    0.204051
    13  H    0.181944
    14  C    0.582822
    15  O   -0.468797
    16  O   -0.561535
    17  N   -0.609996
    18  H    0.317004
    19  C   -0.037725
    20  H    0.174370
    21  C    0.628041
    22  C   -0.367693
    23  H    0.170834
    24  H    0.168582
    25  O   -0.537740
    26  C    0.154607
    27  C   -0.186806
    28  H    0.156803
    29  C   -0.158943
    30  H    0.174372
    31  C   -0.174417
    32  H    0.142077
    33  C   -0.168222
    34  H    0.148247
    35  O   -0.705947
    36  H    0.433735
    37  C    0.312596
    38  N   -0.631068
    39  H    0.383765
    40  C   -0.025866
    41  H    0.207809
    42  C    0.572361
    43  C   -0.277288
    44  H    0.166106
    45  H    0.143706
    46  O   -0.460678
    47  C   -0.275524
    48  H    0.172686
    49  H    0.186504
    50  C   -0.307437
    51  H    0.166400
    52  H    0.171774
    53  C   -0.190315
    54  H    0.219570
    55  H    0.217264
    56  N   -0.774882
    57  H    0.409426
    58  H    0.456177
    59  H    0.410020
    60  O   -0.545961
    61  H    0.413189
    62  H    0.428595
 Sum of Mulliken charges =   1.00000

 Dipole moment (field-independent basis, Debye):
    X=             13.0918    Y=             13.9013    Z=            -16.5658  Tot=             25.2798
 Quadrupole moment (field-independent basis, Debye-Ang):
   XX=           -110.8683   YY=            -89.2588   ZZ=            -79.5934
   XY=             70.4441   XZ=            -64.0101   YZ=            -81.5540

 Normal termination of Gaussian 16 at Tue May 24 03:10:24 2022.
