 Gaussian 16, Revision C.01,
 Gaussian 16:  ES64L-G16RevC.01  3-Jul-2019

 -------------------------------------------------------------------
 # B3LYP/6-31G* guess=read geom=check nosymm integral(ultrafinegrid)
 -------------------------------------------------------------------

 ------------------------------------------------------
 Candidate Structure: Conf:549 Charge calc in gas phase
 ------------------------------------------------------
 Structure from the checkpoint file:  "conf-549.chk"
 Charge =  1 Multiplicity = 1

                          Input orientation:
 ---------------------------------------------------------------------
 Center     Atomic      Atomic             Coordinates (Angstroms)
 Number     Number       Type             X           Y           Z
 ---------------------------------------------------------------------
      1          7           0        0.023870   -0.298985    3.339304
      2          1           0       -0.318961   -0.440756    4.288401
      3          1           0        0.658395   -1.066074    3.111107
      4          6           0       -1.092466   -0.312197    2.371589
      5          1           0       -1.637520    0.632275    2.492787
      6          6           0       -0.442274   -0.351590    0.977300
      7          6           0       -2.108602   -1.464591    2.561020
      8          1           0       -2.921021   -1.333352    1.833803
      9          1           0       -2.561875   -1.358624    3.554031
     10          8           0        0.562461   -1.029649    0.779857
     11          6           0       -1.518471   -2.880880    2.417501
     12          1           0       -0.721628   -3.030149    3.155838
     13          1           0       -1.095336   -3.037642    1.424013
     14          6           0       -2.575074   -3.943112    2.641765
     15          8           0       -3.004517   -4.700438    1.803650
     16          8           0       -3.015218   -3.939762    3.927433
     17          7           0       -1.011017    0.421139    0.010765
     18          1           0       -1.874571    0.904721    0.217740
     19          6           0       -0.473562    0.510049   -1.360045
     20          1           0       -0.961927    1.384813   -1.805811
     21          6           0        1.048761    0.811576   -1.293427
     22          6           0       -0.788799   -0.730130   -2.230610
     23          1           0       -0.053068   -1.505988   -2.006249
     24          1           0       -1.768154   -1.103549   -1.908870
     25          8           0        1.874578    0.216960   -1.962427
     26          6           0       -0.833614   -0.432710   -3.716792
     27          6           0       -2.008662    0.063838   -4.302502
     28          1           0       -2.892368    0.217955   -3.685258
     29          6           0        0.273356   -0.641828   -4.547275
     30          1           0        1.197688   -1.011191   -4.115978
     31          6           0       -2.085165    0.348609   -5.662170
     32          1           0       -2.999316    0.723423   -6.111517
     33          6           0        0.211380   -0.366998   -5.913081
     34          1           0        1.082099   -0.542560   -6.542883
     35          8           0       -1.092506    0.419914   -7.805692
     36          1           0       -0.267102    0.188173   -8.259191
     37          6           0       -0.968245    0.130357   -6.475948
     38          7           0        1.381503    1.839040   -0.429363
     39          1           0        0.636866    2.119632    0.198476
     40          6           0        2.681467    1.804379    0.232557
     41          1           0        3.261561    1.015940   -0.255203
     42          6           0        2.518804    1.388079    1.705749
     43          6           0        3.449752    3.137652    0.101999
     44          1           0        3.415567    3.432569   -0.953415
     45          1           0        2.931893    3.921601    0.671759
     46          8           0        3.392639    0.826817    2.333834
     47          6           0        4.906357    3.009714    0.571230
     48          1           0        5.413203    2.251538   -0.040604
     49          1           0        4.931587    2.640210    1.602483
     50          6           0        5.676713    4.337799    0.474296
     51          1           0        5.666064    4.700327   -0.563424
     52          1           0        5.180868    5.099215    1.092922
     53          6           0        7.113223    4.149113    0.941899
     54          1           0        7.174284    3.835584    1.986815
     55          1           0        7.663604    3.434926    0.324688
     56          7           0        7.896727    5.465414    0.853907
     57          1           0        8.870422    5.359788    1.164694
     58          1           0        7.460053    6.191699    1.434880
     59          1           0        7.912855    5.818624   -0.110852
     60          8           0        1.322405    1.738005    2.201283
     61          1           0       -3.694611   -4.638249    3.986884
     62          1           0        1.003937    1.079941    2.910265
 ---------------------------------------------------------------------

 SCF Done:  E(RB3LYP) =  -1526.18838109     A.U. after    2 cycles

 Alpha  occ. eigenvalues --  -19.25148 -19.24450 -19.22120 -19.20583 -19.19975
 Alpha  occ. eigenvalues --  -19.19400 -19.18699 -14.65667 -14.44989 -14.42521
 Alpha  occ. eigenvalues --  -14.42265 -10.42460 -10.38704 -10.37687 -10.37126
 Alpha  occ. eigenvalues --  -10.35775 -10.34940 -10.31731 -10.31144 -10.31100
 Alpha  occ. eigenvalues --  -10.30827 -10.29249 -10.29064 -10.27686 -10.26531
 Alpha  occ. eigenvalues --  -10.24573 -10.23627 -10.23563 -10.23232 -10.23139
 Alpha  occ. eigenvalues --  -10.22837  -1.19499  -1.15988  -1.15902  -1.12177
 Alpha  occ. eigenvalues --   -1.10409  -1.10154  -1.07632  -1.06953  -1.01105
 Alpha  occ. eigenvalues --   -0.99220  -0.98569  -0.95959  -0.89785  -0.88883
 Alpha  occ. eigenvalues --   -0.86842  -0.84810  -0.82875  -0.80060  -0.79023
 Alpha  occ. eigenvalues --   -0.78850  -0.78109  -0.77370  -0.75248  -0.72162
 Alpha  occ. eigenvalues --   -0.71339  -0.70231  -0.67954  -0.67144  -0.66631
 Alpha  occ. eigenvalues --   -0.66433  -0.66166  -0.64355  -0.63408  -0.62828
 Alpha  occ. eigenvalues --   -0.61475  -0.59932  -0.58677  -0.58186  -0.57224
 Alpha  occ. eigenvalues --   -0.56817  -0.55976  -0.55420  -0.54734  -0.54283
 Alpha  occ. eigenvalues --   -0.53464  -0.53228  -0.52757  -0.52561  -0.52323
 Alpha  occ. eigenvalues --   -0.51203  -0.50630  -0.50473  -0.49863  -0.49317
 Alpha  occ. eigenvalues --   -0.48726  -0.48263  -0.47833  -0.47625  -0.47132
 Alpha  occ. eigenvalues --   -0.46631  -0.46247  -0.46024  -0.45078  -0.44949
 Alpha  occ. eigenvalues --   -0.44525  -0.44058  -0.43914  -0.43772  -0.43378
 Alpha  occ. eigenvalues --   -0.42617  -0.42308  -0.41261  -0.40142  -0.37951
 Alpha  occ. eigenvalues --   -0.37830  -0.37325  -0.37261  -0.35822  -0.35433
 Alpha  occ. eigenvalues --   -0.34555  -0.33418  -0.32737  -0.31877  -0.31599
 Alpha  occ. eigenvalues --   -0.29461  -0.26058
 Alpha virt. eigenvalues --   -0.16045  -0.09322  -0.09299  -0.07185  -0.06842
 Alpha virt. eigenvalues --   -0.06302  -0.05264  -0.04766  -0.04428  -0.03385
 Alpha virt. eigenvalues --   -0.03053  -0.01965  -0.01458  -0.00760   0.00233

 Mulliken charges:
               1
     1  N   -0.777543
     2  H    0.331729
     3  H    0.357961
     4  C   -0.067775
     5  H    0.151524
     6  C    0.653512
     7  C   -0.289315
     8  H    0.159374
     9  H    0.173470
    10  O   -0.528897
    11  C   -0.337751
    12  H    0.163733
    13  H    0.201746
    14  C    0.559209
    15  O   -0.441631
    16  O   -0.565354
    17  N   -0.637592
    18  H    0.337826
    19  C   -0.052700
    20  H    0.174641
    21  C    0.619468
    22  C   -0.347446
    23  H    0.191680
    24  H    0.147251
    25  O   -0.495756
    26  C    0.144971
    27  C   -0.191463
    28  H    0.115824
    29  C   -0.177367
    30  H    0.157424
    31  C   -0.156479
    32  H    0.144008
    33  C   -0.196626
    34  H    0.121037
    35  O   -0.639301
    36  H    0.409372
    37  C    0.351167
    38  N   -0.599703
    39  H    0.342141
    40  C   -0.056160
    41  H    0.207130
    42  C    0.600267
    43  C   -0.275160
    44  H    0.168056
    45  H    0.148574
    46  O   -0.473719
    47  C   -0.283529
    48  H    0.165878
    49  H    0.188290
    50  C   -0.292115
    51  H    0.168726
    52  H    0.167893
    53  C   -0.207736
    54  H    0.234933
    55  H    0.232860
    56  N   -0.732189
    57  H    0.432682
    58  H    0.427860
    59  H    0.428114
    60  O   -0.630800
    61  H    0.417120
    62  H    0.456656
 Sum of Mulliken charges =   1.00000

 Dipole moment (field-independent basis, Debye):
    X=             28.3232    Y=             24.6058    Z=              6.6968  Tot=             38.1116
 Quadrupole moment (field-independent basis, Debye-Ang):
   XX=             86.4382   YY=            -56.8064   ZZ=           -152.1091
   XY=            180.0406   XZ=              5.4470   YZ=             11.4494

 Normal termination of Gaussian 16 at Tue May 24 03:10:34 2022.
