 Gaussian 16, Revision C.01,
 Gaussian 16:  ES64L-G16RevC.01  3-Jul-2019

 -------------------------------------------------------------------
 # B3LYP/6-31G* guess=read geom=check nosymm integral(ultrafinegrid)
 -------------------------------------------------------------------

 -----------------------------------------------------
 Candidate Structure: Conf:34 Charge calc in gas phase
 -----------------------------------------------------
 Structure from the checkpoint file:  "conf-34.chk"
 Charge =  1 Multiplicity = 1

                          Input orientation:
 ---------------------------------------------------------------------
 Center     Atomic      Atomic             Coordinates (Angstroms)
 Number     Number       Type             X           Y           Z
 ---------------------------------------------------------------------
      1          7           0        3.135403   -1.707786    0.367137
      2          1           0        3.115746   -2.385827   -0.401109
      3          1           0        3.072792   -0.798732   -0.107697
      4          6           0        1.805440   -1.812291    1.046684
      5          1           0        1.810124   -1.111232    1.879560
      6          6           0        0.812678   -1.341250   -0.043582
      7          6           0        1.536528   -3.229293    1.555638
      8          1           0        2.300364   -3.492960    2.297354
      9          1           0        1.640212   -3.932124    0.719720
     10          8           0        0.883929   -1.838700   -1.163402
     11          6           0        0.128834   -3.429735    2.152661
     12          1           0        0.012644   -4.460826    2.494258
     13          1           0       -0.626266   -3.267239    1.371522
     14          6           0       -0.218636   -2.485428    3.287565
     15          8           0       -0.032961   -1.280717    3.287812
     16          8           0       -0.799453   -3.125041    4.316616
     17          7           0        0.010878   -0.277041    0.267539
     18          1           0        0.097089    0.035165    1.228373
     19          6           0       -0.151277    0.795616   -0.718602
     20          1           0       -0.696931    1.593607   -0.201128
     21          6           0        1.270272    1.376800   -1.013641
     22          6           0       -0.994272    0.369988   -1.949638
     23          1           0       -0.385286   -0.251133   -2.609767
     24          1           0       -1.778842   -0.286581   -1.555441
     25          8           0        2.229597    1.069839   -0.286591
     26          6           0       -1.625233    1.515296   -2.719627
     27          6           0       -1.347647    1.711128   -4.081579
     28          1           0       -0.646174    1.049264   -4.584326
     29          6           0       -2.552710    2.376865   -2.114150
     30          1           0       -2.818287    2.241047   -1.067370
     31          6           0       -1.957641    2.726008   -4.813299
     32          1           0       -1.736466    2.871999   -5.865247
     33          6           0       -3.170861    3.398055   -2.831015
     34          1           0       -3.891645    4.049308   -2.340395
     35          8           0       -3.442165    4.554133   -4.948615
     36          1           0       -4.076122    5.056466   -4.413048
     37          6           0       -2.874202    3.577141   -4.188566
     38          7           0        1.403438    2.251832   -2.026451
     39          1           0        0.608847    2.488782   -2.618884
     40          6           0        2.631828    3.011470   -2.264520
     41          1           0        2.812693    3.676664   -1.408397
     42          6           0        2.350833    3.927891   -3.454490
     43          6           0        3.915885    2.144105   -2.479769
     44          1           0        3.586606    1.143860   -2.776519
     45          1           0        4.477481    2.551461   -3.324501
     46          8           0        1.322775    3.936396   -4.091779
     47          6           0        4.832507    2.079467   -1.229516
     48          1           0        4.260885    2.433185   -0.368296
     49          1           0        5.681632    2.761499   -1.351436
     50          6           0        5.344154    0.657436   -0.906247
     51          1           0        4.584299   -0.061114   -1.227759
     52          1           0        6.256959    0.423642   -1.469293
     53          6           0        5.590516    0.481337    0.595849
     54          1           0        6.514699    0.964041    0.924510
     55          1           0        4.756208    0.893703    1.168568
     56          7           0        5.659216   -0.981605    0.986927
     57          1           0        5.952031   -1.091868    1.962213
     58          1           0        6.332398   -1.493292    0.408390
     59          1           0        4.640158   -1.439719    0.864871
     60          8           0        3.391417    4.747383   -3.692831
     61          1           0       -1.034620   -2.449743    4.982653
     62          1           0        3.144953    5.312316   -4.450425
 ---------------------------------------------------------------------

 SCF Done:  E(RB3LYP) =  -1526.21402816     A.U. after    1 cycles

 Alpha  occ. eigenvalues --  -19.29587 -19.29010 -19.24315 -19.24157 -19.23634
 Alpha  occ. eigenvalues --  -19.22530 -19.21578 -14.57007 -14.46325 -14.46304
 Alpha  occ. eigenvalues --  -14.44785 -10.42214 -10.41891 -10.39412 -10.38251
 Alpha  occ. eigenvalues --  -10.37794 -10.34670 -10.33503 -10.33189 -10.32021
 Alpha  occ. eigenvalues --  -10.31794 -10.30046 -10.29891 -10.29660 -10.29641
 Alpha  occ. eigenvalues --  -10.27241 -10.26536 -10.26479 -10.26130 -10.26034
 Alpha  occ. eigenvalues --  -10.25209  -1.20691  -1.20053  -1.14494  -1.13114
 Alpha  occ. eigenvalues --   -1.12469  -1.11849  -1.11632  -1.10897  -1.02740
 Alpha  occ. eigenvalues --   -1.01975  -1.01657  -0.92703  -0.92424  -0.89916
 Alpha  occ. eigenvalues --   -0.88725  -0.86317  -0.82701  -0.81956  -0.81769
 Alpha  occ. eigenvalues --   -0.80131  -0.76614  -0.74861  -0.73813  -0.72222
 Alpha  occ. eigenvalues --   -0.71471  -0.69867  -0.69288  -0.68863  -0.68713
 Alpha  occ. eigenvalues --   -0.67861  -0.66667  -0.65719  -0.63025  -0.61998
 Alpha  occ. eigenvalues --   -0.61713  -0.61601  -0.61146  -0.59597  -0.59112
 Alpha  occ. eigenvalues --   -0.58939  -0.58149  -0.57363  -0.57103  -0.56458
 Alpha  occ. eigenvalues --   -0.55979  -0.55743  -0.54985  -0.54214  -0.53965
 Alpha  occ. eigenvalues --   -0.53221  -0.52738  -0.52499  -0.51899  -0.51373
 Alpha  occ. eigenvalues --   -0.51093  -0.50392  -0.49860  -0.49373  -0.49080
 Alpha  occ. eigenvalues --   -0.48817  -0.48400  -0.47872  -0.47476  -0.46842
 Alpha  occ. eigenvalues --   -0.46471  -0.45944  -0.45695  -0.45361  -0.45124
 Alpha  occ. eigenvalues --   -0.44845  -0.44298  -0.43547  -0.42786  -0.41699
 Alpha  occ. eigenvalues --   -0.41311  -0.41134  -0.40515  -0.39727  -0.37773
 Alpha  occ. eigenvalues --   -0.37074  -0.36366  -0.36259  -0.35589  -0.34246
 Alpha  occ. eigenvalues --   -0.32177  -0.28685
 Alpha virt. eigenvalues --   -0.09937  -0.09483  -0.09124  -0.08682  -0.08428
 Alpha virt. eigenvalues --   -0.07308  -0.06027  -0.04000  -0.03412  -0.01678
 Alpha virt. eigenvalues --   -0.01481  -0.01205  -0.00704   0.00591   0.00748

 Mulliken charges:
               1
     1  N   -0.840611
     2  H    0.342696
     3  H    0.394870
     4  C   -0.028435
     5  H    0.181038
     6  C    0.557719
     7  C   -0.275282
     8  H    0.156930
     9  H    0.170500
    10  O   -0.515284
    11  C   -0.373418
    12  H    0.197133
    13  H    0.206899
    14  C    0.594550
    15  O   -0.482431
    16  O   -0.542645
    17  N   -0.567964
    18  H    0.356357
    19  C   -0.092761
    20  H    0.184809
    21  C    0.632544
    22  C   -0.350184
    23  H    0.186227
    24  H    0.181911
    25  O   -0.578871
    26  C    0.117228
    27  C   -0.200149
    28  H    0.137386
    29  C   -0.188744
    30  H    0.130890
    31  C   -0.136696
    32  H    0.156227
    33  C   -0.188826
    34  H    0.133699
    35  O   -0.631226
    36  H    0.414572
    37  C    0.353888
    38  N   -0.642259
    39  H    0.394215
    40  C   -0.003237
    41  H    0.195727
    42  C    0.562108
    43  C   -0.285488
    44  H    0.167281
    45  H    0.184468
    46  O   -0.442655
    47  C   -0.266645
    48  H    0.169272
    49  H    0.163282
    50  C   -0.290524
    51  H    0.157367
    52  H    0.166596
    53  C   -0.192022
    54  H    0.205439
    55  H    0.218508
    56  N   -0.766862
    57  H    0.396968
    58  H    0.391902
    59  H    0.428987
    60  O   -0.561991
    61  H    0.422443
    62  H    0.432574
 Sum of Mulliken charges =   1.00000

 Dipole moment (field-independent basis, Debye):
    X=             17.4341    Y=              1.2412    Z=              2.5501  Tot=             17.6633
 Quadrupole moment (field-independent basis, Debye-Ang):
   XX=            -53.3749   YY=           -137.7809   ZZ=           -153.8792
   XY=            -15.4880   XZ=              3.4960   YZ=            -28.1153

 Normal termination of Gaussian 16 at Tue May 24 03:09:49 2022.
