 Gaussian 16, Revision C.01,
 Gaussian 16:  ES64L-G16RevC.01  3-Jul-2019

 -------------------------------------------------------------------
 # B3LYP/6-31G* guess=read geom=check nosymm integral(ultrafinegrid)
 -------------------------------------------------------------------

 ------------------------------------------------------
 Candidate Structure: Conf:315 Charge calc in gas phase
 ------------------------------------------------------
 Structure from the checkpoint file:  "conf-315.chk"
 Charge =  1 Multiplicity = 1

                          Input orientation:
 ---------------------------------------------------------------------
 Center     Atomic      Atomic             Coordinates (Angstroms)
 Number     Number       Type             X           Y           Z
 ---------------------------------------------------------------------
      1          7           0       -3.305594   -1.949367    1.463335
      2          1           0       -3.814945   -1.084498    1.284455
      3          1           0       -3.374506   -2.514099    0.618259
      4          6           0       -1.910692   -1.633626    1.777363
      5          1           0       -1.381822   -2.586646    1.920683
      6          6           0       -1.251762   -0.854578    0.630467
      7          6           0       -1.860303   -0.826453    3.082362
      8          1           0       -2.402086   -1.394012    3.843488
      9          1           0       -2.405315    0.112644    2.935573
     10          8           0       -1.610227    0.285410    0.319907
     11          6           0       -0.441904   -0.513912    3.563208
     12          1           0        0.078619    0.159865    2.872105
     13          1           0        0.169608   -1.424452    3.636561
     14          6           0       -0.433186    0.145251    4.927731
     15          8           0       -1.401081    0.356161    5.620456
     16          8           0        0.828194    0.477694    5.305197
     17          7           0       -0.274622   -1.498029   -0.080340
     18          1           0        0.047967   -2.409208    0.218432
     19          6           0        0.293247   -0.918060   -1.296731
     20          1           0       -0.519464   -0.340208   -1.751310
     21          6           0        1.421594    0.084625   -0.969517
     22          6           0        0.760191   -2.028674   -2.252095
     23          1           0        1.552063   -2.608043   -1.764537
     24          1           0       -0.091908   -2.706892   -2.390944
     25          8           0        2.597240   -0.097796   -1.355923
     26          6           0        1.260164   -1.561518   -3.608858
     27          6           0        0.590711   -0.584190   -4.364283
     28          1           0       -0.317472   -0.125333   -3.980585
     29          6           0        2.401793   -2.143754   -4.173923
     30          1           0        2.939980   -2.910505   -3.622378
     31          6           0        1.043668   -0.192251   -5.624147
     32          1           0        0.503218    0.543983   -6.211149
     33          6           0        2.867293   -1.773296   -5.440766
     34          1           0        3.738134   -2.268998   -5.865915
     35          8           0        2.567941   -0.384117   -7.416425
     36          1           0        3.249879   -0.977616   -7.770160
     37          6           0        2.179901   -0.797939   -6.179728
     38          7           0        1.062409    1.165571   -0.267575
     39          1           0        0.096801    1.254450    0.067478
     40          6           0        2.052135    2.156761    0.136522
     41          1           0        2.883135    1.630910    0.624280
     42          6           0        1.419477    3.039657    1.206225
     43          6           0        2.624584    2.956439   -1.074901
     44          1           0        2.138452    2.561895   -1.973306
     45          1           0        2.318650    4.005427   -1.014564
     46          8           0        0.314973    2.873173    1.669343
     47          6           0        4.161168    2.877898   -1.196053
     48          1           0        4.506854    1.901110   -0.834452
     49          1           0        4.604124    3.622297   -0.526640
     50          6           0        4.691667    3.101346   -2.629850
     51          1           0        4.035209    3.781916   -3.189025
     52          1           0        5.668919    3.596275   -2.595423
     53          6           0        4.920788    1.817244   -3.431188
     54          1           0        5.291399    2.036320   -4.435899
     55          1           0        5.642978    1.167853   -2.929093
     56          7           0        3.670207    0.987567   -3.594541
     57          1           0        3.821918    0.147256   -4.172782
     58          1           0        2.920898    1.509881   -4.059302
     59          1           0        3.284693    0.635519   -2.673005
     60          8           0        2.264461    4.015468    1.583587
     61          1           0        0.747229    0.870049    6.195433
     62          1           0        1.822986    4.528725    2.288036
 ---------------------------------------------------------------------

 SCF Done:  E(RB3LYP) =  -1526.22358910     A.U. after    1 cycles

 Alpha  occ. eigenvalues --  -19.30784 -19.29276 -19.25850 -19.25308 -19.25233
 Alpha  occ. eigenvalues --  -19.21997 -19.20262 -14.57723 -14.48157 -14.47563
 Alpha  occ. eigenvalues --  -14.39940 -10.43423 -10.41722 -10.38634 -10.38604
 Alpha  occ. eigenvalues --  -10.38509 -10.37180 -10.36026 -10.35563 -10.32892
 Alpha  occ. eigenvalues --  -10.31691 -10.31496 -10.31288 -10.31259 -10.31243
 Alpha  occ. eigenvalues --  -10.31232 -10.31179 -10.31159 -10.30612 -10.27479
 Alpha  occ. eigenvalues --  -10.25968  -1.21805  -1.17491  -1.16705  -1.16679
 Alpha  occ. eigenvalues --   -1.13879  -1.12995  -1.12659  -1.07783  -1.04956
 Alpha  occ. eigenvalues --   -1.03386  -0.97506  -0.97229  -0.93783  -0.90910
 Alpha  occ. eigenvalues --   -0.89692  -0.86864  -0.86750  -0.85271  -0.83810
 Alpha  occ. eigenvalues --   -0.79166  -0.78276  -0.77393  -0.74282  -0.73492
 Alpha  occ. eigenvalues --   -0.73227  -0.71537  -0.71235  -0.70819  -0.70069
 Alpha  occ. eigenvalues --   -0.69621  -0.68316  -0.66288  -0.65639  -0.64319
 Alpha  occ. eigenvalues --   -0.63468  -0.61825  -0.60577  -0.60339  -0.59916
 Alpha  occ. eigenvalues --   -0.59191  -0.58942  -0.58164  -0.57853  -0.57262
 Alpha  occ. eigenvalues --   -0.56502  -0.56277  -0.55899  -0.55121  -0.54886
 Alpha  occ. eigenvalues --   -0.54540  -0.54176  -0.53967  -0.53844  -0.52998
 Alpha  occ. eigenvalues --   -0.52353  -0.52031  -0.51328  -0.51220  -0.51061
 Alpha  occ. eigenvalues --   -0.50498  -0.49980  -0.49404  -0.48816  -0.47889
 Alpha  occ. eigenvalues --   -0.47129  -0.46800  -0.46643  -0.46360  -0.46025
 Alpha  occ. eigenvalues --   -0.45856  -0.45285  -0.44428  -0.43944  -0.42955
 Alpha  occ. eigenvalues --   -0.42698  -0.41879  -0.40179  -0.38820  -0.38528
 Alpha  occ. eigenvalues --   -0.38110  -0.37697  -0.36782  -0.36202  -0.33880
 Alpha  occ. eigenvalues --   -0.33682  -0.31653
 Alpha virt. eigenvalues --   -0.13140  -0.11796  -0.11187  -0.10058  -0.08949
 Alpha virt. eigenvalues --   -0.08228  -0.05272  -0.04242  -0.03533  -0.02957
 Alpha virt. eigenvalues --   -0.02781  -0.02463  -0.01784  -0.00439  -0.00167

 Mulliken charges:
               1
     1  N   -0.690104
     2  H    0.321982
     3  H    0.303718
     4  C   -0.069371
     5  H    0.132658
     6  C    0.615665
     7  C   -0.251151
     8  H    0.190302
     9  H    0.177667
    10  O   -0.545399
    11  C   -0.375682
    12  H    0.175286
    13  H    0.169556
    14  C    0.589336
    15  O   -0.445201
    16  O   -0.577732
    17  N   -0.617455
    18  H    0.342898
    19  C   -0.059475
    20  H    0.197525
    21  C    0.639040
    22  C   -0.367352
    23  H    0.167045
    24  H    0.185309
    25  O   -0.597434
    26  C    0.174154
    27  C   -0.210165
    28  H    0.157125
    29  C   -0.202644
    30  H    0.157559
    31  C   -0.193755
    32  H    0.173679
    33  C   -0.248453
    34  H    0.153463
    35  O   -0.624570
    36  H    0.423411
    37  C    0.348022
    38  N   -0.626938
    39  H    0.419202
    40  C   -0.010213
    41  H    0.209594
    42  C    0.572309
    43  C   -0.284835
    44  H    0.125312
    45  H    0.190140
    46  O   -0.437584
    47  C   -0.295316
    48  H    0.162866
    49  H    0.189597
    50  C   -0.292631
    51  H    0.168519
    52  H    0.195134
    53  C   -0.193327
    54  H    0.206545
    55  H    0.211755
    56  N   -0.788655
    57  H    0.403442
    58  H    0.394324
    59  H    0.471625
    60  O   -0.562229
    61  H    0.415467
    62  H    0.436437
 Sum of Mulliken charges =   1.00000

 Dipole moment (field-independent basis, Debye):
    X=             16.5398    Y=              2.6333    Z=            -14.0307  Tot=             21.8486
 Quadrupole moment (field-independent basis, Debye-Ang):
   XX=           -120.9459   YY=           -142.0589   ZZ=           -110.1647
   XY=             21.5602   XZ=            -41.9644   YZ=              4.1273

 Normal termination of Gaussian 16 at Tue May 24 03:09:58 2022.
