 Gaussian 16, Revision C.01,
 Gaussian 16:  ES64L-G16RevC.01  3-Jul-2019

 ----------------------------------------------------------------------
 # B3LYP/6-31G* empiricaldispersion=gd3 guess=read geom=check nosymm in
 tegral(ultrafinegrid)
 ----------------------------------------------------------------------

 ------------------------------------------------------
 Candidate Structure: Conf:950 Charge calc in gas phase
 ------------------------------------------------------
 Structure from the checkpoint file:  "conf-950.chk"
 Charge =  1 Multiplicity = 1

                          Input orientation:
 ---------------------------------------------------------------------
 Center     Atomic      Atomic             Coordinates (Angstroms)
 Number     Number       Type             X           Y           Z
 ---------------------------------------------------------------------
      1          7           0       -7.028733    2.820379    3.724172
      2          1           0       -7.287807    3.421072    4.512180
      3          1           0       -7.881025    2.535916    3.234535
      4          1           0       -6.373867    3.364686    3.079343
      5          6           0       -6.142094    1.664364    4.132168
      6          1           0       -6.236152    1.484303    5.203437
      7          6           0       -4.732883    2.162180    3.716704
      8          6           0       -6.509046    0.397010    3.343997
      9          1           0       -7.578961    0.178470    3.464598
     10          1           0       -6.289357    0.534382    2.281352
     11          8           0       -4.681855    3.119692    2.932996
     12          6           0       -5.732554   -0.802723    3.908373
     13          7           0       -5.632120   -1.870697    3.090179
     14          1           0       -5.063529   -2.638863    3.426537
     15          1           0       -5.654355   -1.735855    2.087966
     16          8           0       -5.306729   -0.780412    5.063897
     17          7           0       -3.690666    1.475630    4.185995
     18          1           0       -3.916074    0.655943    4.745009
     19          6           0       -2.447511    1.438932    3.419648
     20          1           0       -2.113557    2.471124    3.272002
     21          6           0       -2.763700    0.820540    2.029004
     22          6           0       -1.353469    0.646469    4.178951
     23          1           0       -0.459048    0.698674    3.543223
     24          8           0       -3.835663    0.248879    1.798828
     25          6           0       -1.717498   -0.846757    4.338228
     26          1           0       -2.039056   -1.241931    3.365792
     27          1           0       -2.579566   -0.958193    5.011412
     28          6           0       -1.027164    1.330364    5.514769
     29          1           0       -1.866644    1.256121    6.215770
     30          1           0       -0.156875    0.868109    5.987717
     31          1           0       -0.801886    2.392929    5.371011
     32          6           0       -0.559812   -1.703093    4.863934
     33          1           0       -0.839896   -2.761372    4.881946
     34          1           0        0.325758   -1.602425    4.225104
     35          1           0       -0.273295   -1.423439    5.882488
     36          7           0       -1.773947    0.934510    1.131918
     37          1           0       -0.919640    1.445270    1.336731
     38          6           0       -1.861379    0.432618   -0.231475
     39          1           0       -2.230940   -0.598482   -0.203695
     40          6           0       -0.443092    0.496016   -0.810993
     41          6           0       -2.793491    1.301146   -1.102485
     42          1           0       -2.882487    0.881606   -2.109964
     43          1           0       -3.785091    1.330310   -0.644366
     44          1           0       -2.398575    2.319289   -1.185088
     45          8           0        0.399478    1.254874   -0.309314
     46          7           0       -0.230764   -0.237986   -1.918627
     47          1           0       -0.996224   -0.759833   -2.338620
     48          6           0        0.842403    0.054497   -2.879799
     49          1           0        1.791658    0.151547   -2.348081
     50          6           0        0.456409    1.380549   -3.553985
     51          6           0        0.905141   -1.085411   -3.915779
     52          1           0        1.559966   -0.732322   -4.723338
     53          8           0       -0.235670    1.416553   -4.582455
     54          6           0        1.446170   -2.380994   -3.331650
     55          1           0        2.477354   -2.249433   -2.987315
     56          1           0        1.426066   -3.162163   -4.096630
     57          1           0        0.834630   -2.714001   -2.486130
     58          8           0       -0.413588   -1.338545   -4.403399
     59          1           0       -0.673907   -0.508737   -4.852552
     60          7           0        0.813672    2.476914   -2.864230
     61          1           0        1.492919    2.361781   -2.123052
     62          6           0        0.476787    3.839112   -3.268306
     63          1           0       -0.477002    3.783139   -3.800724
     64          6           0        1.610256    4.302055   -4.204455
     65          6           0        0.330194    4.697561   -2.006612
     66          1           0       -0.053913    5.683149   -2.280470
     67          1           0        1.320330    4.847885   -1.554499
     68          8           0        2.496068    5.057845   -3.832746
     69          8           0       -0.594679    4.127107   -1.086064
     70          1           0       -0.202943    3.302891   -0.747543
     71          7           0        1.569807    3.699245   -5.437660
     72          1           0        0.870747    2.966917   -5.536054
     73          6           0        2.806639    3.467257   -6.150437
     74          1           0        2.640443    3.514158   -7.232907
     75          1           0        3.504964    4.265957   -5.882703
     76          6           0        3.420399    2.102977   -5.765649
     77          8           0        3.005693    1.439638   -4.811874
     78          7           0        4.448308    1.705117   -6.543820
     79          1           0        4.757304    2.253658   -7.339286
     80          6           0        5.178151    0.468925   -6.312774
     81          1           0        5.332582    0.341895   -5.238848
     82          6           0        6.525054    0.561448   -7.009850
     83          6           0        4.398019   -0.769422   -6.867470
     84          1           0        3.622384   -1.000514   -6.130358
     85          1           0        3.878787   -0.445590   -7.777673
     86          8           0        7.431302   -0.213440   -6.430732
     87          6           0        5.245378   -2.023876   -7.179745
     88          1           0        6.031549   -2.128754   -6.426288
     89          1           0        4.604551   -2.907431   -7.078649
     90          6           0        5.858856   -2.020186   -8.609898
     91          1           0        5.852519   -1.004907   -9.024075
     92          1           0        5.205492   -2.604885   -9.267933
     93          6           0        7.289039   -2.579494   -8.741726
     94          1           0        7.457944   -3.373655   -8.005552
     95          1           0        7.414878   -3.031093   -9.735916
     96          7           0        8.320228   -1.533091   -8.513414
     97          1           0        9.254343   -1.936096   -8.573768
     98          1           0        8.012534   -0.628909   -7.175652
     99          1           0        8.256289   -0.823198   -9.244082
    100          8           0        6.681531    1.183858   -8.050064
 ---------------------------------------------------------------------

 SCF Done:  E(RB3LYP) =  -2418.58516533     A.U. after    1 cycles

 Alpha  occ. eigenvalues --  -19.26860 -19.24327 -19.22226 -19.21750 -19.20981
 Alpha  occ. eigenvalues --  -19.20332 -19.20248 -19.19651 -19.18059 -19.17401
 Alpha  occ. eigenvalues --  -19.17216 -14.60377 -14.48541 -14.47429 -14.45896
 Alpha  occ. eigenvalues --  -14.45246 -14.43396 -14.41486 -14.40595 -14.40273
 Alpha  occ. eigenvalues --  -10.43254 -10.42259 -10.40813 -10.39121 -10.38483
 Alpha  occ. eigenvalues --  -10.36355 -10.35900 -10.34785 -10.34509 -10.34117
 Alpha  occ. eigenvalues --  -10.34111 -10.33015 -10.30654 -10.30303 -10.29643
 Alpha  occ. eigenvalues --  -10.29215 -10.29117 -10.28451 -10.28213 -10.27525
 Alpha  occ. eigenvalues --  -10.27387 -10.26444 -10.26401 -10.25525 -10.24274
 Alpha  occ. eigenvalues --  -10.23862 -10.23745 -10.23569  -1.19442  -1.16103
 Alpha  occ. eigenvalues --   -1.14380  -1.13824  -1.13342  -1.13189  -1.11441
 Alpha  occ. eigenvalues --   -1.09367  -1.08647  -1.07794  -1.07443  -1.05930
 Alpha  occ. eigenvalues --   -1.04834  -1.02762  -1.02496  -1.01567  -0.99863
 Alpha  occ. eigenvalues --   -0.97972  -0.97251  -0.95748  -0.94001  -0.90992
 Alpha  occ. eigenvalues --   -0.87358  -0.85369  -0.84799  -0.83874  -0.82557
 Alpha  occ. eigenvalues --   -0.82034  -0.80951  -0.79543  -0.77898  -0.77273
 Alpha  occ. eigenvalues --   -0.74863  -0.74536  -0.74472  -0.74092  -0.72676
 Alpha  occ. eigenvalues --   -0.71955  -0.70706  -0.69749  -0.68932  -0.68110
 Alpha  occ. eigenvalues --   -0.67605  -0.67209  -0.66830  -0.65975  -0.65408
 Alpha  occ. eigenvalues --   -0.65312  -0.64903  -0.64420  -0.63663  -0.63263
 Alpha  occ. eigenvalues --   -0.62628  -0.62339  -0.60444  -0.59704  -0.59162
 Alpha  occ. eigenvalues --   -0.59053  -0.58542  -0.57854  -0.57659  -0.56779
 Alpha  occ. eigenvalues --   -0.56359  -0.56247  -0.55762  -0.55306  -0.54882
 Alpha  occ. eigenvalues --   -0.54480  -0.54374  -0.54227  -0.53744  -0.53572
 Alpha  occ. eigenvalues --   -0.53435  -0.52876  -0.52647  -0.52514  -0.52067
 Alpha  occ. eigenvalues --   -0.51411  -0.51020  -0.50864  -0.50623  -0.50428
 Alpha  occ. eigenvalues --   -0.50049  -0.49790  -0.49538  -0.49361  -0.49041
 Alpha  occ. eigenvalues --   -0.48418  -0.48231  -0.47888  -0.47519  -0.46981
 Alpha  occ. eigenvalues --   -0.46742  -0.46699  -0.46476  -0.46247  -0.46117
 Alpha  occ. eigenvalues --   -0.45691  -0.45518  -0.45087  -0.44836  -0.44593
 Alpha  occ. eigenvalues --   -0.44378  -0.44021  -0.43913  -0.42823  -0.42669
 Alpha  occ. eigenvalues --   -0.42524  -0.41950  -0.41771  -0.41599  -0.41578
 Alpha  occ. eigenvalues --   -0.41207  -0.41026  -0.39881  -0.39717  -0.39109
 Alpha  occ. eigenvalues --   -0.39013  -0.38992  -0.38590  -0.38262  -0.38021
 Alpha  occ. eigenvalues --   -0.36979  -0.36296  -0.35692  -0.35187  -0.34503
 Alpha  occ. eigenvalues --   -0.34112  -0.33705  -0.33333  -0.32632  -0.32520
 Alpha  occ. eigenvalues --   -0.32067  -0.31617  -0.30460  -0.30329  -0.29628
 Alpha virt. eigenvalues --   -0.12494  -0.11355  -0.10748  -0.08420  -0.07754
 Alpha virt. eigenvalues --   -0.06268  -0.05606  -0.04278  -0.03485  -0.03359
 Alpha virt. eigenvalues --   -0.02401  -0.02252  -0.01199  -0.00657   0.00134

 Mulliken charges:
               1
     1  N   -0.760835
     2  H    0.419765
     3  H    0.413189
     4  H    0.434459
     5  C   -0.116489
     6  H    0.238934
     7  C    0.654200
     8  C   -0.386411
     9  H    0.200384
    10  H    0.216573
    11  O   -0.536184
    12  C    0.630940
    13  N   -0.718100
    14  H    0.364849
    15  H    0.366881
    16  O   -0.521281
    17  N   -0.601377
    18  H    0.394909
    19  C   -0.076834
    20  H    0.195967
    21  C    0.659750
    22  C   -0.110109
    23  H    0.151281
    24  O   -0.590185
    25  C   -0.293122
    26  H    0.145515
    27  H    0.150538
    28  C   -0.453850
    29  H    0.151011
    30  H    0.175700
    31  H    0.157907
    32  C   -0.452019
    33  H    0.158266
    34  H    0.155557
    35  H    0.162810
    36  N   -0.610375
    37  H    0.363470
    38  C   -0.039061
    39  H    0.172189
    40  C    0.633424
    41  C   -0.471897
    42  H    0.163086
    43  H    0.172516
    44  H    0.197923
    45  O   -0.563468
    46  N   -0.597730
    47  H    0.353774
    48  C   -0.074004
    49  H    0.186506
    50  C    0.672313
    51  C    0.094244
    52  H    0.178251
    53  O   -0.580683
    54  C   -0.453040
    55  H    0.154149
    56  H    0.171353
    57  H    0.147693
    58  O   -0.655599
    59  H    0.421532
    60  N   -0.588532
    61  H    0.356349
    62  C   -0.092976
    63  H    0.186410
    64  C    0.616238
    65  C   -0.061768
    66  H    0.171360
    67  H    0.158769
    68  O   -0.507534
    69  O   -0.641147
    70  H    0.410101
    71  N   -0.580687
    72  H    0.361518
    73  C   -0.258960
    74  H    0.174622
    75  H    0.220983
    76  C    0.613443
    77  O   -0.550236
    78  N   -0.609490
    79  H    0.350423
    80  C    0.004115
    81  H    0.182245
    82  C    0.573097
    83  C   -0.288454
    84  H    0.166221
    85  H    0.149373
    86  O   -0.601021
    87  C   -0.284919
    88  H    0.169254
    89  H    0.141809
    90  C   -0.291716
    91  H    0.165142
    92  H    0.150136
    93  C   -0.140844
    94  H    0.161232
    95  H    0.147623
    96  N   -0.778647
    97  H    0.332540
    98  H    0.456672
    99  H    0.343118
   100  O   -0.505018
 Sum of Mulliken charges =   1.00000

 Dipole moment (field-independent basis, Debye):
    X=            -18.8887    Y=              0.9491    Z=              6.5843  Tot=             20.0259
 Quadrupole moment (field-independent basis, Debye-Ang):
   XX=            -59.2509   YY=           -266.8811   ZZ=           -148.6205
   XY=            -78.8595   XZ=           -147.5161   YZ=             55.3742

 Normal termination of Gaussian 16 at Mon Jun  6 08:10:45 2022.
