 Gaussian 16, Revision C.01,
 Gaussian 16:  ES64L-G16RevC.01  3-Jul-2019

 ----------------------------------------------------------------------
 # B3LYP/6-31G* empiricaldispersion=gd3 guess=read geom=check nosymm in
 tegral(ultrafinegrid)
 ----------------------------------------------------------------------

 ------------------------------------------------------
 Candidate Structure: Conf:883 Charge calc in gas phase
 ------------------------------------------------------
 Structure from the checkpoint file:  "conf-883.chk"
 Charge =  1 Multiplicity = 1

                          Input orientation:
 ---------------------------------------------------------------------
 Center     Atomic      Atomic             Coordinates (Angstroms)
 Number     Number       Type             X           Y           Z
 ---------------------------------------------------------------------
      1          7           0       -6.744658    0.863762    6.342792
      2          1           0       -6.085095    0.398151    6.972795
      3          1           0       -7.741224    0.586327    6.564678
      4          1           0       -6.563357    1.883308    6.407829
      5          6           0       -6.508254    0.499685    4.899939
      6          1           0       -6.261700   -0.564303    4.857761
      7          6           0       -5.349379    1.416251    4.439729
      8          6           0       -7.786144    0.796894    4.091208
      9          1           0       -7.991233    1.875226    4.138441
     10          1           0       -7.590057    0.554934    3.042562
     11          8           0       -5.202240    2.486498    5.037894
     12          6           0       -9.009520    0.061603    4.647961
     13          7           0       -9.900042   -0.407840    3.762159
     14          1           0      -10.741326   -0.853322    4.110125
     15          1           0       -9.790332   -0.307526    2.762855
     16          8           0       -9.161909   -0.059988    5.873186
     17          7           0       -4.650639    0.988434    3.392397
     18          1           0       -4.786846    0.067030    2.978449
     19          6           0       -3.534510    1.723733    2.790674
     20          1           0       -3.825831    2.774476    2.711020
     21          6           0       -3.373941    1.081024    1.403119
     22          6           0       -2.245626    1.621732    3.668841
     23          1           0       -2.513678    2.129430    4.606132
     24          8           0       -3.661457   -0.110434    1.253823
     25          6           0       -1.046367    2.372939    3.055229
     26          1           0       -0.752399    1.914653    2.104369
     27          1           0       -0.195425    2.219743    3.730648
     28          6           0       -1.871705    0.165631    3.977901
     29          1           0       -1.583976   -0.373454    3.070083
     30          1           0       -1.024782    0.138791    4.671078
     31          1           0       -2.697029   -0.384379    4.443726
     32          6           0       -1.245480    3.882877    2.870152
     33          1           0       -0.344643    4.336398    2.445755
     34          1           0       -2.074335    4.132866    2.193007
     35          1           0       -1.458559    4.376683    3.825508
     36          7           0       -2.943913    1.882638    0.403040
     37          1           0       -2.528397    2.771816    0.657368
     38          6           0       -2.466774    1.312777   -0.864094
     39          1           0       -3.146882    0.496737   -1.119515
     40          6           0       -1.040568    0.792274   -0.620397
     41          6           0       -2.458109    2.384929   -1.953483
     42          1           0       -2.142648    1.948218   -2.906102
     43          1           0       -3.455243    2.817529   -2.079701
     44          1           0       -1.745239    3.175265   -1.696183
     45          8           0       -0.167749    1.564803   -0.211465
     46          7           0       -0.825260   -0.511612   -0.864144
     47          1           0       -1.564046   -1.129697   -1.181363
     48          6           0        0.436458   -1.170678   -0.542666
     49          1           0        0.921558   -0.587146    0.247028
     50          6           0        1.345056   -1.167648   -1.787849
     51          6           0        0.140188   -2.608547   -0.073140
     52          1           0        1.106592   -3.114425    0.060979
     53          8           0        1.588671   -2.204670   -2.418225
     54          6           0       -0.648945   -2.647187    1.229706
     55          1           0       -0.085394   -2.161828    2.034794
     56          1           0       -0.838677   -3.686918    1.510737
     57          1           0       -1.613356   -2.137639    1.121610
     58          8           0       -0.633404   -3.268879   -1.072437
     59          1           0       -0.029016   -3.347447   -1.837573
     60          7           0        1.807555    0.047039   -2.137976
     61          1           0        1.609295    0.865061   -1.564560
     62          6           0        2.654733    0.263818   -3.308820
     63          1           0        2.344210   -0.439806   -4.088746
     64          6           0        4.130990    0.005330   -2.929872
     65          6           0        2.471151    1.712552   -3.780542
     66          1           0        1.433631    1.862602   -4.098682
     67          1           0        3.126993    1.890264   -4.645045
     68          8           0        4.909134    0.944246   -2.711529
     69          8           0        2.716177    2.623230   -2.723903
     70          1           0        3.659066    2.475538   -2.502247
     71          7           0        4.484117   -1.286609   -2.839875
     72          1           0        3.805462   -2.038546   -2.959474
     73          6           0        5.811548   -1.693055   -2.427251
     74          1           0        6.566860   -1.150097   -3.005328
     75          1           0        5.987703   -1.444785   -1.370511
     76          6           0        5.939310   -3.210923   -2.625618
     77          8           0        4.948237   -3.899066   -2.889916
     78          7           0        7.187153   -3.687114   -2.488488
     79          1           0        7.959448   -3.132214   -2.109395
     80          6           0        7.508484   -5.101919   -2.470664
     81          1           0        6.780444   -5.636800   -1.845147
     82          6           0        8.964069   -5.221258   -1.809624
     83          6           0        7.475332   -5.711147   -3.898514
     84          1           0        6.580964   -5.424056   -4.458919
     85          1           0        8.351319   -5.293821   -4.417502
     86          8           0        9.480029   -6.383074   -1.697491
     87          6           0        7.661171   -7.221810   -3.745791
     88          1           0        8.260784   -7.208519   -2.839131
     89          1           0        6.730810   -7.750839   -3.500986
     90          6           0        8.460246   -7.945044   -4.823575
     91          1           0        9.258743   -7.280851   -5.191180
     92          1           0        7.871246   -8.240313   -5.698755
     93          6           0        9.173270   -9.148171   -4.192478
     94          1           0        8.479194   -9.801613   -3.657852
     95          1           0        9.769901   -9.741308   -4.890710
     96          7           0       10.169453   -8.629435   -3.143896
     97          1           0       10.604555   -9.385209   -2.607436
     98          1           0        9.750964   -7.943378   -2.469605
     99          1           0       10.917126   -8.091357   -3.596222
    100          8           0        9.481185   -4.142790   -1.472186
 ---------------------------------------------------------------------

 SCF Done:  E(RB3LYP) =  -2418.54178813     A.U. after    1 cycles

 Alpha  occ. eigenvalues --  -19.27214 -19.25849 -19.22337 -19.19325 -19.19097
 Alpha  occ. eigenvalues --  -19.17935 -19.17336 -19.15456 -19.13556 -19.11087
 Alpha  occ. eigenvalues --  -19.10030 -14.58542 -14.53055 -14.50611 -14.49319
 Alpha  occ. eigenvalues --  -14.46081 -14.43829 -14.41518 -14.39074 -14.36617
 Alpha  occ. eigenvalues --  -10.44833 -10.43146 -10.41355 -10.39192 -10.36408
 Alpha  occ. eigenvalues --  -10.36238 -10.34656 -10.34101 -10.33589 -10.32361
 Alpha  occ. eigenvalues --  -10.31937 -10.30817 -10.29737 -10.29401 -10.28905
 Alpha  occ. eigenvalues --  -10.28746 -10.27649 -10.27450 -10.26508 -10.26096
 Alpha  occ. eigenvalues --  -10.25953 -10.25852 -10.25569 -10.25311 -10.23731
 Alpha  occ. eigenvalues --  -10.23476 -10.21622 -10.21265  -1.19131  -1.18078
 Alpha  occ. eigenvalues --   -1.14273  -1.12964  -1.11193  -1.09663  -1.07697
 Alpha  occ. eigenvalues --   -1.07425  -1.06742  -1.05845  -1.05543  -1.05310
 Alpha  occ. eigenvalues --   -1.04639  -1.03588  -1.02406  -0.99989  -0.97683
 Alpha  occ. eigenvalues --   -0.95493  -0.95244  -0.94586  -0.93204  -0.90532
 Alpha  occ. eigenvalues --   -0.87087  -0.86344  -0.84777  -0.83438  -0.81587
 Alpha  occ. eigenvalues --   -0.81226  -0.80710  -0.79919  -0.77327  -0.76389
 Alpha  occ. eigenvalues --   -0.75246  -0.73729  -0.73604  -0.73249  -0.72921
 Alpha  occ. eigenvalues --   -0.71559  -0.70502  -0.69476  -0.69029  -0.68408
 Alpha  occ. eigenvalues --   -0.67943  -0.66742  -0.66243  -0.65934  -0.65846
 Alpha  occ. eigenvalues --   -0.65436  -0.65224  -0.64292  -0.63884  -0.62571
 Alpha  occ. eigenvalues --   -0.62523  -0.61853  -0.60571  -0.59358  -0.59148
 Alpha  occ. eigenvalues --   -0.58712  -0.58435  -0.57739  -0.57568  -0.57327
 Alpha  occ. eigenvalues --   -0.56966  -0.56439  -0.56154  -0.55447  -0.55027
 Alpha  occ. eigenvalues --   -0.54742  -0.53824  -0.53762  -0.53113  -0.52904
 Alpha  occ. eigenvalues --   -0.52350  -0.51732  -0.51583  -0.51220  -0.50864
 Alpha  occ. eigenvalues --   -0.50503  -0.50373  -0.50179  -0.50086  -0.49637
 Alpha  occ. eigenvalues --   -0.49144  -0.48999  -0.48656  -0.48206  -0.47969
 Alpha  occ. eigenvalues --   -0.47752  -0.47381  -0.47066  -0.46398  -0.46226
 Alpha  occ. eigenvalues --   -0.45882  -0.45528  -0.45300  -0.45159  -0.44684
 Alpha  occ. eigenvalues --   -0.44483  -0.44269  -0.43935  -0.43566  -0.43291
 Alpha  occ. eigenvalues --   -0.42464  -0.42370  -0.42269  -0.42069  -0.41939
 Alpha  occ. eigenvalues --   -0.41818  -0.41606  -0.41410  -0.41272  -0.40946
 Alpha  occ. eigenvalues --   -0.40427  -0.39825  -0.39045  -0.39023  -0.38729
 Alpha  occ. eigenvalues --   -0.38163  -0.37897  -0.37292  -0.37210  -0.36718
 Alpha  occ. eigenvalues --   -0.35837  -0.35819  -0.34656  -0.32906  -0.32883
 Alpha  occ. eigenvalues --   -0.32548  -0.30659  -0.30340  -0.29198  -0.28381
 Alpha  occ. eigenvalues --   -0.27658  -0.27176  -0.26009  -0.24707  -0.24347
 Alpha virt. eigenvalues --   -0.13094  -0.11853  -0.09403  -0.08455  -0.05928
 Alpha virt. eigenvalues --   -0.05241  -0.04790  -0.04779  -0.03925  -0.02803
 Alpha virt. eigenvalues --   -0.01581  -0.01339  -0.01152  -0.00376   0.00317

 Mulliken charges:
               1
     1  N   -0.747051
     2  H    0.411629
     3  H    0.443374
     4  H    0.416230
     5  C   -0.130335
     6  H    0.215669
     7  C    0.655146
     8  C   -0.395052
     9  H    0.228204
    10  H    0.204619
    11  O   -0.531273
    12  C    0.648451
    13  N   -0.726588
    14  H    0.383461
    15  H    0.371847
    16  O   -0.534348
    17  N   -0.616043
    18  H    0.365661
    19  C   -0.055397
    20  H    0.187131
    21  C    0.625333
    22  C   -0.085403
    23  H    0.154699
    24  O   -0.547301
    25  C   -0.299713
    26  H    0.183231
    27  H    0.157159
    28  C   -0.466094
    29  H    0.180545
    30  H    0.166016
    31  H    0.117874
    32  C   -0.463972
    33  H    0.182569
    34  H    0.122474
    35  H    0.159047
    36  N   -0.595438
    37  H    0.360670
    38  C   -0.063033
    39  H    0.174990
    40  C    0.641113
    41  C   -0.470829
    42  H    0.177493
    43  H    0.166248
    44  H    0.186972
    45  O   -0.549310
    46  N   -0.585013
    47  H    0.355495
    48  C   -0.084151
    49  H    0.183183
    50  C    0.640255
    51  C    0.114299
    52  H    0.155615
    53  O   -0.551450
    54  C   -0.468701
    55  H    0.143435
    56  H    0.168460
    57  H    0.162415
    58  O   -0.652563
    59  H    0.423622
    60  N   -0.606327
    61  H    0.375101
    62  C   -0.085184
    63  H    0.176671
    64  C    0.633990
    65  C   -0.045036
    66  H    0.139428
    67  H    0.149962
    68  O   -0.554675
    69  O   -0.639505
    70  H    0.422506
    71  N   -0.618339
    72  H    0.383970
    73  C   -0.199768
    74  H    0.191665
    75  H    0.181275
    76  C    0.595786
    77  O   -0.547510
    78  N   -0.620705
    79  H    0.356700
    80  C   -0.065776
    81  H    0.151854
    82  C    0.595758
    83  C   -0.254115
    84  H    0.166919
    85  H    0.129191
    86  O   -0.642203
    87  C   -0.316859
    88  H    0.174369
    89  H    0.142500
    90  C   -0.272371
    91  H    0.148589
    92  H    0.177988
    93  C   -0.187109
    94  H    0.204248
    95  H    0.188485
    96  N   -0.757676
    97  H    0.397890
    98  H    0.462425
    99  H    0.402723
   100  O   -0.552410
 Sum of Mulliken charges =   1.00000

 Dipole moment (field-independent basis, Debye):
    X=            -21.4984    Y=            -12.1289    Z=             11.8102  Tot=             27.3637
 Quadrupole moment (field-independent basis, Debye-Ang):
   XX=             53.2807   YY=           -117.0386   ZZ=           -143.9319
   XY=           -180.2762   XZ=           -192.5842   YZ=             78.5074

 Normal termination of Gaussian 16 at Mon Jun  6 08:10:40 2022.
