 Gaussian 16, Revision C.01,
 Gaussian 16:  ES64L-G16RevC.01  3-Jul-2019

 ----------------------------------------------------------------------
 # B3LYP/6-31G* empiricaldispersion=gd3 guess=read geom=check nosymm in
 tegral(ultrafinegrid)
 ----------------------------------------------------------------------

 ------------------------------------------------------
 Candidate Structure: Conf:727 Charge calc in gas phase
 ------------------------------------------------------
 Structure from the checkpoint file:  "conf-727.chk"
 Charge =  1 Multiplicity = 1

                          Input orientation:
 ---------------------------------------------------------------------
 Center     Atomic      Atomic             Coordinates (Angstroms)
 Number     Number       Type             X           Y           Z
 ---------------------------------------------------------------------
      1          7           0       -6.022920    2.443583   -1.941326
      2          1           0       -6.948175    2.349192   -1.516142
      3          1           0       -6.078054    2.406617   -3.016017
      4          1           0       -5.585402    3.304609   -1.568162
      5          6           0       -5.092835    1.319763   -1.562365
      6          1           0       -5.680048    0.399450   -1.505828
      7          6           0       -4.466898    1.729161   -0.217064
      8          6           0       -3.990071    1.212472   -2.629640
      9          1           0       -3.382641    2.127270   -2.594375
     10          1           0       -3.310512    0.382378   -2.406165
     11          8           0       -4.357357    2.934760    0.026102
     12          6           0       -4.560206    1.086888   -4.044370
     13          7           0       -3.874066    0.320843   -4.888066
     14          1           0       -4.212014    0.252026   -5.839558
     15          1           0       -3.038469   -0.201646   -4.567883
     16          8           0       -5.599513    1.706880   -4.368369
     17          7           0       -4.018883    0.732731    0.548736
     18          1           0       -4.142124   -0.243498    0.291258
     19          6           0       -3.135261    0.943680    1.697378
     20          1           0       -2.512623    1.811141    1.462863
     21          6           0       -2.289254   -0.339932    1.761489
     22          6           0       -3.919997    1.231770    3.006316
     23          1           0       -4.511828    2.130838    2.783879
     24          8           0       -2.807563   -1.428823    1.505693
     25          6           0       -2.976373    1.565101    4.179172
     26          1           0       -2.353555    0.689430    4.406481
     27          1           0       -3.603418    1.726380    5.064866
     28          6           0       -4.877575    0.090222    3.372356
     29          1           0       -4.333265   -0.829460    3.608550
     30          1           0       -5.476018    0.368880    4.246023
     31          1           0       -5.567362   -0.135829    2.552218
     32          6           0       -2.088642    2.799577    3.974304
     33          1           0       -1.564442    3.055323    4.900689
     34          1           0       -1.318122    2.649418    3.208578
     35          1           0       -2.684486    3.669694    3.674064
     36          7           0       -0.995503   -0.165570    2.090437
     37          1           0       -0.614554    0.769534    2.200010
     38          6           0        0.021881   -1.202756    1.994765
     39          1           0       -0.154796   -1.971125    2.758613
     40          6           0        1.357832   -0.493945    2.273278
     41          6           0        0.043973   -1.857854    0.593960
     42          1           0        0.876318   -2.560435    0.491475
     43          1           0       -0.892423   -2.395616    0.442107
     44          1           0        0.138213   -1.100305   -0.189809
     45          8           0        1.435478    0.728684    2.339749
     46          7           0        2.463519   -1.307926    2.369253
     47          1           0        2.317023   -2.248326    2.014405
     48          6           0        3.761050   -0.744364    1.937832
     49          1           0        3.951098    0.148428    2.537033
     50          6           0        3.562367   -0.411704    0.454709
     51          6           0        4.877280   -1.765667    2.199217
     52          1           0        4.625520   -2.687441    1.645452
     53          8           0        3.271728   -1.322477   -0.337613
     54          6           0        6.230523   -1.254351    1.723844
     55          1           0        6.238181   -1.109623    0.638574
     56          1           0        7.004616   -1.980581    1.985436
     57          1           0        6.473913   -0.306126    2.215031
     58          8           0        4.986331   -2.017886    3.590655
     59          1           0        4.095614   -2.193750    3.936158
     60          7           0        3.572050    0.890223    0.111978
     61          1           0        3.812934    1.582763    0.811019
     62          6           0        2.792862    1.405223   -1.017834
     63          1           0        1.882693    0.795657   -1.106400
     64          6           0        3.516392    1.307601   -2.375392
     65          6           0        2.393788    2.851845   -0.717406
     66          1           0        1.797676    2.866640    0.200909
     67          1           0        1.774797    3.222918   -1.544064
     68          8           0        3.713161    2.290396   -3.085163
     69          8           0        3.529868    3.664791   -0.485800
     70          1           0        3.975264    3.743466   -1.347964
     71          7           0        3.808543    0.027915   -2.752483
     72          1           0        3.596011   -0.705570   -2.069761
     73          6           0        4.050944   -0.321557   -4.130635
     74          1           0        4.444795    0.555281   -4.653928
     75          1           0        4.793828   -1.120878   -4.212898
     76          6           0        2.788375   -0.773650   -4.881323
     77          8           0        2.922910   -1.266733   -6.033302
     78          7           0        1.641792   -0.585440   -4.250382
     79          1           0        1.649427   -0.214471   -3.296476
     80          6           0        0.257976   -0.781145   -4.669512
     81          1           0       -0.015041    0.031076   -5.359145
     82          6           0       -0.614699   -0.544412   -3.377017
     83          6           0       -0.016803   -2.127873   -5.363061
     84          1           0        0.741882   -2.848614   -5.030654
     85          1           0       -0.977689   -2.503841   -4.999737
     86          8           0       -1.838629   -0.824942   -3.502983
     87          6           0       -0.068169   -2.013588   -6.899120
     88          1           0       -1.021395   -1.545894   -7.170409
     89          1           0        0.715729   -1.328769   -7.243704
     90          6           0        0.066884   -3.361772   -7.637958
     91          1           0       -0.549690   -3.372294   -8.544023
     92          1           0       -0.304797   -4.185422   -7.012459
     93          6           0        1.488953   -3.666341   -8.105009
     94          1           0        1.559970   -4.646366   -8.584837
     95          1           0        1.842988   -2.905463   -8.805800
     96          7           0        2.472677   -3.647030   -6.957970
     97          1           0        3.410678   -3.916050   -7.268897
     98          1           0        2.192345   -4.300367   -6.221327
     99          1           0        2.566620   -2.650902   -6.521356
    100          8           0       -0.022418   -0.080693   -2.379313
 ---------------------------------------------------------------------

 SCF Done:  E(RB3LYP) =  -2418.58761306     A.U. after    1 cycles

 Alpha  occ. eigenvalues --  -19.22707 -19.22601 -19.22405 -19.21592 -19.20928
 Alpha  occ. eigenvalues --  -19.20675 -19.20351 -19.19644 -19.19548 -19.16951
 Alpha  occ. eigenvalues --  -19.16894 -14.56142 -14.54167 -14.46327 -14.44983
 Alpha  occ. eigenvalues --  -14.44928 -14.44514 -14.44278 -14.43796 -14.43140
 Alpha  occ. eigenvalues --  -10.39847 -10.39600 -10.38995 -10.38002 -10.37275
 Alpha  occ. eigenvalues --  -10.37166 -10.36996 -10.36740 -10.36400 -10.35085
 Alpha  occ. eigenvalues --  -10.31769 -10.31463 -10.31355 -10.31310 -10.31186
 Alpha  occ. eigenvalues --  -10.31035 -10.30972 -10.30427 -10.30362 -10.29788
 Alpha  occ. eigenvalues --  -10.28715 -10.28146 -10.26626 -10.24830 -10.24472
 Alpha  occ. eigenvalues --  -10.24183 -10.23892 -10.23789  -1.15137  -1.13825
 Alpha  occ. eigenvalues --   -1.13673  -1.13530  -1.12276  -1.11486  -1.11251
 Alpha  occ. eigenvalues --   -1.10857  -1.10204  -1.08809  -1.08778  -1.07836
 Alpha  occ. eigenvalues --   -1.02829  -1.02811  -1.01414  -1.01184  -1.00746
 Alpha  occ. eigenvalues --   -1.00501  -0.99828  -0.99345  -0.91583  -0.90248
 Alpha  occ. eigenvalues --   -0.88187  -0.87066  -0.86532  -0.84373  -0.83442
 Alpha  occ. eigenvalues --   -0.81534  -0.81446  -0.79263  -0.78971  -0.77727
 Alpha  occ. eigenvalues --   -0.76960  -0.74766  -0.73242  -0.71840  -0.71072
 Alpha  occ. eigenvalues --   -0.70703  -0.70161  -0.69847  -0.69598  -0.69264
 Alpha  occ. eigenvalues --   -0.68421  -0.68397  -0.67156  -0.66711  -0.66361
 Alpha  occ. eigenvalues --   -0.65987  -0.65402  -0.64839  -0.64014  -0.63525
 Alpha  occ. eigenvalues --   -0.62883  -0.62479  -0.61611  -0.61318  -0.60349
 Alpha  occ. eigenvalues --   -0.59680  -0.59396  -0.58657  -0.58187  -0.57504
 Alpha  occ. eigenvalues --   -0.57473  -0.57023  -0.56563  -0.55821  -0.55451
 Alpha  occ. eigenvalues --   -0.55396  -0.55163  -0.54429  -0.54327  -0.53866
 Alpha  occ. eigenvalues --   -0.53543  -0.53154  -0.52988  -0.52601  -0.52387
 Alpha  occ. eigenvalues --   -0.52004  -0.51391  -0.50854  -0.50586  -0.50418
 Alpha  occ. eigenvalues --   -0.49967  -0.49657  -0.49391  -0.49196  -0.49174
 Alpha  occ. eigenvalues --   -0.49076  -0.48802  -0.48480  -0.48277  -0.47925
 Alpha  occ. eigenvalues --   -0.47678  -0.47339  -0.46975  -0.46882  -0.46410
 Alpha  occ. eigenvalues --   -0.46161  -0.46071  -0.45683  -0.45435  -0.45096
 Alpha  occ. eigenvalues --   -0.45023  -0.44983  -0.44588  -0.44087  -0.43674
 Alpha  occ. eigenvalues --   -0.43483  -0.43186  -0.43089  -0.43004  -0.42660
 Alpha  occ. eigenvalues --   -0.42131  -0.40424  -0.40024  -0.39923  -0.39731
 Alpha  occ. eigenvalues --   -0.39189  -0.37806  -0.37398  -0.37303  -0.36695
 Alpha  occ. eigenvalues --   -0.36481  -0.35930  -0.35832  -0.35522  -0.35164
 Alpha  occ. eigenvalues --   -0.34333  -0.33682  -0.33630  -0.33230  -0.32893
 Alpha  occ. eigenvalues --   -0.32653  -0.32486  -0.31482  -0.31317  -0.31133
 Alpha virt. eigenvalues --   -0.09270  -0.08989  -0.08219  -0.07833  -0.07545
 Alpha virt. eigenvalues --   -0.06836  -0.06028  -0.05843  -0.05226  -0.03483
 Alpha virt. eigenvalues --   -0.02517  -0.01220  -0.01164  -0.00415   0.00525

 Mulliken charges:
               1
     1  N   -0.754729
     2  H    0.397467
     3  H    0.443005
     4  H    0.406447
     5  C   -0.125150
     6  H    0.201194
     7  C    0.648360
     8  C   -0.411465
     9  H    0.208298
    10  H    0.253950
    11  O   -0.536950
    12  C    0.625061
    13  N   -0.756400
    14  H    0.346967
    15  H    0.410599
    16  O   -0.572715
    17  N   -0.608064
    18  H    0.365795
    19  C   -0.047982
    20  H    0.178450
    21  C    0.635842
    22  C   -0.082484
    23  H    0.150659
    24  O   -0.548655
    25  C   -0.266616
    26  H    0.144720
    27  H    0.152154
    28  C   -0.456592
    29  H    0.170127
    30  H    0.155896
    31  H    0.134360
    32  C   -0.462760
    33  H    0.164549
    34  H    0.139754
    35  H    0.158412
    36  N   -0.640494
    37  H    0.373551
    38  C   -0.029821
    39  H    0.182741
    40  C    0.610605
    41  C   -0.497828
    42  H    0.146971
    43  H    0.200460
    44  H    0.209724
    45  O   -0.519291
    46  N   -0.621737
    47  H    0.342819
    48  C   -0.070163
    49  H    0.184312
    50  C    0.627351
    51  C    0.136894
    52  H    0.127530
    53  O   -0.575427
    54  C   -0.464209
    55  H    0.154379
    56  H    0.180517
    57  H    0.163360
    58  O   -0.618601
    59  H    0.401914
    60  N   -0.572908
    61  H    0.366034
    62  C   -0.112318
    63  H    0.226111
    64  C    0.605432
    65  C   -0.072320
    66  H    0.167029
    67  H    0.158869
    68  O   -0.520315
    69  O   -0.627348
    70  H    0.416678
    71  N   -0.628731
    72  H    0.384394
    73  C   -0.217492
    74  H    0.228937
    75  H    0.176915
    76  C    0.605678
    77  O   -0.622933
    78  N   -0.600565
    79  H    0.387609
    80  C   -0.039712
    81  H    0.172092
    82  C    0.596422
    83  C   -0.276875
    84  H    0.102170
    85  H    0.188332
    86  O   -0.599732
    87  C   -0.298519
    88  H    0.158911
    89  H    0.171416
    90  C   -0.288142
    91  H    0.185874
    92  H    0.163018
    93  C   -0.192506
    94  H    0.199750
    95  H    0.214792
    96  N   -0.772450
    97  H    0.401242
    98  H    0.391621
    99  H    0.473947
   100  O   -0.567467
 Sum of Mulliken charges =   1.00000

 Dipole moment (field-independent basis, Debye):
    X=             -5.2252    Y=             -9.4153    Z=            -20.3466  Tot=             23.0203
 Quadrupole moment (field-independent basis, Debye-Ang):
   XX=           -186.6575   YY=           -236.6454   ZZ=           -118.1181
   XY=            -60.8269   XZ=            -26.3892   YZ=             80.1451

 Normal termination of Gaussian 16 at Mon Jun  6 08:10:46 2022.
