 Gaussian 16, Revision C.01,
 Gaussian 16:  ES64L-G16RevC.01  3-Jul-2019

 ----------------------------------------------------------------------
 # B3LYP/6-31G* empiricaldispersion=gd3 guess=read geom=check nosymm in
 tegral(ultrafinegrid)
 ----------------------------------------------------------------------

 ------------------------------------------------------
 Candidate Structure: Conf:197 Charge calc in gas phase
 ------------------------------------------------------
 Structure from the checkpoint file:  "conf-197.chk"
 Charge =  1 Multiplicity = 1

                          Input orientation:
 ---------------------------------------------------------------------
 Center     Atomic      Atomic             Coordinates (Angstroms)
 Number     Number       Type             X           Y           Z
 ---------------------------------------------------------------------
      1          7           0       -8.265519    2.171985    4.064860
      2          1           0       -8.551757    1.769205    4.962769
      3          1           0       -9.094151    2.532848    3.584169
      4          1           0       -7.553890    2.942178    4.258666
      5          6           0       -7.433505    1.222484    3.225486
      6          1           0       -7.681212    0.196077    3.502322
      7          6           0       -5.982912    1.611957    3.636089
      8          6           0       -7.703258    1.492085    1.726586
      9          1           0       -8.666252    1.052092    1.440999
     10          1           0       -7.731897    2.570917    1.547773
     11          8           0       -5.829482    2.751383    4.099266
     12          6           0       -6.526765    0.958844    0.885663
     13          7           0       -6.534442   -0.377624    0.650492
     14          1           0       -5.679936   -0.792148    0.292200
     15          1           0       -7.357837   -0.954533    0.741147
     16          8           0       -5.602478    1.701648    0.599576
     17          7           0       -5.051105    0.689784    3.438013
     18          1           0       -5.290438   -0.175738    2.951158
     19          6           0       -3.613031    0.976372    3.324490
     20          1           0       -3.489261    2.061906    3.313768
     21          6           0       -3.225918    0.355710    1.967301
     22          6           0       -2.801356    0.344483    4.485406
     23          1           0       -2.986896   -0.737687    4.431784
     24          8           0       -3.780307   -0.690507    1.601831
     25          6           0       -3.300527    0.832184    5.863364
     26          1           0       -2.781014    0.235914    6.624029
     27          1           0       -4.366427    0.587023    5.965024
     28          6           0       -1.292528    0.579781    4.297088
     29          1           0       -1.062893    1.643713    4.160007
     30          1           0       -0.750266    0.243442    5.186471
     31          1           0       -0.876787    0.037079    3.444600
     32          6           0       -3.090508    2.322627    6.159402
     33          1           0       -3.440698    2.559122    7.170012
     34          1           0       -2.032698    2.600018    6.109091
     35          1           0       -3.648452    2.958947    5.464557
     36          7           0       -2.281634    1.000190    1.276115
     37          1           0       -1.814330    1.811304    1.667346
     38          6           0       -1.676407    0.482672    0.051799
     39          1           0       -1.959817   -0.569908   -0.026455
     40          6           0       -0.164517    0.642656    0.259429
     41          6           0       -2.164738    1.265556   -1.173454
     42          1           0       -1.755814    0.835827   -2.093972
     43          1           0       -3.257744    1.237442   -1.213142
     44          1           0       -1.842150    2.309009   -1.102744
     45          8           0        0.269558    1.688624    0.761064
     46          7           0        0.605606   -0.388834   -0.115770
     47          1           0        0.215914   -1.249368   -0.487320
     48          6           0        2.041440   -0.416758    0.103507
     49          1           0        2.439168    0.583096   -0.103822
     50          6           0        2.602865   -1.460051   -0.873680
     51          6           0        2.386711   -0.802712    1.583586
     52          1           0        2.187403   -1.874830    1.701577
     53          8           0        1.902917   -2.402441   -1.244411
     54          6           0        3.844542   -0.499423    1.933921
     55          1           0        4.556782   -1.079192    1.339048
     56          1           0        4.009582   -0.731786    2.989481
     57          1           0        4.059824    0.566840    1.786366
     58          8           0        1.503371   -0.163125    2.496086
     59          1           0        1.426968    0.772775    2.236782
     60          7           0        3.886597   -1.280666   -1.250252
     61          1           0        4.457987   -0.550249   -0.835296
     62          6           0        4.650732   -2.298027   -1.946980
     63          1           0        4.197271   -3.276809   -1.759811
     64          6           0        6.085201   -2.229142   -1.396925
     65          6           0        4.629113   -2.039550   -3.468482
     66          1           0        5.102804   -1.070050   -3.676858
     67          1           0        3.577212   -1.987848   -3.780536
     68          8           0        6.471654   -1.237962   -0.779711
     69          8           0        5.310001   -3.099571   -4.127051
     70          1           0        5.648489   -2.746702   -4.980497
     71          7           0        6.866435   -3.306174   -1.671723
     72          1           0        6.472575   -4.001305   -2.294777
     73          6           0        8.315523   -3.240455   -1.553594
     74          1           0        8.560892   -2.532079   -0.760154
     75          1           0        8.712332   -4.217759   -1.264935
     76          6           0        9.060655   -2.789388   -2.823661
     77          8           0       10.282833   -2.715699   -2.824909
     78          7           0        8.278007   -2.484761   -3.893157
     79          1           0        7.284580   -2.689720   -3.870112
     80          6           0        8.856879   -2.103798   -5.165801
     81          1           0        9.691537   -1.424229   -4.981073
     82          6           0        7.835916   -1.403491   -6.040378
     83          6           0        9.394116   -3.347841   -5.949200
     84          1           0       10.290587   -3.666527   -5.409658
     85          1           0        8.653125   -4.150075   -5.839797
     86          8           0        8.398815   -0.539364   -6.858513
     87          6           0        9.699402   -3.119283   -7.446297
     88          1           0       10.083564   -2.103694   -7.585046
     89          1           0       10.510624   -3.793117   -7.743111
     90          6           0        8.481870   -3.370698   -8.383092
     91          1           0        7.549232   -3.369716   -7.805473
     92          1           0        8.563854   -4.383321   -8.794299
     93          6           0        8.314120   -2.389761   -9.560798
     94          1           0        9.288566   -2.002340   -9.877586
     95          1           0        7.880064   -2.914160  -10.423150
     96          7           0        7.469317   -1.219656   -9.193267
     97          1           0        7.426732   -0.556069   -9.965931
     98          1           0        7.919306   -0.586963   -7.780924
     99          1           0        6.513081   -1.529737   -9.017847
    100          8           0        6.642524   -1.712894   -6.087459
 ---------------------------------------------------------------------

 SCF Done:  E(RB3LYP) =  -2418.57267994     A.U. after    3 cycles

 Alpha  occ. eigenvalues --  -19.27164 -19.23564 -19.21621 -19.21284 -19.20284
 Alpha  occ. eigenvalues --  -19.19797 -19.19511 -19.19254 -19.18504 -19.17963
 Alpha  occ. eigenvalues --  -19.14865 -14.61350 -14.49343 -14.47679 -14.45192
 Alpha  occ. eigenvalues --  -14.43624 -14.42586 -14.42039 -14.41004 -14.39743
 Alpha  occ. eigenvalues --  -10.43861 -10.42384 -10.41797 -10.38411 -10.36973
 Alpha  occ. eigenvalues --  -10.36493 -10.35731 -10.35518 -10.34879 -10.33518
 Alpha  occ. eigenvalues --  -10.32625 -10.31495 -10.30275 -10.30148 -10.29433
 Alpha  occ. eigenvalues --  -10.29376 -10.28183 -10.27877 -10.27759 -10.27417
 Alpha  occ. eigenvalues --  -10.26200 -10.25522 -10.24654 -10.24486 -10.23880
 Alpha  occ. eigenvalues --  -10.23511 -10.23134 -10.22980  -1.19809  -1.15617
 Alpha  occ. eigenvalues --   -1.14887  -1.14317  -1.13210  -1.11519  -1.10553
 Alpha  occ. eigenvalues --   -1.09670  -1.07635  -1.07299  -1.07000  -1.06184
 Alpha  occ. eigenvalues --   -1.05434  -1.02639  -1.01748  -0.99912  -0.99219
 Alpha  occ. eigenvalues --   -0.98567  -0.96346  -0.96227  -0.94519  -0.90195
 Alpha  occ. eigenvalues --   -0.86267  -0.84920  -0.84602  -0.83991  -0.81970
 Alpha  occ. eigenvalues --   -0.81503  -0.80275  -0.78799  -0.77596  -0.76847
 Alpha  occ. eigenvalues --   -0.75245  -0.74962  -0.74478  -0.73693  -0.72111
 Alpha  occ. eigenvalues --   -0.71254  -0.70929  -0.70234  -0.68449  -0.67960
 Alpha  occ. eigenvalues --   -0.67417  -0.67101  -0.66455  -0.65739  -0.65707
 Alpha  occ. eigenvalues --   -0.65239  -0.64428  -0.64112  -0.64027  -0.63496
 Alpha  occ. eigenvalues --   -0.62890  -0.61961  -0.60677  -0.59636  -0.59152
 Alpha  occ. eigenvalues --   -0.58376  -0.58266  -0.57843  -0.57269  -0.56763
 Alpha  occ. eigenvalues --   -0.56322  -0.55912  -0.55375  -0.55019  -0.54540
 Alpha  occ. eigenvalues --   -0.54091  -0.53712  -0.53379  -0.53127  -0.52936
 Alpha  occ. eigenvalues --   -0.52791  -0.52200  -0.51956  -0.51863  -0.51206
 Alpha  occ. eigenvalues --   -0.50930  -0.50610  -0.50420  -0.50314  -0.49960
 Alpha  occ. eigenvalues --   -0.49680  -0.49152  -0.49054  -0.48730  -0.48424
 Alpha  occ. eigenvalues --   -0.48261  -0.47910  -0.47503  -0.46877  -0.46696
 Alpha  occ. eigenvalues --   -0.46355  -0.46321  -0.45866  -0.45721  -0.45402
 Alpha  occ. eigenvalues --   -0.45345  -0.44666  -0.44466  -0.44313  -0.44054
 Alpha  occ. eigenvalues --   -0.43708  -0.43565  -0.42708  -0.42616  -0.42306
 Alpha  occ. eigenvalues --   -0.42221  -0.42205  -0.41033  -0.41017  -0.40422
 Alpha  occ. eigenvalues --   -0.40375  -0.40165  -0.39617  -0.39133  -0.38993
 Alpha  occ. eigenvalues --   -0.38620  -0.38545  -0.38399  -0.37865  -0.37304
 Alpha  occ. eigenvalues --   -0.35449  -0.35120  -0.34999  -0.34882  -0.33903
 Alpha  occ. eigenvalues --   -0.33438  -0.33189  -0.32977  -0.32645  -0.32497
 Alpha  occ. eigenvalues --   -0.32334  -0.31296  -0.30999  -0.29146  -0.28019
 Alpha virt. eigenvalues --   -0.13179  -0.11978  -0.11033  -0.07401  -0.07010
 Alpha virt. eigenvalues --   -0.05402  -0.04961  -0.04902  -0.04436  -0.03786
 Alpha virt. eigenvalues --   -0.03127  -0.02237  -0.01025  -0.00331   0.00315

 Mulliken charges:
               1
     1  N   -0.750956
     2  H    0.419828
     3  H    0.416838
     4  H    0.435683
     5  C   -0.120932
     6  H    0.215704
     7  C    0.654269
     8  C   -0.376990
     9  H    0.186362
    10  H    0.210820
    11  O   -0.534529
    12  C    0.581334
    13  N   -0.737004
    14  H    0.392296
    15  H    0.348181
    16  O   -0.468610
    17  N   -0.580702
    18  H    0.369355
    19  C   -0.080725
    20  H    0.190652
    21  C    0.661430
    22  C   -0.075011
    23  H    0.144599
    24  O   -0.583590
    25  C   -0.257371
    26  H    0.155373
    27  H    0.114891
    28  C   -0.489400
    29  H    0.146736
    30  H    0.170031
    31  H    0.190737
    32  C   -0.470919
    33  H    0.153582
    34  H    0.161543
    35  H    0.162742
    36  N   -0.582190
    37  H    0.359895
    38  C   -0.065750
    39  H    0.178479
    40  C    0.649514
    41  C   -0.446637
    42  H    0.163536
    43  H    0.176907
    44  H    0.174713
    45  O   -0.573835
    46  N   -0.598559
    47  H    0.357283
    48  C   -0.096621
    49  H    0.175360
    50  C    0.614954
    51  C    0.160043
    52  H    0.149228
    53  O   -0.537798
    54  C   -0.480377
    55  H    0.166522
    56  H    0.173995
    57  H    0.147657
    58  O   -0.637113
    59  H    0.411529
    60  N   -0.611340
    61  H    0.362928
    62  C   -0.075643
    63  H    0.193513
    64  C    0.604917
    65  C   -0.030755
    66  H    0.150799
    67  H    0.160754
    68  O   -0.526288
    69  O   -0.664828
    70  H    0.445300
    71  N   -0.598789
    72  H    0.353400
    73  C   -0.241481
    74  H    0.224119
    75  H    0.189772
    76  C    0.602501
    77  O   -0.517236
    78  N   -0.652125
    79  H    0.360580
    80  C   -0.004534
    81  H    0.196601
    82  C    0.590763
    83  C   -0.285669
    84  H    0.186350
    85  H    0.140844
    86  O   -0.586379
    87  C   -0.288320
    88  H    0.169233
    89  H    0.151055
    90  C   -0.291153
    91  H    0.155231
    92  H    0.153980
    93  C   -0.144204
    94  H    0.168381
    95  H    0.149472
    96  N   -0.780332
    97  H    0.335340
    98  H    0.460330
    99  H    0.339607
   100  O   -0.543676
 Sum of Mulliken charges =   1.00000

 Dipole moment (field-independent basis, Debye):
    X=            -28.4575    Y=              1.5081    Z=              3.5774  Tot=             28.7211
 Quadrupole moment (field-independent basis, Debye-Ang):
   XX=              4.5771   YY=           -267.0396   ZZ=           -115.8076
   XY=            -61.9533   XZ=           -187.1934   YZ=             42.4652

 Normal termination of Gaussian 16 at Mon Jun  6 08:11:16 2022.
