 Gaussian 16, Revision C.01,
 Gaussian 16:  ES64L-G16RevC.01  3-Jul-2019

 ----------------------------------------------------------------------
 # B3LYP/6-31G* empiricaldispersion=gd3 guess=read geom=check nosymm in
 tegral(ultrafinegrid)
 ----------------------------------------------------------------------

 ------------------------------------------------------
 Candidate Structure: Conf:121 Charge calc in gas phase
 ------------------------------------------------------
 Structure from the checkpoint file:  "conf-121.chk"
 Charge =  1 Multiplicity = 1

                          Input orientation:
 ---------------------------------------------------------------------
 Center     Atomic      Atomic             Coordinates (Angstroms)
 Number     Number       Type             X           Y           Z
 ---------------------------------------------------------------------
      1          7           0       -7.468528   -0.442982    5.380426
      2          1           0       -7.152747   -0.593133    6.342536
      3          1           0       -8.252013   -1.112932    5.142570
      4          1           0       -7.712763    0.563113    5.286419
      5          6           0       -6.369311   -0.682431    4.380507
      6          1           0       -5.723878   -1.474307    4.768470
      7          6           0       -5.637748    0.675347    4.249197
      8          6           0       -6.977104   -1.086277    3.021948
      9          1           0       -7.544191   -0.236152    2.619389
     10          1           0       -6.156502   -1.279015    2.324247
     11          8           0       -6.244616    1.691280    4.595577
     12          6           0       -7.938707   -2.272320    3.135050
     13          7           0       -7.936266   -3.160641    2.130391
     14          1           0       -8.607740   -3.919177    2.152656
     15          1           0       -7.328101   -3.082852    1.327605
     16          8           0       -8.699361   -2.371217    4.109541
     17          7           0       -4.416601    0.613513    3.720271
     18          1           0       -4.041658   -0.265895    3.371891
     19          6           0       -3.631666    1.771533    3.282383
     20          1           0       -4.297215    2.640210    3.268250
     21          6           0       -3.167992    1.392397    1.865415
     22          6           0       -2.432867    2.044261    4.242587
     23          1           0       -1.813710    1.136918    4.249081
     24          8           0       -2.976019    0.195824    1.592407
     25          6           0       -2.957371    2.302588    5.670384
     26          1           0       -3.651328    1.500774    5.951400
     27          1           0       -3.545201    3.231213    5.675097
     28          6           0       -1.566942    3.202447    3.725938
     29          1           0       -2.167218    4.113775    3.589515
     30          1           0       -0.785414    3.439536    4.451523
     31          1           0       -1.057457    2.964504    2.790113
     32          6           0       -1.853139    2.374309    6.731670
     33          1           0       -2.288506    2.461236    7.732924
     34          1           0       -1.229519    1.472473    6.712474
     35          1           0       -1.195996    3.236841    6.586882
     36          7           0       -2.988343    2.386592    0.978245
     37          1           0       -2.982083    3.337440    1.328994
     38          6           0       -2.260161    2.162733   -0.285746
     39          1           0       -2.675809    1.255687   -0.732310
     40          6           0       -0.777415    1.973901    0.104104
     41          6           0       -2.438449    3.364589   -1.206671
     42          1           0       -1.950098    3.173417   -2.166701
     43          1           0       -3.498824    3.564935   -1.388800
     44          1           0       -1.966519    4.246332   -0.761531
     45          8           0       -0.161308    2.910614    0.605586
     46          7           0       -0.280300    0.729357   -0.067410
     47          1           0       -0.804721    0.012644   -0.554976
     48          6           0        1.001727    0.317196    0.470581
     49          1           0        1.581255    1.223522    0.662498
     50          6           0        1.657695   -0.609443   -0.557076
     51          6           0        0.802562   -0.472840    1.814464
     52          1           0        0.523310   -1.503430    1.542197
     53          8           0        0.961234   -1.363471   -1.237693
     54          6           0        2.070774   -0.483199    2.656168
     55          1           0        2.914067   -0.920386    2.113094
     56          1           0        1.906065   -1.065072    3.567501
     57          1           0        2.330240    0.540983    2.946667
     58          8           0       -0.228075    0.108324    2.601974
     59          1           0       -1.071659   -0.042369    2.141208
     60          7           0        3.006417   -0.579325   -0.602010
     61          1           0        3.541542    0.002755    0.034627
     62          6           0        3.792377   -1.546925   -1.341003
     63          1           0        3.238874   -2.489514   -1.400937
     64          6           0        5.111468   -1.731655   -0.591554
     65          6           0        4.060311   -1.055810   -2.795271
     66          1           0        4.529910   -0.063364   -2.744675
     67          1           0        3.085364   -0.953319   -3.281860
     68          8           0        5.477376   -0.942111    0.276800
     69          8           0        4.838301   -1.970826   -3.539112
     70          1           0        5.779723   -1.728845   -3.396949
     71          7           0        5.848040   -2.809289   -0.994334
     72          1           0        5.547131   -3.212112   -1.877274
     73          6           0        7.274733   -2.795982   -0.753765
     74          1           0        7.454922   -2.494756    0.281070
     75          1           0        7.676346   -3.805761   -0.890021
     76          6           0        7.995458   -1.825339   -1.710493
     77          8           0        7.427424   -1.316380   -2.686564
     78          7           0        9.279775   -1.575749   -1.410325
     79          1           0        9.769019   -2.091294   -0.683219
     80          6           0       10.145352   -0.801220   -2.288191
     81          1           0       10.075477   -1.230536   -3.297955
     82          6           0       11.587821   -1.038304   -1.789530
     83          6           0        9.754864    0.696726   -2.370868
     84          1           0        8.736195    0.810624   -1.994731
     85          1           0       10.400156    1.271393   -1.697677
     86          8           0       12.559916   -0.297168   -2.302249
     87          6           0        9.828354    1.226634   -3.815984
     88          1           0       10.584446    0.662949   -4.376220
     89          1           0        8.875688    1.012270   -4.313651
     90          6           0       10.160060    2.719650   -3.938935
     91          1           0        9.368419    3.333663   -3.490819
     92          1           0       10.188275    2.984842   -5.004791
     93          6           0       11.497280    3.104183   -3.286561
     94          1           0       11.782954    4.117343   -3.604575
     95          1           0       11.396776    3.132737   -2.196310
     96          7           0       12.542087    2.101963   -3.591523
     97          1           0       13.431803    2.387809   -3.183162
     98          1           0       12.696325    2.052910   -4.599167
     99          1           0       12.318008    0.511420   -2.857963
    100          8           0       11.820112   -1.903426   -0.966204
 ---------------------------------------------------------------------

 SCF Done:  E(RB3LYP) =  -2418.58538594     A.U. after    1 cycles

 Alpha  occ. eigenvalues --  -19.27370 -19.26203 -19.23179 -19.21407 -19.20540
 Alpha  occ. eigenvalues --  -19.18438 -19.18413 -19.18384 -19.18084 -19.17744
 Alpha  occ. eigenvalues --  -19.17204 -14.58382 -14.50711 -14.49556 -14.46971
 Alpha  occ. eigenvalues --  -14.43301 -14.42178 -14.41586 -14.41573 -14.40283
 Alpha  occ. eigenvalues --  -10.44973 -10.43421 -10.41452 -10.39996 -10.36550
 Alpha  occ. eigenvalues --  -10.35957 -10.35900 -10.35053 -10.34981 -10.34651
 Alpha  occ. eigenvalues --  -10.34365 -10.32271 -10.30499 -10.29367 -10.28950
 Alpha  occ. eigenvalues --  -10.28935 -10.28568 -10.28286 -10.28264 -10.27460
 Alpha  occ. eigenvalues --  -10.26395 -10.26335 -10.24680 -10.24646 -10.24182
 Alpha  occ. eigenvalues --  -10.23968 -10.23669 -10.23384  -1.19341  -1.18380
 Alpha  occ. eigenvalues --   -1.15002  -1.12981  -1.12960  -1.10848  -1.10437
 Alpha  occ. eigenvalues --   -1.09689  -1.09153  -1.08092  -1.06224  -1.05929
 Alpha  occ. eigenvalues --   -1.05675  -1.04878  -1.03040  -0.99437  -0.98680
 Alpha  occ. eigenvalues --   -0.98229  -0.98206  -0.95990  -0.94734  -0.90493
 Alpha  occ. eigenvalues --   -0.86663  -0.85677  -0.84903  -0.84256  -0.82174
 Alpha  occ. eigenvalues --   -0.81840  -0.80787  -0.78778  -0.77972  -0.76953
 Alpha  occ. eigenvalues --   -0.75323  -0.74157  -0.73772  -0.73422  -0.72645
 Alpha  occ. eigenvalues --   -0.71559  -0.71246  -0.69831  -0.69185  -0.68987
 Alpha  occ. eigenvalues --   -0.68535  -0.66642  -0.66455  -0.66299  -0.65657
 Alpha  occ. eigenvalues --   -0.64926  -0.64709  -0.63956  -0.63636  -0.63397
 Alpha  occ. eigenvalues --   -0.62931  -0.62742  -0.61643  -0.60515  -0.59388
 Alpha  occ. eigenvalues --   -0.59056  -0.58728  -0.58495  -0.57746  -0.57518
 Alpha  occ. eigenvalues --   -0.56895  -0.56792  -0.56623  -0.55764  -0.55179
 Alpha  occ. eigenvalues --   -0.54890  -0.54602  -0.54343  -0.53867  -0.53563
 Alpha  occ. eigenvalues --   -0.52973  -0.52671  -0.52352  -0.52007  -0.51584
 Alpha  occ. eigenvalues --   -0.51242  -0.50912  -0.50817  -0.50547  -0.49897
 Alpha  occ. eigenvalues --   -0.49623  -0.49332  -0.49186  -0.48880  -0.48530
 Alpha  occ. eigenvalues --   -0.48266  -0.47889  -0.47666  -0.47143  -0.46909
 Alpha  occ. eigenvalues --   -0.46383  -0.46253  -0.45954  -0.45763  -0.45052
 Alpha  occ. eigenvalues --   -0.44979  -0.44837  -0.44578  -0.44405  -0.44067
 Alpha  occ. eigenvalues --   -0.43820  -0.43738  -0.43557  -0.43007  -0.42411
 Alpha  occ. eigenvalues --   -0.42250  -0.41945  -0.41809  -0.41605  -0.41581
 Alpha  occ. eigenvalues --   -0.40974  -0.40578  -0.40511  -0.40327  -0.39142
 Alpha  occ. eigenvalues --   -0.38982  -0.38881  -0.38330  -0.38072  -0.37614
 Alpha  occ. eigenvalues --   -0.37233  -0.36560  -0.34538  -0.34286  -0.34171
 Alpha  occ. eigenvalues --   -0.33363  -0.33214  -0.33037  -0.32295  -0.31739
 Alpha  occ. eigenvalues --   -0.31526  -0.31094  -0.30733  -0.30698  -0.29818
 Alpha virt. eigenvalues --   -0.13093  -0.11982  -0.09675  -0.09269  -0.05415
 Alpha virt. eigenvalues --   -0.05268  -0.04842  -0.04332  -0.03946  -0.03677
 Alpha virt. eigenvalues --   -0.02762  -0.02536  -0.01459  -0.01080  -0.00007

 Mulliken charges:
               1
     1  N   -0.751616
     2  H    0.411551
     3  H    0.444236
     4  H    0.417275
     5  C   -0.128578
     6  H    0.218110
     7  C    0.646852
     8  C   -0.402246
     9  H    0.228590
    10  H    0.207513
    11  O   -0.524407
    12  C    0.647659
    13  N   -0.725737
    14  H    0.383698
    15  H    0.372862
    16  O   -0.534167
    17  N   -0.588938
    18  H    0.359083
    19  C   -0.089751
    20  H    0.185567
    21  C    0.638459
    22  C   -0.077969
    23  H    0.166799
    24  O   -0.577845
    25  C   -0.249832
    26  H    0.113154
    27  H    0.145529
    28  C   -0.509644
    29  H    0.129685
    30  H    0.175562
    31  H    0.212804
    32  C   -0.453220
    33  H    0.152939
    34  H    0.154050
    35  H    0.164224
    36  N   -0.576290
    37  H    0.355422
    38  C   -0.052071
    39  H    0.167469
    40  C    0.628159
    41  C   -0.477256
    42  H    0.181912
    43  H    0.162789
    44  H    0.185681
    45  O   -0.526966
    46  N   -0.605430
    47  H    0.349880
    48  C   -0.063065
    49  H    0.184378
    50  C    0.619051
    51  C    0.127157
    52  H    0.131841
    53  O   -0.545375
    54  C   -0.467263
    55  H    0.163584
    56  H    0.162110
    57  H    0.163874
    58  O   -0.658566
    59  H    0.427220
    60  N   -0.609288
    61  H    0.357277
    62  C   -0.076080
    63  H    0.189606
    64  C    0.595886
    65  C   -0.035639
    66  H    0.141369
    67  H    0.170336
    68  O   -0.534686
    69  O   -0.651737
    70  H    0.440354
    71  N   -0.572521
    72  H    0.347115
    73  C   -0.260913
    74  H    0.211224
    75  H    0.192044
    76  C    0.635187
    77  O   -0.558641
    78  N   -0.611432
    79  H    0.362078
    80  C   -0.044200
    81  H    0.188557
    82  C    0.588633
    83  C   -0.289377
    84  H    0.180584
    85  H    0.148694
    86  O   -0.614502
    87  C   -0.273098
    88  H    0.136120
    89  H    0.165788
    90  C   -0.280893
    91  H    0.151787
    92  H    0.143789
    93  C   -0.139916
    94  H    0.147470
    95  H    0.161541
    96  N   -0.772063
    97  H    0.337803
    98  H    0.326511
    99  H    0.479281
   100  O   -0.474544
 Sum of Mulliken charges =   1.00000

 Dipole moment (field-independent basis, Debye):
    X=            -19.4221    Y=              0.2734    Z=             11.1492  Tot=             22.3963
 Quadrupole moment (field-independent basis, Debye-Ang):
   XX=             -1.3054   YY=           -251.2677   ZZ=           -192.2742
   XY=             79.2891   XZ=           -151.9330   YZ=            -29.4205

 Normal termination of Gaussian 16 at Mon Jun  6 08:10:33 2022.
