 Gaussian 16, Revision C.01,
 Gaussian 16:  ES64L-G16RevC.01  3-Jul-2019

 ----------------------------------------------------------------------
 # B3LYP/6-31G* empiricaldispersion=gd3 guess=read geom=check nosymm in
 tegral(ultrafinegrid)
 ----------------------------------------------------------------------

 ------------------------------------------------------
 Candidate Structure: Conf:538 Charge calc in gas phase
 ------------------------------------------------------
 Structure from the checkpoint file:  "conf-538.chk"
 Charge =  1 Multiplicity = 1

                          Input orientation:
 ---------------------------------------------------------------------
 Center     Atomic      Atomic             Coordinates (Angstroms)
 Number     Number       Type             X           Y           Z
 ---------------------------------------------------------------------
      1          7           0       -5.056097    1.883033   -1.435524
      2          1           0       -6.023598    1.820668   -1.108283
      3          1           0       -5.040513    1.789460   -2.453750
      4          1           0       -4.641133    2.818096   -1.121301
      5          6           0       -4.125052    0.914365   -0.733484
      6          1           0       -4.702691    0.115653   -0.267212
      7          6           0       -3.432119    1.831939    0.309282
      8          6           0       -3.121603    0.336314   -1.737484
      9          1           0       -3.661750   -0.083354   -2.597501
     10          1           0       -2.440663    1.102863   -2.123111
     11          8           0       -3.516217    3.059073    0.123995
     12          6           0       -2.304204   -0.800170   -1.090285
     13          7           0       -1.259349   -1.193703   -1.824124
     14          1           0       -0.519546   -1.710359   -1.358237
     15          1           0       -0.957077   -0.568371   -2.580153
     16          8           0       -2.666294   -1.286337   -0.010482
     17          7           0       -2.781594    1.223130    1.294437
     18          1           0       -2.668484    0.210736    1.166635
     19          6           0       -1.696807    1.899488    2.014166
     20          1           0       -1.999911    2.936539    2.188291
     21          6           0       -0.475144    1.823502    1.072203
     22          6           0       -1.427720    1.186582    3.367636
     23          1           0       -1.109273    0.160407    3.132581
     24          8           0       -0.411674    0.910652    0.242982
     25          6           0       -2.719352    1.133281    4.210744
     26          1           0       -3.556242    0.820534    3.575212
     27          1           0       -2.959160    2.149200    4.557088
     28          6           0       -0.276838    1.859984    4.130776
     29          1           0       -0.460893    2.937187    4.251217
     30          1           0       -0.183899    1.433819    5.132486
     31          1           0        0.683280    1.696655    3.640119
     32          6           0       -2.634415    0.179190    5.407486
     33          1           0       -3.591722    0.137735    5.937874
     34          1           0       -2.391851   -0.838778    5.077971
     35          1           0       -1.873444    0.487549    6.131616
     36          7           0        0.497662    2.744077    1.215025
     37          1           0        0.447384    3.399151    1.984525
     38          6           0        1.783994    2.617898    0.510687
     39          1           0        1.555064    2.212071   -0.480211
     40          6           0        2.712064    1.602436    1.219245
     41          6           0        2.459735    3.975161    0.372417
     42          1           0        3.388931    3.854543   -0.187802
     43          1           0        1.803079    4.671479   -0.158562
     44          1           0        2.719577    4.393274    1.350865
     45          8           0        3.862285    1.893401    1.543590
     46          7           0        2.170973    0.370197    1.412875
     47          1           0        1.326440    0.137227    0.897266
     48          6           0        2.954080   -0.741582    1.937057
     49          1           0        3.764029   -0.302301    2.528216
     50          6           0        3.540660   -1.529774    0.736871
     51          6           0        2.092636   -1.655459    2.823630
     52          1           0        1.401982   -2.208572    2.169914
     53          8           0        3.367613   -2.729912    0.570070
     54          6           0        2.944079   -2.643708    3.617581
     55          1           0        3.506691   -3.294697    2.945564
     56          1           0        2.304479   -3.277848    4.244910
     57          1           0        3.637094   -2.102957    4.272171
     58          8           0        1.353418   -0.793859    3.700046
     59          1           0        0.931429   -1.360818    4.363905
     60          7           0        4.199515   -0.738220   -0.167905
     61          1           0        4.270683    0.249497    0.058455
     62          6           0        4.121789   -1.014261   -1.586849
     63          1           0        4.883607   -1.744462   -1.896334
     64          6           0        4.344851    0.305382   -2.321636
     65          6           0        2.722874   -1.605484   -2.015593
     66          1           0        2.736401   -2.669951   -1.781056
     67          1           0        2.624181   -1.485057   -3.107994
     68          8           0        4.024371    1.393011   -1.846666
     69          8           0        1.635458   -1.052677   -1.322557
     70          1           0        1.417019   -0.156376   -1.680632
     71          7           0        4.850796    0.198585   -3.586764
     72          1           0        5.098276   -0.711910   -3.947510
     73          6           0        4.960665    1.356706   -4.462619
     74          1           0        5.162424    2.230853   -3.836619
     75          1           0        5.785968    1.215153   -5.161531
     76          6           0        3.679809    1.578724   -5.285965
     77          8           0        3.753606    1.490500   -6.536005
     78          7           0        2.592511    1.812612   -4.558571
     79          1           0        2.699334    1.823936   -3.537837
     80          6           0        1.164066    1.859553   -4.901758
     81          1           0        0.862874    2.914938   -4.957877
     82          6           0        0.411515    1.231892   -3.669749
     83          6           0        0.771796    1.177134   -6.211161
     84          1           0       -0.312293    1.293166   -6.299010
     85          1           0        1.218873    1.731284   -7.041735
     86          8           0       -0.735180    0.773375   -3.886599
     87          6           0        1.102640   -0.325078   -6.256080
     88          1           0        2.104541   -0.514706   -5.850603
     89          1           0        0.400397   -0.827488   -5.585147
     90          6           0        1.002979   -0.945005   -7.662115
     91          1           0        0.163854   -0.502402   -8.217624
     92          1           0        0.780098   -2.015907   -7.586964
     93          6           0        2.279436   -0.853365   -8.497893
     94          1           0        3.118322   -1.334663   -7.987618
     95          1           0        2.153211   -1.316918   -9.480007
     96          7           0        2.715997    0.576355   -8.723140
     97          1           0        3.528796    0.625358   -9.344549
     98          1           0        3.011725    1.033135   -7.786203
     99          1           0        1.966789    1.130849   -9.146072
    100          8           0        1.059736    1.251775   -2.591408
 ---------------------------------------------------------------------

 SCF Done:  E(RB3LYP) =  -2418.59074387     A.U. after    2 cycles

 Alpha  occ. eigenvalues --  -19.24012 -19.23037 -19.20407 -19.19531 -19.19489
 Alpha  occ. eigenvalues --  -19.18721 -19.18682 -19.17171 -19.17146 -19.16650
 Alpha  occ. eigenvalues --  -19.16355 -14.57346 -14.56407 -14.45602 -14.45295
 Alpha  occ. eigenvalues --  -14.45087 -14.43298 -14.40058 -14.39978 -14.39923
 Alpha  occ. eigenvalues --  -10.40179 -10.39347 -10.37366 -10.37261 -10.37260
 Alpha  occ. eigenvalues --  -10.36508 -10.35862 -10.35288 -10.33509 -10.33246
 Alpha  occ. eigenvalues --  -10.32049 -10.31172 -10.31152 -10.31143 -10.30176
 Alpha  occ. eigenvalues --  -10.30001 -10.29811 -10.28551 -10.28522 -10.28379
 Alpha  occ. eigenvalues --  -10.28218 -10.27561 -10.26252 -10.24433 -10.23241
 Alpha  occ. eigenvalues --  -10.23212 -10.22990 -10.21814  -1.16361  -1.13946
 Alpha  occ. eigenvalues --   -1.12450  -1.11314  -1.11206  -1.10819  -1.10651
 Alpha  occ. eigenvalues --   -1.10052  -1.08871  -1.07973  -1.06855  -1.06661
 Alpha  occ. eigenvalues --   -1.02766  -1.02675  -1.01703  -1.00595  -0.99395
 Alpha  occ. eigenvalues --   -0.97719  -0.96455  -0.96123  -0.91675  -0.90138
 Alpha  occ. eigenvalues --   -0.87664  -0.87375  -0.84321  -0.83415  -0.81852
 Alpha  occ. eigenvalues --   -0.80924  -0.80549  -0.79055  -0.78677  -0.76323
 Alpha  occ. eigenvalues --   -0.75259  -0.74893  -0.72172  -0.71316  -0.71277
 Alpha  occ. eigenvalues --   -0.70903  -0.70603  -0.70469  -0.69033  -0.68688
 Alpha  occ. eigenvalues --   -0.68047  -0.67941  -0.65915  -0.65495  -0.65056
 Alpha  occ. eigenvalues --   -0.64303  -0.64052  -0.63111  -0.62886  -0.62225
 Alpha  occ. eigenvalues --   -0.61778  -0.61485  -0.61163  -0.60094  -0.59384
 Alpha  occ. eigenvalues --   -0.58460  -0.58324  -0.57957  -0.57473  -0.57261
 Alpha  occ. eigenvalues --   -0.56738  -0.56070  -0.55716  -0.55370  -0.55252
 Alpha  occ. eigenvalues --   -0.55025  -0.53889  -0.53557  -0.53152  -0.53067
 Alpha  occ. eigenvalues --   -0.52568  -0.52227  -0.52066  -0.51788  -0.51089
 Alpha  occ. eigenvalues --   -0.50940  -0.50508  -0.50187  -0.50081  -0.49766
 Alpha  occ. eigenvalues --   -0.49571  -0.49203  -0.48895  -0.48565  -0.48241
 Alpha  occ. eigenvalues --   -0.47614  -0.47500  -0.47233  -0.46985  -0.46679
 Alpha  occ. eigenvalues --   -0.46558  -0.46286  -0.46220  -0.45896  -0.45543
 Alpha  occ. eigenvalues --   -0.45146  -0.44897  -0.44319  -0.44066  -0.44011
 Alpha  occ. eigenvalues --   -0.43682  -0.43516  -0.43493  -0.43258  -0.42950
 Alpha  occ. eigenvalues --   -0.42833  -0.42312  -0.41945  -0.41336  -0.40612
 Alpha  occ. eigenvalues --   -0.40219  -0.39533  -0.39136  -0.38856  -0.38751
 Alpha  occ. eigenvalues --   -0.38367  -0.38082  -0.37405  -0.36339  -0.35976
 Alpha  occ. eigenvalues --   -0.34399  -0.34251  -0.34077  -0.33862  -0.33166
 Alpha  occ. eigenvalues --   -0.32873  -0.32657  -0.32280  -0.32242  -0.31850
 Alpha  occ. eigenvalues --   -0.31445  -0.30962  -0.29970  -0.29220  -0.28229
 Alpha virt. eigenvalues --   -0.09426  -0.09131  -0.08631  -0.08460  -0.05977
 Alpha virt. eigenvalues --   -0.05881  -0.05273  -0.04095  -0.03664  -0.03200
 Alpha virt. eigenvalues --   -0.02926  -0.01902  -0.01429  -0.00784   0.00425

 Mulliken charges:
               1
     1  N   -0.761598
     2  H    0.410007
     3  H    0.407533
     4  H    0.428100
     5  C   -0.108204
     6  H    0.227351
     7  C    0.640278
     8  C   -0.407534
     9  H    0.181190
    10  H    0.230470
    11  O   -0.552933
    12  C    0.640569
    13  N   -0.771346
    14  H    0.368042
    15  H    0.397409
    16  O   -0.555782
    17  N   -0.585903
    18  H    0.402258
    19  C   -0.086527
    20  H    0.176743
    21  C    0.642169
    22  C   -0.093408
    23  H    0.156338
    24  O   -0.555323
    25  C   -0.254561
    26  H    0.139194
    27  H    0.136548
    28  C   -0.482397
    29  H    0.126434
    30  H    0.163661
    31  H    0.195974
    32  C   -0.452179
    33  H    0.155365
    34  H    0.145449
    35  H    0.155545
    36  N   -0.587581
    37  H    0.339064
    38  C   -0.102436
    39  H    0.240294
    40  C    0.615294
    41  C   -0.460661
    42  H    0.190841
    43  H    0.144337
    44  H    0.157171
    45  O   -0.537056
    46  N   -0.604805
    47  H    0.387524
    48  C   -0.089317
    49  H    0.196425
    50  C    0.643781
    51  C    0.151677
    52  H    0.140481
    53  O   -0.530011
    54  C   -0.488389
    55  H    0.190933
    56  H    0.137115
    57  H    0.155122
    58  O   -0.633988
    59  H    0.393274
    60  N   -0.634870
    61  H    0.382190
    62  C   -0.013011
    63  H    0.152778
    64  C    0.589108
    65  C   -0.062804
    66  H    0.191939
    67  H    0.104119
    68  O   -0.524355
    69  O   -0.667663
    70  H    0.473635
    71  N   -0.594707
    72  H    0.337731
    73  C   -0.234388
    74  H    0.220484
    75  H    0.183870
    76  C    0.614496
    77  O   -0.617213
    78  N   -0.596657
    79  H    0.414540
    80  C   -0.058082
    81  H    0.175762
    82  C    0.617290
    83  C   -0.270992
    84  H    0.178150
    85  H    0.097924
    86  O   -0.595024
    87  C   -0.291803
    88  H    0.143017
    89  H    0.193497
    90  C   -0.289129
    91  H    0.159852
    92  H    0.187144
    93  C   -0.191439
    94  H    0.205297
    95  H    0.201393
    96  N   -0.767133
    97  H    0.402354
    98  H    0.474467
    99  H    0.394096
   100  O   -0.593884
 Sum of Mulliken charges =   1.00000

 Dipole moment (field-independent basis, Debye):
    X=             -5.3800    Y=              5.0137    Z=            -27.5942  Tot=             28.5574
 Quadrupole moment (field-independent basis, Debye-Ang):
   XX=           -181.4437   YY=           -275.6926   ZZ=            -21.2185
   XY=            -28.5234   XZ=            -64.3693   YZ=             -7.8033

 Normal termination of Gaussian 16 at Mon Jun  6 08:14:52 2022.
