 Gaussian 16, Revision C.01,
 Gaussian 16:  ES64L-G16RevC.01  3-Jul-2019

 ----------------------------------------------------------------------
 # B3LYP/6-31G* empiricaldispersion=gd3 guess=read geom=check nosymm in
 tegral(ultrafinegrid)
 ----------------------------------------------------------------------

 ------------------------------------------------------
 Candidate Structure: Conf:669 Charge calc in gas phase
 ------------------------------------------------------
 Structure from the checkpoint file:  "conf-669.chk"
 Charge =  1 Multiplicity = 1

                          Input orientation:
 ---------------------------------------------------------------------
 Center     Atomic      Atomic             Coordinates (Angstroms)
 Number     Number       Type             X           Y           Z
 ---------------------------------------------------------------------
      1          7           0       -7.647729    0.452888    4.807316
      2          1           0       -7.521536    1.486571    4.555818
      3          1           0       -8.015038    0.349307    5.755450
      4          1           0       -8.300077    0.027437    4.129048
      5          6           0       -6.231542   -0.057918    4.630688
      6          1           0       -5.867244   -0.413077    5.597355
      7          6           0       -5.460070    1.219111    4.172262
      8          6           0       -6.168367   -1.182216    3.573512
      9          1           0       -5.121371   -1.404278    3.347172
     10          1           0       -6.641434   -2.088786    3.966045
     11          8           0       -6.120977    2.253803    4.013677
     12          6           0       -6.824657   -0.672749    2.286937
     13          7           0       -8.152761   -1.053248    2.137564
     14          1           0       -8.572014   -0.759919    1.258455
     15          1           0       -8.417105   -1.991501    2.420747
     16          8           0       -6.284845    0.149481    1.575606
     17          7           0       -4.157461    1.057843    3.976666
     18          1           0       -3.781954    0.108327    4.013575
     19          6           0       -3.384668    1.827458    2.988528
     20          1           0       -4.050731    2.572879    2.547403
     21          6           0       -3.003655    0.746873    1.946227
     22          6           0       -2.149480    2.509939    3.628242
     23          1           0       -1.508395    1.700667    4.006472
     24          8           0       -2.922512   -0.436588    2.301412
     25          6           0       -2.552815    3.383752    4.836863
     26          1           0       -1.625081    3.754384    5.290904
     27          1           0       -3.029039    2.748351    5.594657
     28          6           0       -1.343522    3.296614    2.580736
     29          1           0       -1.976021    4.016846    2.044873
     30          1           0       -0.555000    3.871562    3.077619
     31          1           0       -0.863726    2.634977    1.854245
     32          6           0       -3.472608    4.570552    4.521435
     33          1           0       -3.657573    5.156147    5.428462
     34          1           0       -3.025856    5.245644    3.783897
     35          1           0       -4.446423    4.242760    4.141545
     36          7           0       -2.805535    1.158748    0.684664
     37          1           0       -2.732939    2.152633    0.510773
     38          6           0       -2.235027    0.271006   -0.321963
     39          1           0       -2.773643   -0.679555   -0.256354
     40          6           0       -0.736252    0.046827   -0.043680
     41          6           0       -2.396073    0.889693   -1.716101
     42          1           0       -1.923920    0.253915   -2.467693
     43          1           0       -3.454872    1.026824   -1.957258
     44          1           0       -1.883014    1.856745   -1.760666
     45          8           0       -0.051180    0.890185    0.528220
     46          7           0       -0.242064   -1.110492   -0.540722
     47          1           0       -0.850517   -1.759818   -1.022410
     48          6           0        1.171364   -1.261363   -0.819915
     49          1           0        1.729871   -1.143354    0.117735
     50          6           0        1.599927   -0.156188   -1.811280
     51          6           0        1.426065   -2.681780   -1.433674
     52          1           0        1.324566   -2.642793   -2.522001
     53          8           0        0.785964    0.419308   -2.522161
     54          6           0        2.816882   -3.206086   -1.099259
     55          1           0        3.593395   -2.548001   -1.499267
     56          1           0        2.944680   -4.181278   -1.570598
     57          1           0        2.951209   -3.293783   -0.010960
     58          8           0        0.417444   -3.600611   -1.005507
     59          1           0        0.531331   -3.740166   -0.050375
     60          7           0        2.930935    0.130659   -1.848604
     61          1           0        3.600746   -0.429107   -1.338393
     62          6           0        3.446329    0.929428   -2.940773
     63          1           0        2.830770    0.726504   -3.821746
     64          6           0        4.874131    0.506635   -3.256014
     65          6           0        3.338274    2.439558   -2.614667
     66          1           0        3.903899    2.667509   -1.700077
     67          1           0        2.281865    2.643395   -2.427439
     68          8           0        5.574015   -0.172093   -2.489451
     69          8           0        3.738699    3.257190   -3.710358
     70          1           0        4.697779    3.381533   -3.655695
     71          7           0        5.337799    0.959822   -4.451571
     72          1           0        4.673151    1.440808   -5.044539
     73          6           0        6.574937    0.452009   -5.026177
     74          1           0        6.666443    0.840360   -6.044332
     75          1           0        7.442593    0.795960   -4.456427
     76          6           0        6.633385   -1.089542   -5.024439
     77          8           0        7.733716   -1.632553   -4.745144
     78          7           0        5.493300   -1.701881   -5.283362
     79          1           0        4.638330   -1.116244   -5.369470
     80          6           0        4.973813   -3.008996   -4.842720
     81          1           0        5.051718   -3.746087   -5.648888
     82          6           0        3.425684   -2.714004   -4.546318
     83          6           0        5.579517   -3.548055   -3.542271
     84          1           0        5.617112   -2.700963   -2.846459
     85          1           0        4.823488   -4.226040   -3.137287
     86          8           0        3.075793   -1.507800   -4.716652
     87          6           0        6.921294   -4.303195   -3.582378
     88          1           0        6.736561   -5.327154   -3.925761
     89          1           0        7.612422   -3.849896   -4.296731
     90          6           0        7.559133   -4.355365   -2.175981
     91          1           0        8.149631   -5.270673   -2.048041
     92          1           0        6.769023   -4.396393   -1.413550
     93          6           0        8.523894   -3.211188   -1.847657
     94          1           0        8.812226   -3.230053   -0.792727
     95          1           0        9.429890   -3.284420   -2.455918
     96          7           0        7.966939   -1.840354   -2.145680
     97          1           0        8.568461   -1.102728   -1.771982
     98          1           0        7.019877   -1.666391   -1.790402
     99          1           0        7.900279   -1.693490   -3.211829
    100          8           0        2.770887   -3.679925   -4.128852
 ---------------------------------------------------------------------

 SCF Done:  E(RB3LYP) =  -2418.52967370     A.U. after    3 cycles

 Alpha  occ. eigenvalues --  -19.26602 -19.25703 -19.20783 -19.20716 -19.20274
 Alpha  occ. eigenvalues --  -19.19537 -19.18313 -19.16960 -19.15914 -19.11020
 Alpha  occ. eigenvalues --  -19.09787 -14.59290 -14.51273 -14.49802 -14.48020
 Alpha  occ. eigenvalues --  -14.44346 -14.43755 -14.40745 -14.40742 -14.40084
 Alpha  occ. eigenvalues --  -10.43110 -10.43069 -10.41445 -10.37549 -10.36537
 Alpha  occ. eigenvalues --  -10.35252 -10.35040 -10.33897 -10.33104 -10.32943
 Alpha  occ. eigenvalues --  -10.32776 -10.30099 -10.29990 -10.28750 -10.28569
 Alpha  occ. eigenvalues --  -10.28085 -10.27947 -10.27946 -10.27400 -10.26767
 Alpha  occ. eigenvalues --  -10.25518 -10.25356 -10.24179 -10.23897 -10.23856
 Alpha  occ. eigenvalues --  -10.23579 -10.22829 -10.22045  -1.19084  -1.17453
 Alpha  occ. eigenvalues --   -1.13374  -1.12582  -1.11630  -1.09532  -1.09196
 Alpha  occ. eigenvalues --   -1.07890  -1.07600  -1.06779  -1.06277  -1.05331
 Alpha  occ. eigenvalues --   -1.04222  -1.03933  -1.00795  -1.00214  -0.97441
 Alpha  occ. eigenvalues --   -0.97221  -0.97117  -0.94830  -0.93951  -0.89320
 Alpha  occ. eigenvalues --   -0.87006  -0.84869  -0.83856  -0.83317  -0.82126
 Alpha  occ. eigenvalues --   -0.81105  -0.80573  -0.78498  -0.78048  -0.75496
 Alpha  occ. eigenvalues --   -0.75182  -0.74552  -0.72596  -0.72092  -0.71783
 Alpha  occ. eigenvalues --   -0.70926  -0.70814  -0.70109  -0.69492  -0.67524
 Alpha  occ. eigenvalues --   -0.67017  -0.66834  -0.66497  -0.65672  -0.65589
 Alpha  occ. eigenvalues --   -0.65392  -0.64187  -0.63629  -0.63174  -0.63145
 Alpha  occ. eigenvalues --   -0.62840  -0.60645  -0.60315  -0.60133  -0.59193
 Alpha  occ. eigenvalues --   -0.58869  -0.58063  -0.57532  -0.57425  -0.57331
 Alpha  occ. eigenvalues --   -0.57010  -0.55587  -0.55424  -0.55064  -0.54558
 Alpha  occ. eigenvalues --   -0.53925  -0.53757  -0.53465  -0.53142  -0.52460
 Alpha  occ. eigenvalues --   -0.52291  -0.51722  -0.51647  -0.51530  -0.51205
 Alpha  occ. eigenvalues --   -0.50989  -0.50528  -0.50196  -0.49974  -0.49775
 Alpha  occ. eigenvalues --   -0.49158  -0.49041  -0.48598  -0.48241  -0.48111
 Alpha  occ. eigenvalues --   -0.47701  -0.47166  -0.46937  -0.46633  -0.45895
 Alpha  occ. eigenvalues --   -0.45635  -0.45500  -0.45222  -0.44867  -0.44646
 Alpha  occ. eigenvalues --   -0.44509  -0.44133  -0.43771  -0.43609  -0.43395
 Alpha  occ. eigenvalues --   -0.43033  -0.42680  -0.42358  -0.41999  -0.41562
 Alpha  occ. eigenvalues --   -0.41410  -0.40955  -0.40626  -0.40287  -0.40105
 Alpha  occ. eigenvalues --   -0.39721  -0.39599  -0.39503  -0.39107  -0.38855
 Alpha  occ. eigenvalues --   -0.38840  -0.38464  -0.37769  -0.37133  -0.36430
 Alpha  occ. eigenvalues --   -0.35134  -0.34887  -0.34326  -0.34115  -0.33857
 Alpha  occ. eigenvalues --   -0.32706  -0.31869  -0.31124  -0.31078  -0.30281
 Alpha  occ. eigenvalues --   -0.29733  -0.29334  -0.26053  -0.25677  -0.23946
 Alpha virt. eigenvalues --   -0.12994  -0.12231  -0.09407  -0.06489  -0.06384
 Alpha virt. eigenvalues --   -0.05913  -0.04899  -0.04443  -0.03475  -0.03355
 Alpha virt. eigenvalues --   -0.01736  -0.01615  -0.00869  -0.00218   0.00489

 Mulliken charges:
               1
     1  N   -0.770077
     2  H    0.437032
     3  H    0.412340
     4  H    0.413520
     5  C   -0.124990
     6  H    0.229431
     7  C    0.666806
     8  C   -0.382795
     9  H    0.253519
    10  H    0.177424
    11  O   -0.531429
    12  C    0.544852
    13  N   -0.753001
    14  H    0.373134
    15  H    0.357904
    16  O   -0.427888
    17  N   -0.573002
    18  H    0.361201
    19  C   -0.108431
    20  H    0.192456
    21  C    0.669273
    22  C   -0.070677
    23  H    0.144941
    24  O   -0.569650
    25  C   -0.254858
    26  H    0.150845
    27  H    0.126695
    28  C   -0.515540
    29  H    0.136235
    30  H    0.161820
    31  H    0.217184
    32  C   -0.473203
    33  H    0.154473
    34  H    0.157045
    35  H    0.161653
    36  N   -0.576994
    37  H    0.347222
    38  C   -0.077196
    39  H    0.170494
    40  C    0.661305
    41  C   -0.466967
    42  H    0.203630
    43  H    0.158729
    44  H    0.171135
    45  O   -0.536325
    46  N   -0.605256
    47  H    0.349946
    48  C   -0.072736
    49  H    0.152851
    50  C    0.658422
    51  C    0.102901
    52  H    0.228135
    53  O   -0.529840
    54  C   -0.482034
    55  H    0.142495
    56  H    0.203060
    57  H    0.110683
    58  O   -0.620532
    59  H    0.384424
    60  N   -0.625997
    61  H    0.338097
    62  C   -0.047091
    63  H    0.234053
    64  C    0.611042
    65  C   -0.050803
    66  H    0.133111
    67  H    0.194780
    68  O   -0.595523
    69  O   -0.614328
    70  H    0.395743
    71  N   -0.599049
    72  H    0.363833
    73  C   -0.213523
    74  H    0.195860
    75  H    0.173448
    76  C    0.594190
    77  O   -0.606983
    78  N   -0.564920
    79  H    0.368749
    80  C   -0.049685
    81  H    0.164762
    82  C    0.597169
    83  C   -0.308202
    84  H    0.110204
    85  H    0.194037
    86  O   -0.617951
    87  C   -0.290889
    88  H    0.156965
    89  H    0.181330
    90  C   -0.285284
    91  H    0.170646
    92  H    0.156636
    93  C   -0.182152
    94  H    0.184008
    95  H    0.200883
    96  N   -0.780718
    97  H    0.385164
    98  H    0.418321
    99  H    0.459742
   100  O   -0.571467
 Sum of Mulliken charges =   1.00000

 Dipole moment (field-independent basis, Debye):
    X=            -12.3082    Y=             -1.1587    Z=             19.2639  Tot=             22.8896
 Quadrupole moment (field-independent basis, Debye-Ang):
   XX=            100.9395   YY=           -274.4873   ZZ=           -211.0348
   XY=              1.9391   XZ=           -149.1472   YZ=            -26.8599

 Normal termination of Gaussian 16 at Mon Jun  6 08:11:25 2022.
