 Gaussian 16, Revision C.01,
 Gaussian 16:  ES64L-G16RevC.01  3-Jul-2019

 ----------------------------------------------------------------------
 # B3LYP/6-31G* empiricaldispersion=gd3 guess=read geom=check nosymm in
 tegral(ultrafinegrid)
 ----------------------------------------------------------------------

 ------------------------------------------------------
 Candidate Structure: Conf:797 Charge calc in gas phase
 ------------------------------------------------------
 Structure from the checkpoint file:  "conf-797.chk"
 Charge =  1 Multiplicity = 1

                          Input orientation:
 ---------------------------------------------------------------------
 Center     Atomic      Atomic             Coordinates (Angstroms)
 Number     Number       Type             X           Y           Z
 ---------------------------------------------------------------------
      1          7           0       -2.423285    1.849399   -3.525531
      2          1           0       -3.003008    2.280486   -4.245039
      3          1           0       -1.596963    1.243691   -4.022877
      4          1           0       -1.897798    2.577849   -3.004909
      5          6           0       -3.227241    1.135352   -2.482494
      6          1           0       -4.292081    1.336550   -2.623852
      7          6           0       -2.733183    1.717657   -1.137424
      8          6           0       -2.964362   -0.377868   -2.568505
      9          1           0       -3.158805   -0.708206   -3.597996
     10          1           0       -1.908778   -0.583517   -2.369758
     11          8           0       -1.729322    2.434762   -1.128560
     12          6           0       -3.887364   -1.176414   -1.657239
     13          7           0       -3.438716   -2.414539   -1.325826
     14          1           0       -3.986106   -2.887525   -0.616134
     15          1           0       -2.436331   -2.529679   -1.236842
     16          8           0       -4.991012   -0.744465   -1.312392
     17          7           0       -3.411329    1.351233   -0.033825
     18          1           0       -4.163641    0.682413   -0.171786
     19          6           0       -2.692606    1.307572    1.239247
     20          1           0       -2.291039    2.308274    1.425612
     21          6           0       -1.523495    0.307162    1.068647
     22          6           0       -3.644119    0.921947    2.399506
     23          1           0       -4.475620    1.640203    2.345258
     24          8           0       -1.666304   -0.718429    0.394205
     25          6           0       -2.934582    1.126183    3.754576
     26          1           0       -2.457427    2.116436    3.757993
     27          1           0       -2.121197    0.395566    3.852803
     28          6           0       -4.220327   -0.497676    2.254631
     29          1           0       -3.426978   -1.248973    2.325396
     30          1           0       -4.951075   -0.692039    3.044622
     31          1           0       -4.733837   -0.650513    1.299163
     32          6           0       -3.865353    1.027186    4.967974
     33          1           0       -3.323466    1.267800    5.888712
     34          1           0       -4.704305    1.728459    4.880667
     35          1           0       -4.280587    0.020972    5.085537
     36          7           0       -0.379233    0.622801    1.697157
     37          1           0       -0.259470    1.496838    2.200251
     38          6           0        0.823289   -0.183363    1.582728
     39          1           0        0.565929   -1.226425    1.804296
     40          6           0        1.818890    0.356038    2.620066
     41          6           0        1.442421   -0.100475    0.170847
     42          1           0        2.322249   -0.749670    0.103851
     43          1           0        0.707213   -0.405922   -0.576551
     44          1           0        1.769068    0.922717   -0.032497
     45          8           0        1.670817    1.452801    3.147003
     46          7           0        2.867245   -0.477059    2.867110
     47          1           0        2.926195   -1.340100    2.338859
     48          6           0        4.163280    0.012611    3.307379
     49          1           0        3.995376    0.838337    4.005467
     50          6           0        4.869407    0.582673    2.045030
     51          6           0        4.912860   -1.147108    4.001293
     52          1           0        5.942453   -0.809676    4.218493
     53          8           0        4.241400    1.217467    1.209389
     54          6           0        4.261899   -1.534389    5.323119
     55          1           0        4.297302   -0.702259    6.034323
     56          1           0        4.791001   -2.390150    5.751724
     57          1           0        3.217757   -1.815268    5.159602
     58          8           0        4.915338   -2.311758    3.183937
     59          1           0        5.202014   -2.104332    2.270218
     60          7           0        6.199275    0.281510    1.839367
     61          1           0        6.621888   -0.433002    2.419217
     62          6           0        6.598723    0.181466    0.446952
     63          1           0        6.465565    1.154614   -0.034939
     64          6           0        5.673404   -0.851704   -0.252727
     65          6           0        8.069212   -0.223263    0.361521
     66          1           0        8.679022    0.579137    0.801800
     67          1           0        8.353931   -0.336288   -0.695843
     68          8           0        5.081837   -1.728515    0.380238
     69          8           0        8.207052   -1.443436    1.078337
     70          1           0        9.149177   -1.641247    1.185700
     71          7           0        5.557400   -0.723527   -1.593094
     72          1           0        5.913024    0.100730   -2.065470
     73          6           0        4.556419   -1.466176   -2.338284
     74          1           0        5.005158   -2.328616   -2.851280
     75          1           0        3.813432   -1.854181   -1.637064
     76          6           0        3.946532   -0.539433   -3.393429
     77          8           0        4.638165    0.329008   -3.933924
     78          7           0        2.656089   -0.787557   -3.708596
     79          1           0        2.069299   -1.309144   -3.057771
     80          6           0        1.863254    0.115416   -4.535280
     81          1           0        2.241319    1.136338   -4.399586
     82          6           0        0.399569    0.084162   -4.014237
     83          6           0        1.908314   -0.228428   -6.032779
     84          1           0        1.540583   -1.253984   -6.174930
     85          1           0        1.202859    0.442172   -6.535800
     86          8           0       -0.397842    0.829182   -4.678920
     87          6           0        3.306685   -0.088751   -6.643522
     88          1           0        3.708592    0.906244   -6.419642
     89          1           0        3.993391   -0.800650   -6.173216
     90          6           0        3.291562   -0.316767   -8.164328
     91          1           0        2.615383    0.407385   -8.640890
     92          1           0        2.905078   -1.321746   -8.387127
     93          6           0        4.694034   -0.164292   -8.731337
     94          1           0        5.102245    0.836464   -8.570353
     95          1           0        5.391408   -0.901752   -8.326580
     96          7           0        4.691575   -0.377963  -10.252649
     97          1           0        5.627251   -0.280165  -10.665541
     98          1           0        4.072276    0.300385  -10.712959
     99          1           0        4.340314   -1.314482  -10.487339
    100          8           0        0.140399   -0.636112   -3.035434
 ---------------------------------------------------------------------

 SCF Done:  E(RB3LYP) =  -2418.56404711     A.U. after    2 cycles

 Alpha  occ. eigenvalues --  -19.22216 -19.19420 -19.19033 -19.18891 -19.17974
 Alpha  occ. eigenvalues --  -19.17676 -19.17317 -19.17063 -19.16597 -19.16230
 Alpha  occ. eigenvalues --  -19.16076 -14.65107 -14.47792 -14.43196 -14.42413
 Alpha  occ. eigenvalues --  -14.41596 -14.41178 -14.40860 -14.40440 -14.39990
 Alpha  occ. eigenvalues --  -10.41776 -10.36140 -10.35906 -10.35714 -10.35440
 Alpha  occ. eigenvalues --  -10.34703 -10.33946 -10.33945 -10.33276 -10.33055
 Alpha  occ. eigenvalues --  -10.32243 -10.31281 -10.30063 -10.29887 -10.29369
 Alpha  occ. eigenvalues --  -10.29246 -10.28729 -10.28368 -10.27885 -10.27728
 Alpha  occ. eigenvalues --  -10.27147 -10.25988 -10.24642 -10.22739 -10.21751
 Alpha  occ. eigenvalues --  -10.21497 -10.21412 -10.21255  -1.18925  -1.11529
 Alpha  occ. eigenvalues --   -1.11346  -1.10766  -1.10100  -1.09523  -1.09380
 Alpha  occ. eigenvalues --   -1.09139  -1.08264  -1.07490  -1.05465  -1.03420
 Alpha  occ. eigenvalues --   -1.01490  -0.99334  -0.98932  -0.98863  -0.97958
 Alpha  occ. eigenvalues --   -0.96982  -0.96759  -0.96138  -0.95120  -0.87600
 Alpha  occ. eigenvalues --   -0.86644  -0.84551  -0.84243  -0.82787  -0.81942
 Alpha  occ. eigenvalues --   -0.80272  -0.79314  -0.78198  -0.77551  -0.77548
 Alpha  occ. eigenvalues --   -0.75634  -0.75075  -0.73952  -0.73448  -0.70684
 Alpha  occ. eigenvalues --   -0.69755  -0.69158  -0.67919  -0.66378  -0.65933
 Alpha  occ. eigenvalues --   -0.65404  -0.65158  -0.64840  -0.64816  -0.64403
 Alpha  occ. eigenvalues --   -0.63737  -0.63306  -0.62621  -0.62302  -0.61886
 Alpha  occ. eigenvalues --   -0.61239  -0.60866  -0.60297  -0.58852  -0.57974
 Alpha  occ. eigenvalues --   -0.57594  -0.56965  -0.56614  -0.56255  -0.55968
 Alpha  occ. eigenvalues --   -0.55771  -0.54717  -0.54532  -0.54004  -0.53730
 Alpha  occ. eigenvalues --   -0.53409  -0.52896  -0.52539  -0.52445  -0.52250
 Alpha  occ. eigenvalues --   -0.51737  -0.51476  -0.50884  -0.50399  -0.50160
 Alpha  occ. eigenvalues --   -0.49804  -0.49608  -0.49122  -0.48944  -0.48603
 Alpha  occ. eigenvalues --   -0.48069  -0.47705  -0.47545  -0.47175  -0.47037
 Alpha  occ. eigenvalues --   -0.46891  -0.46402  -0.46317  -0.46145  -0.45852
 Alpha  occ. eigenvalues --   -0.45478  -0.45255  -0.45144  -0.44468  -0.44245
 Alpha  occ. eigenvalues --   -0.43859  -0.43596  -0.43490  -0.42873  -0.42647
 Alpha  occ. eigenvalues --   -0.42416  -0.42188  -0.42053  -0.41633  -0.41504
 Alpha  occ. eigenvalues --   -0.41203  -0.41155  -0.40929  -0.40440  -0.40417
 Alpha  occ. eigenvalues --   -0.40282  -0.39148  -0.37725  -0.37075  -0.36969
 Alpha  occ. eigenvalues --   -0.36697  -0.35096  -0.34029  -0.34007  -0.33862
 Alpha  occ. eigenvalues --   -0.33421  -0.33198  -0.32648  -0.32372  -0.31997
 Alpha  occ. eigenvalues --   -0.31857  -0.31765  -0.31604  -0.31433  -0.31047
 Alpha  occ. eigenvalues --   -0.30616  -0.30495  -0.29623  -0.29483  -0.28522
 Alpha virt. eigenvalues --   -0.15570  -0.08864  -0.08817  -0.06281  -0.05926
 Alpha virt. eigenvalues --   -0.05636  -0.04904  -0.04436  -0.03799  -0.02874
 Alpha virt. eigenvalues --   -0.02604  -0.01852  -0.01337  -0.01281  -0.00825

 Mulliken charges:
               1
     1  N   -0.810402
     2  H    0.370542
     3  H    0.466479
     4  H    0.398357
     5  C   -0.078774
     6  H    0.201541
     7  C    0.624035
     8  C   -0.396186
     9  H    0.183234
    10  H    0.252170
    11  O   -0.536094
    12  C    0.604583
    13  N   -0.717853
    14  H    0.345741
    15  H    0.365038
    16  O   -0.537999
    17  N   -0.615840
    18  H    0.384754
    19  C   -0.051114
    20  H    0.170718
    21  C    0.652923
    22  C   -0.097399
    23  H    0.143821
    24  O   -0.584388
    25  C   -0.265339
    26  H    0.135759
    27  H    0.147866
    28  C   -0.485320
    29  H    0.158855
    30  H    0.157124
    31  H    0.161685
    32  C   -0.451236
    33  H    0.155347
    34  H    0.146999
    35  H    0.152801
    36  N   -0.606665
    37  H    0.358834
    38  C   -0.047735
    39  H    0.166321
    40  C    0.636223
    41  C   -0.479794
    42  H    0.143026
    43  H    0.203503
    44  H    0.177498
    45  O   -0.527999
    46  N   -0.591740
    47  H    0.343780
    48  C   -0.096494
    49  H    0.200221
    50  C    0.614659
    51  C    0.114123
    52  H    0.114701
    53  O   -0.509740
    54  C   -0.444939
    55  H    0.145099
    56  H    0.164974
    57  H    0.166715
    58  O   -0.668719
    59  H    0.428103
    60  N   -0.605978
    61  H    0.356253
    62  C   -0.075607
    63  H    0.186849
    64  C    0.656891
    65  C   -0.048342
    66  H    0.157181
    67  H    0.138955
    68  O   -0.547288
    69  O   -0.615466
    70  H    0.411696
    71  N   -0.603838
    72  H    0.350997
    73  C   -0.204078
    74  H    0.179996
    75  H    0.203090
    76  C    0.594007
    77  O   -0.553852
    78  N   -0.607020
    79  H    0.360164
    80  C   -0.050951
    81  H    0.178071
    82  C    0.619160
    83  C   -0.262256
    84  H    0.141012
    85  H    0.166813
    86  O   -0.648714
    87  C   -0.265954
    88  H    0.172456
    89  H    0.165474
    90  C   -0.292799
    91  H    0.164578
    92  H    0.164102
    93  C   -0.206095
    94  H    0.232068
    95  H    0.229969
    96  N   -0.732043
    97  H    0.430142
    98  H    0.426719
    99  H    0.426481
   100  O   -0.549225
 Sum of Mulliken charges =   1.00000

 Dipole moment (field-independent basis, Debye):
    X=             20.3076    Y=             -1.2420    Z=            -42.3269  Tot=             46.9628
 Quadrupole moment (field-independent basis, Debye-Ang):
   XX=           -115.7020   YY=           -281.1687   ZZ=            162.2672
   XY=            -19.3360   XZ=           -184.0665   YZ=             10.1240

 Normal termination of Gaussian 16 at Mon Jun  6 08:11:06 2022.
