 Gaussian 16, Revision C.01,
 Gaussian 16:  ES64L-G16RevC.01  3-Jul-2019

 ----------------------------------------------------------------------
 # B3LYP/6-31G* empiricaldispersion=gd3 guess=read geom=check nosymm in
 tegral(ultrafinegrid)
 ----------------------------------------------------------------------

 ------------------------------------------------------
 Candidate Structure: Conf:772 Charge calc in gas phase
 ------------------------------------------------------
 Structure from the checkpoint file:  "conf-772.chk"
 Charge =  1 Multiplicity = 1

                          Input orientation:
 ---------------------------------------------------------------------
 Center     Atomic      Atomic             Coordinates (Angstroms)
 Number     Number       Type             X           Y           Z
 ---------------------------------------------------------------------
      1          7           0       -3.326602    4.097012    4.557988
      2          1           0       -4.317120    4.057174    4.811266
      3          1           0       -3.026222    5.093407    4.298830
      4          1           0       -2.777342    3.689269    5.331713
      5          6           0       -2.997337    3.287785    3.331053
      6          1           0       -3.792450    3.453330    2.599395
      7          6           0       -2.806934    1.826817    3.753054
      8          6           0       -1.632510    3.757308    2.811089
      9          1           0       -0.881035    3.538652    3.581405
     10          1           0       -1.331607    3.142096    1.959002
     11          8           0       -2.319666    1.607440    4.862821
     12          6           0       -1.589579    5.248075    2.512412
     13          7           0       -0.740178    5.603462    1.550969
     14          1           0       -0.601584    6.589129    1.367688
     15          1           0       -0.141713    4.888327    1.105119
     16          8           0       -2.294322    6.048121    3.167936
     17          7           0       -3.035938    0.918527    2.794738
     18          1           0       -3.510258    1.188894    1.941112
     19          6           0       -2.306437   -0.356373    2.736865
     20          1           0       -1.297506   -0.143020    3.098378
     21          6           0       -2.263316   -0.720242    1.246214
     22          6           0       -2.929447   -1.467996    3.619360
     23          1           0       -2.833179   -1.090349    4.646533
     24          8           0       -3.294352   -0.781146    0.576673
     25          6           0       -2.127123   -2.781053    3.516999
     26          1           0       -2.233991   -3.193104    2.503837
     27          1           0       -2.602923   -3.506318    4.188860
     28          6           0       -4.415921   -1.704231    3.324757
     29          1           0       -4.566290   -2.083414    2.310301
     30          1           0       -4.825155   -2.432234    4.033607
     31          1           0       -4.993190   -0.778921    3.423961
     32          6           0       -0.638629   -2.669068    3.873597
     33          1           0       -0.187198   -3.663753    3.957325
     34          1           0       -0.075632   -2.121616    3.109561
     35          1           0       -0.498605   -2.157140    4.833637
     36          7           0       -1.021533   -0.966264    0.756348
     37          1           0       -0.261252   -0.456701    1.209337
     38          6           0       -0.836435   -1.174564   -0.669358
     39          1           0       -1.561133   -1.924970   -1.002974
     40          6           0        0.588104   -1.670513   -0.897373
     41          6           0       -1.046077    0.130184   -1.476827
     42          1           0       -0.824392   -0.004528   -2.540475
     43          1           0       -2.087097    0.439193   -1.360747
     44          1           0       -0.397969    0.917033   -1.080694
     45          8           0        1.456503   -1.506803   -0.025261
     46          7           0        0.852752   -2.183295   -2.118169
     47          1           0        0.098726   -2.234450   -2.797107
     48          6           0        2.182187   -2.134719   -2.721569
     49          1           0        2.810515   -1.541910   -2.059659
     50          6           0        2.021526   -1.381696   -4.054008
     51          6           0        2.836516   -3.513479   -2.897012
     52          1           0        2.070618   -4.212752   -3.256824
     53          8           0        1.168002   -1.724090   -4.867261
     54          6           0        4.022125   -3.493544   -3.858646
     55          1           0        3.697136   -3.278370   -4.880802
     56          1           0        4.517489   -4.470405   -3.861939
     57          1           0        4.757397   -2.737258   -3.561043
     58          8           0        3.262690   -3.893849   -1.572119
     59          1           0        3.480487   -4.839104   -1.586536
     60          7           0        2.880241   -0.347897   -4.170657
     61          1           0        3.438294   -0.124632   -3.349474
     62          6           0        2.855819    0.694803   -5.207068
     63          1           0        3.320290    0.331149   -6.128516
     64          6           0        3.805534    1.756058   -4.603899
     65          6           0        1.431705    1.164745   -5.536985
     66          1           0        0.913493    0.371952   -6.082666
     67          1           0        1.504174    2.059269   -6.171420
     68          8           0        4.984821    1.801116   -4.905016
     69          8           0        0.744231    1.451208   -4.309250
     70          1           0       -0.128492    1.811806   -4.526037
     71          7           0        3.235216    2.484852   -3.587982
     72          1           0        2.239079    2.329602   -3.444589
     73          6           0        4.020539    2.872813   -2.429543
     74          1           0        5.075626    2.808398   -2.705422
     75          1           0        3.797421    3.900922   -2.125573
     76          6           0        3.716538    1.869309   -1.305682
     77          8           0        4.011320    0.658069   -1.455889
     78          7           0        3.074022    2.365654   -0.247621
     79          1           0        2.745154    3.330437   -0.272273
     80          6           0        2.377429    1.611063    0.795480
     81          1           0        2.220615    0.591065    0.442667
     82          6           0        0.987460    2.273696    1.015010
     83          6           0        3.163184    1.620400    2.121667
     84          1           0        3.481284    2.650585    2.320109
     85          1           0        2.474799    1.336602    2.926553
     86          8           0        0.115785    1.547609    1.552846
     87          6           0        4.371987    0.672637    2.107505
     88          1           0        4.897309    0.788060    1.149719
     89          1           0        5.092871    0.972483    2.875957
     90          6           0        3.961885   -0.802450    2.343624
     91          1           0        2.882084   -0.930655    2.192024
     92          1           0        4.152031   -1.078414    3.386352
     93          6           0        4.682239   -1.813115    1.454138
     94          1           0        5.763137   -1.647580    1.428775
     95          1           0        4.494133   -2.838941    1.781956
     96          7           0        4.164732   -1.713072    0.049354
     97          1           0        4.495325   -2.468174   -0.563300
     98          1           0        4.337858   -0.786643   -0.397032
     99          1           0        3.118647   -1.803721    0.035196
    100          8           0        0.896600    3.484104    0.664632
 ---------------------------------------------------------------------

 SCF Done:  E(RB3LYP) =  -2418.62291584     A.U. after    3 cycles

 Alpha  occ. eigenvalues --  -19.26373 -19.25346 -19.23936 -19.22756 -19.22703
 Alpha  occ. eigenvalues --  -19.22368 -19.20974 -19.20016 -19.19853 -19.17922
 Alpha  occ. eigenvalues --  -19.17372 -14.55030 -14.51831 -14.47040 -14.46251
 Alpha  occ. eigenvalues --  -14.45739 -14.45345 -14.44089 -14.43810 -14.43314
 Alpha  occ. eigenvalues --  -10.40188 -10.39771 -10.39261 -10.39229 -10.38243
 Alpha  occ. eigenvalues --  -10.37177 -10.37063 -10.36667 -10.35532 -10.34677
 Alpha  occ. eigenvalues --  -10.34607 -10.33557 -10.32657 -10.32625 -10.32381
 Alpha  occ. eigenvalues --  -10.31714 -10.31089 -10.30300 -10.29861 -10.29040
 Alpha  occ. eigenvalues --  -10.27849 -10.27244 -10.27174 -10.26465 -10.26134
 Alpha  occ. eigenvalues --  -10.24809 -10.24072 -10.23172  -1.15432  -1.15050
 Alpha  occ. eigenvalues --   -1.13644  -1.13520  -1.13325  -1.12986  -1.12045
 Alpha  occ. eigenvalues --   -1.11704  -1.11581  -1.10734  -1.09437  -1.07701
 Alpha  occ. eigenvalues --   -1.03531  -1.02837  -1.02742  -1.02189  -1.01515
 Alpha  occ. eigenvalues --   -1.00556  -1.00252  -0.99768  -0.90348  -0.90071
 Alpha  occ. eigenvalues --   -0.89388  -0.87968  -0.86326  -0.85463  -0.85176
 Alpha  occ. eigenvalues --   -0.81592  -0.81431  -0.80260  -0.78801  -0.78404
 Alpha  occ. eigenvalues --   -0.77137  -0.75062  -0.74139  -0.73236  -0.71237
 Alpha  occ. eigenvalues --   -0.70689  -0.70157  -0.69941  -0.69538  -0.69204
 Alpha  occ. eigenvalues --   -0.68472  -0.67510  -0.67182  -0.66839  -0.66659
 Alpha  occ. eigenvalues --   -0.66530  -0.66105  -0.65676  -0.64588  -0.63729
 Alpha  occ. eigenvalues --   -0.63142  -0.62654  -0.62465  -0.62354  -0.61378
 Alpha  occ. eigenvalues --   -0.60194  -0.59834  -0.59725  -0.58620  -0.58170
 Alpha  occ. eigenvalues --   -0.57627  -0.57222  -0.56696  -0.56042  -0.55749
 Alpha  occ. eigenvalues --   -0.55574  -0.55112  -0.54808  -0.54298  -0.54153
 Alpha  occ. eigenvalues --   -0.53898  -0.53647  -0.53126  -0.52934  -0.52777
 Alpha  occ. eigenvalues --   -0.52627  -0.52483  -0.51908  -0.51474  -0.51155
 Alpha  occ. eigenvalues --   -0.50660  -0.50433  -0.50337  -0.50006  -0.49778
 Alpha  occ. eigenvalues --   -0.49634  -0.49396  -0.49030  -0.48956  -0.48850
 Alpha  occ. eigenvalues --   -0.48659  -0.48254  -0.47797  -0.47619  -0.47332
 Alpha  occ. eigenvalues --   -0.47138  -0.46856  -0.46669  -0.46546  -0.46270
 Alpha  occ. eigenvalues --   -0.46252  -0.46125  -0.45404  -0.45384  -0.44729
 Alpha  occ. eigenvalues --   -0.44217  -0.43574  -0.43377  -0.43239  -0.43075
 Alpha  occ. eigenvalues --   -0.42667  -0.42044  -0.41882  -0.40418  -0.39832
 Alpha  occ. eigenvalues --   -0.39038  -0.38787  -0.37955  -0.37865  -0.37581
 Alpha  occ. eigenvalues --   -0.37331  -0.37096  -0.36577  -0.36377  -0.36248
 Alpha  occ. eigenvalues --   -0.35332  -0.35276  -0.34535  -0.34245  -0.33542
 Alpha  occ. eigenvalues --   -0.33066  -0.32814  -0.32471  -0.32374  -0.31186
 Alpha virt. eigenvalues --   -0.09993  -0.09800  -0.09372  -0.07340  -0.06638
 Alpha virt. eigenvalues --   -0.06112  -0.05808  -0.05385  -0.04419  -0.02918
 Alpha virt. eigenvalues --   -0.02692  -0.01991  -0.01763  -0.00805  -0.00248

 Mulliken charges:
               1
     1  N   -0.748218
     2  H    0.400143
     3  H    0.439534
     4  H    0.404568
     5  C   -0.130586
     6  H    0.196376
     7  C    0.647397
     8  C   -0.407389
     9  H    0.209374
    10  H    0.248921
    11  O   -0.528785
    12  C    0.627983
    13  N   -0.762254
    14  H    0.351074
    15  H    0.422227
    16  O   -0.571537
    17  N   -0.602517
    18  H    0.353113
    19  C   -0.015087
    20  H    0.183910
    21  C    0.587279
    22  C   -0.089970
    23  H    0.155000
    24  O   -0.538682
    25  C   -0.259838
    26  H    0.142383
    27  H    0.148860
    28  C   -0.454960
    29  H    0.174561
    30  H    0.150112
    31  H    0.135799
    32  C   -0.464096
    33  H    0.149111
    34  H    0.143803
    35  H    0.151825
    36  N   -0.598640
    37  H    0.377084
    38  C   -0.067410
    39  H    0.191440
    40  C    0.645752
    41  C   -0.478379
    42  H    0.156493
    43  H    0.191272
    44  H    0.176650
    45  O   -0.559232
    46  N   -0.586670
    47  H    0.362673
    48  C   -0.086635
    49  H    0.159554
    50  C    0.639596
    51  C    0.139209
    52  H    0.162083
    53  O   -0.539588
    54  C   -0.477934
    55  H    0.190224
    56  H    0.160969
    57  H    0.155187
    58  O   -0.652122
    59  H    0.414563
    60  N   -0.654548
    61  H    0.390407
    62  C   -0.009826
    63  H    0.195795
    64  C    0.517877
    65  C   -0.075762
    66  H    0.193791
    67  H    0.161122
    68  O   -0.473402
    69  O   -0.630959
    70  H    0.418704
    71  N   -0.580609
    72  H    0.367304
    73  C   -0.225201
    74  H    0.220548
    75  H    0.170409
    76  C    0.606211
    77  O   -0.599583
    78  N   -0.554427
    79  H    0.358194
    80  C   -0.101772
    81  H    0.176494
    82  C    0.626501
    83  C   -0.268298
    84  H    0.153087
    85  H    0.166301
    86  O   -0.608044
    87  C   -0.285370
    88  H    0.144453
    89  H    0.162686
    90  C   -0.297236
    91  H    0.184376
    92  H    0.177612
    93  C   -0.177068
    94  H    0.193648
    95  H    0.191588
    96  N   -0.822111
    97  H    0.393889
    98  H    0.433965
    99  H    0.447086
   100  O   -0.613402
 Sum of Mulliken charges =   1.00000

 Dipole moment (field-independent basis, Debye):
    X=              3.3809    Y=              2.7594    Z=              4.7220  Tot=              6.4298
 Quadrupole moment (field-independent basis, Debye-Ang):
   XX=           -216.4752   YY=           -211.9890   ZZ=           -227.7441
   XY=            -55.8520   XZ=            -19.0809   YZ=             30.6489

 Normal termination of Gaussian 16 at Mon Jun  6 08:11:46 2022.
