 Gaussian 16, Revision C.01,
 Gaussian 16:  ES64L-G16RevC.01  3-Jul-2019

 ----------------------------------------------------------------------
 # B3LYP/6-31G* empiricaldispersion=gd3 guess=read geom=check nosymm in
 tegral(ultrafinegrid)
 ----------------------------------------------------------------------

 ------------------------------------------------------
 Candidate Structure: Conf:828 Charge calc in gas phase
 ------------------------------------------------------
 Structure from the checkpoint file:  "conf-828.chk"
 Charge =  1 Multiplicity = 1

                          Input orientation:
 ---------------------------------------------------------------------
 Center     Atomic      Atomic             Coordinates (Angstroms)
 Number     Number       Type             X           Y           Z
 ---------------------------------------------------------------------
      1          7           0       -1.677402    7.322316    0.455305
      2          1           0       -2.203295    8.186104    0.573853
      3          1           0       -1.104143    7.024209   -1.087546
      4          1           0       -0.764832    7.456546    0.890875
      5          6           0       -2.403795    6.191462    1.053022
      6          1           0       -2.856307    6.444708    2.020177
      7          6           0       -1.445163    5.008087    1.253108
      8          6           0       -3.529347    5.764419    0.083121
      9          1           0       -4.023353    6.669504   -0.294483
     10          1           0       -3.092536    5.252226   -0.781381
     11          8           0       -0.354976    4.936857    0.672027
     12          6           0       -4.601045    4.884142    0.725385
     13          7           0       -5.537308    4.402850   -0.125153
     14          1           0       -6.212652    3.747827    0.246021
     15          1           0       -5.398108    4.418163   -1.125009
     16          8           0       -4.653145    4.676539    1.940440
     17          7           0       -1.906270    4.035816    2.068224
     18          1           0       -2.879854    4.130927    2.358506
     19          6           0       -1.362765    2.694315    1.944393
     20          1           0       -0.280222    2.771093    2.076063
     21          6           0       -1.650648    2.178970    0.512991
     22          6           0       -1.946941    1.762279    3.039704
     23          1           0       -1.824687    2.320860    3.978726
     24          8           0       -2.599373    2.586307   -0.153238
     25          6           0       -1.165418    0.439057    3.186874
     26          1           0       -1.311833   -0.183439    2.294418
     27          1           0       -1.629796   -0.116013    4.010942
     28          6           0       -3.444100    1.477357    2.830387
     29          1           0       -3.606043    0.887663    1.920651
     30          1           0       -3.835518    0.903253    3.676628
     31          1           0       -4.043652    2.388238    2.739740
     32          6           0        0.333825    0.581523    3.481793
     33          1           0        0.771767   -0.393176    3.719818
     34          1           0        0.900745    0.984310    2.631844
     35          1           0        0.507177    1.247147    4.335795
     36          7           0       -0.764884    1.253759    0.063226
     37          1           0       -0.095581    0.837486    0.701405
     38          6           0       -0.915195    0.528352   -1.189812
     39          1           0       -1.907713    0.054624   -1.218058
     40          6           0        0.148699   -0.584050   -1.145262
     41          6           0       -0.767254    1.459667   -2.403662
     42          1           0       -0.985262    0.936106   -3.341144
     43          1           0       -1.481099    2.278616   -2.302174
     44          1           0        0.248848    1.854704   -2.445123
     45          8           0        0.740756   -0.843985   -0.085171
     46          7           0        0.415059   -1.221791   -2.300188
     47          1           0       -0.178285   -1.072478   -3.104853
     48          6           0        1.415816   -2.287024   -2.420844
     49          1           0        1.300738   -2.967012   -1.568656
     50          6           0        2.810512   -1.614541   -2.390031
     51          6           0        1.196368   -3.060165   -3.727794
     52          1           0        1.477605   -2.399071   -4.560663
     53          8           0        3.417978   -1.375232   -3.439185
     54          6           0        2.046309   -4.326711   -3.778218
     55          1           0        3.112387   -4.084574   -3.732500
     56          1           0        1.869586   -4.861736   -4.718070
     57          1           0        1.787817   -4.995126   -2.950084
     58          8           0       -0.203340   -3.342031   -3.765834
     59          1           0       -0.383300   -3.855206   -4.568879
     60          7           0        3.244901   -1.324296   -1.133545
     61          1           0        2.511380   -1.474118   -0.438625
     62          6           0        4.092908   -0.184092   -0.763932
     63          1           0        4.348732   -0.344508    0.290195
     64          6           0        3.233621    1.090870   -0.902880
     65          6           0        5.444206   -0.083401   -1.503536
     66          1           0        5.965314   -1.042364   -1.381735
     67          1           0        6.039822    0.690685   -1.009371
     68          8           0        2.569001    1.291045   -1.921544
     69          8           0        5.367269    0.268149   -2.873520
     70          1           0        4.746961   -0.390777   -3.288656
     71          7           0        3.212077    1.940483    0.146790
     72          1           0        3.796287    1.768775    0.952212
     73          6           0        2.337371    3.102514    0.141966
     74          1           0        1.293308    2.782308    0.085657
     75          1           0        2.467840    3.640065    1.085082
     76          6           0        2.645813    4.070267   -1.008103
     77          8           0        3.784756    4.156738   -1.496353
     78          7           0        1.595680    4.796220   -1.412513
     79          1           0        0.725780    4.706596   -0.884201
     80          6           0        1.715867    6.009260   -2.245839
     81          1           0        2.724942    6.403712   -2.106151
     82          6           0        0.731192    6.985778   -1.590051
     83          6           0        1.436071    5.797716   -3.744845
     84          1           0        0.420442    5.406433   -3.869411
     85          1           0        1.445434    6.793094   -4.205668
     86          8           0       -0.530426    6.633487   -1.840520
     87          6           0        2.460992    4.895910   -4.460374
     88          1           0        2.509807    5.164709   -5.522722
     89          1           0        3.453068    5.109288   -4.042113
     90          6           0        2.124740    3.400040   -4.331477
     91          1           0        1.300376    3.149902   -5.010781
     92          1           0        1.767302    3.179544   -3.325497
     93          6           0        3.276248    2.444758   -4.630912
     94          1           0        2.973297    1.412746   -4.447193
     95          1           0        3.640098    2.533167   -5.658231
     96          7           0        4.454170    2.702064   -3.713779
     97          1           0        5.170355    3.274984   -4.162911
     98          1           0        4.883703    1.794716   -3.398828
     99          1           0        4.158456    3.211423   -2.845927
    100          8           0        1.076673    7.888288   -0.854806
 ---------------------------------------------------------------------

 SCF Done:  E(RB3LYP) =  -2418.65780612     A.U. after    1 cycles

 Alpha  occ. eigenvalues --  -19.25538 -19.24244 -19.24209 -19.23578 -19.23419
 Alpha  occ. eigenvalues --  -19.23407 -19.22103 -19.21220 -19.20363 -19.20202
 Alpha  occ. eigenvalues --  -19.19859 -14.51846 -14.48360 -14.47342 -14.46823
 Alpha  occ. eigenvalues --  -14.45385 -14.44788 -14.43875 -14.43513 -14.42654
 Alpha  occ. eigenvalues --  -10.40734 -10.40536 -10.40098 -10.39243 -10.38068
 Alpha  occ. eigenvalues --  -10.37877 -10.37695 -10.37271 -10.35520 -10.35095
 Alpha  occ. eigenvalues --  -10.34126 -10.33850 -10.33849 -10.33463 -10.33384
 Alpha  occ. eigenvalues --  -10.31974 -10.31487 -10.31401 -10.28581 -10.28223
 Alpha  occ. eigenvalues --  -10.27734 -10.27719 -10.27170 -10.26914 -10.26611
 Alpha  occ. eigenvalues --  -10.26247 -10.25909 -10.24372  -1.16463  -1.15623
 Alpha  occ. eigenvalues --   -1.15279  -1.14948  -1.13447  -1.13078  -1.12616
 Alpha  occ. eigenvalues --   -1.11848  -1.11753  -1.11692  -1.07207  -1.06849
 Alpha  occ. eigenvalues --   -1.04189  -1.03969  -1.03279  -1.02066  -1.01519
 Alpha  occ. eigenvalues --   -1.00954  -0.99049  -0.98746  -0.90047  -0.89748
 Alpha  occ. eigenvalues --   -0.89215  -0.87713  -0.86245  -0.85667  -0.85339
 Alpha  occ. eigenvalues --   -0.82915  -0.81743  -0.80356  -0.79657  -0.78870
 Alpha  occ. eigenvalues --   -0.76759  -0.75646  -0.73864  -0.73540  -0.72000
 Alpha  occ. eigenvalues --   -0.70861  -0.70584  -0.69483  -0.68633  -0.68197
 Alpha  occ. eigenvalues --   -0.68011  -0.67380  -0.67277  -0.66639  -0.66476
 Alpha  occ. eigenvalues --   -0.66321  -0.65743  -0.65309  -0.64321  -0.63769
 Alpha  occ. eigenvalues --   -0.63219  -0.62391  -0.61844  -0.61210  -0.60574
 Alpha  occ. eigenvalues --   -0.60065  -0.59693  -0.59076  -0.58608  -0.58345
 Alpha  occ. eigenvalues --   -0.57860  -0.57171  -0.56841  -0.56731  -0.56027
 Alpha  occ. eigenvalues --   -0.55910  -0.55311  -0.55227  -0.54774  -0.54751
 Alpha  occ. eigenvalues --   -0.54395  -0.53632  -0.53529  -0.53166  -0.52856
 Alpha  occ. eigenvalues --   -0.52619  -0.52332  -0.51970  -0.51672  -0.51569
 Alpha  occ. eigenvalues --   -0.51329  -0.50941  -0.50698  -0.50477  -0.50304
 Alpha  occ. eigenvalues --   -0.49951  -0.49697  -0.49570  -0.49347  -0.49202
 Alpha  occ. eigenvalues --   -0.48743  -0.48448  -0.48226  -0.47865  -0.47674
 Alpha  occ. eigenvalues --   -0.47313  -0.47119  -0.46998  -0.46907  -0.46604
 Alpha  occ. eigenvalues --   -0.46109  -0.45552  -0.45336  -0.45103  -0.44771
 Alpha  occ. eigenvalues --   -0.44665  -0.44194  -0.43674  -0.43287  -0.42815
 Alpha  occ. eigenvalues --   -0.42586  -0.42308  -0.42084  -0.41136  -0.40472
 Alpha  occ. eigenvalues --   -0.40263  -0.40220  -0.39142  -0.38826  -0.38131
 Alpha  occ. eigenvalues --   -0.37498  -0.37331  -0.36856  -0.36422  -0.35999
 Alpha  occ. eigenvalues --   -0.35792  -0.35695  -0.35568  -0.35495  -0.34739
 Alpha  occ. eigenvalues --   -0.34624  -0.34203  -0.33680  -0.33249  -0.32525
 Alpha virt. eigenvalues --   -0.11553  -0.09531  -0.09034  -0.07806  -0.07476
 Alpha virt. eigenvalues --   -0.06276  -0.06232  -0.05287  -0.04911  -0.03696
 Alpha virt. eigenvalues --   -0.02260  -0.01271  -0.00723  -0.00325   0.00116

 Mulliken charges:
               1
     1  N   -0.795844
     2  H    0.337646
     3  H    0.468478
     4  H    0.358160
     5  C   -0.056762
     6  H    0.184938
     7  C    0.619020
     8  C   -0.378088
     9  H    0.186217
    10  H    0.199423
    11  O   -0.569906
    12  C    0.638542
    13  N   -0.731133
    14  H    0.356619
    15  H    0.351033
    16  O   -0.533367
    17  N   -0.611395
    18  H    0.394066
    19  C   -0.060222
    20  H    0.161266
    21  C    0.645765
    22  C   -0.103413
    23  H    0.153078
    24  O   -0.554865
    25  C   -0.271056
    26  H    0.142578
    27  H    0.157756
    28  C   -0.484414
    29  H    0.151512
    30  H    0.158525
    31  H    0.182063
    32  C   -0.459624
    33  H    0.162909
    34  H    0.120347
    35  H    0.158367
    36  N   -0.645970
    37  H    0.379467
    38  C   -0.029541
    39  H    0.192655
    40  C    0.656085
    41  C   -0.491987
    42  H    0.138153
    43  H    0.199829
    44  H    0.196183
    45  O   -0.580366
    46  N   -0.604641
    47  H    0.361335
    48  C   -0.059369
    49  H    0.191668
    50  C    0.660707
    51  C    0.114529
    52  H    0.151818
    53  O   -0.561955
    54  C   -0.480154
    55  H    0.174669
    56  H    0.161476
    57  H    0.169005
    58  O   -0.639697
    59  H    0.410041
    60  N   -0.587608
    61  H    0.384340
    62  C   -0.125448
    63  H    0.169598
    64  C    0.649828
    65  C   -0.036212
    66  H    0.178241
    67  H    0.168631
    68  O   -0.551915
    69  O   -0.661890
    70  H    0.454346
    71  N   -0.582370
    72  H    0.350788
    73  C   -0.257914
    74  H    0.211173
    75  H    0.208065
    76  C    0.634003
    77  O   -0.585933
    78  N   -0.620096
    79  H    0.412920
    80  C   -0.008251
    81  H    0.188866
    82  C    0.554870
    83  C   -0.275071
    84  H    0.167146
    85  H    0.164155
    86  O   -0.613231
    87  C   -0.277201
    88  H    0.153607
    89  H    0.135472
    90  C   -0.318583
    91  H    0.162374
    92  H    0.206966
    93  C   -0.167907
    94  H    0.208201
    95  H    0.181390
    96  N   -0.828445
    97  H    0.383254
    98  H    0.441706
    99  H    0.460635
   100  O   -0.474662
 Sum of Mulliken charges =   1.00000

 Dipole moment (field-independent basis, Debye):
    X=              5.7156    Y=              6.4165    Z=             -9.0192  Tot=             12.4574
 Quadrupole moment (field-independent basis, Debye-Ang):
   XX=           -208.5331   YY=           -229.2863   ZZ=           -217.1080
   XY=            -13.1427   XZ=            -17.0012   YZ=             -5.2695

 Normal termination of Gaussian 16 at Mon Jun  6 08:10:58 2022.
