 Gaussian 16, Revision C.01,
 Gaussian 16:  ES64L-G16RevC.01  3-Jul-2019

 ----------------------------------------------------------------------
 # B3LYP/6-31G* empiricaldispersion=gd3 guess=read geom=check nosymm in
 tegral(ultrafinegrid)
 ----------------------------------------------------------------------

 ------------------------------------------------------
 Candidate Structure: Conf:472 Charge calc in gas phase
 ------------------------------------------------------
 Structure from the checkpoint file:  "conf-472.chk"
 Charge =  1 Multiplicity = 1

                          Input orientation:
 ---------------------------------------------------------------------
 Center     Atomic      Atomic             Coordinates (Angstroms)
 Number     Number       Type             X           Y           Z
 ---------------------------------------------------------------------
      1          7           0       -4.234888   -3.880416    3.367344
      2          1           0       -4.615628   -4.004158    4.307475
      3          1           0       -3.986994   -4.853746    2.900487
      4          1           0       -4.905856   -3.308658    2.827196
      5          6           0       -2.936949   -3.122052    3.369766
      6          1           0       -2.432227   -3.313509    4.320579
      7          6           0       -3.309439   -1.637546    3.197652
      8          6           0       -2.068006   -3.604582    2.187771
      9          1           0       -2.515447   -3.247993    1.251159
     10          1           0       -1.072319   -3.156696    2.245726
     11          8           0       -4.425855   -1.351127    2.767878
     12          6           0       -1.988985   -5.135949    2.110166
     13          7           0       -0.815410   -5.644873    1.798031
     14          1           0       -0.673521   -6.637865    1.606995
     15          1           0        0.009624   -5.038887    1.672441
     16          8           0       -3.028176   -5.820217    2.306390
     17          7           0       -2.358685   -0.732412    3.507322
     18          1           0       -1.408762   -1.069304    3.614076
     19          6           0       -2.494055    0.641011    3.016336
     20          1           0       -3.507960    0.970364    3.263319
     21          6           0       -2.299622    0.587611    1.485395
     22          6           0       -1.461033    1.584033    3.690130
     23          1           0       -0.464790    1.282068    3.329993
     24          8           0       -1.522165   -0.245104    0.996934
     25          6           0       -1.492854    1.431842    5.226819
     26          1           0       -1.387898    0.373991    5.494158
     27          1           0       -2.483992    1.737840    5.590701
     28          6           0       -1.713296    3.043461    3.274474
     29          1           0       -2.686672    3.384963    3.650703
     30          1           0       -0.948891    3.699338    3.697170
     31          1           0       -1.691824    3.193402    2.192340
     32          6           0       -0.400960    2.227666    5.951580
     33          1           0       -0.404243    1.993489    7.021008
     34          1           0        0.593195    1.980900    5.558900
     35          1           0       -0.541510    3.308298    5.854064
     36          7           0       -2.986414    1.479964    0.749615
     37          1           0       -3.584465    2.144687    1.223281
     38          6           0       -2.801101    1.657783   -0.701779
     39          1           0       -2.898692    0.669373   -1.162890
     40          6           0       -1.374205    2.221537   -0.929246
     41          6           0       -3.857236    2.614128   -1.240868
     42          1           0       -3.773401    2.686091   -2.328645
     43          1           0       -4.864496    2.263083   -0.994551
     44          1           0       -3.697761    3.615363   -0.829199
     45          8           0       -1.123920    3.412426   -0.782495
     46          7           0       -0.463246    1.264651   -1.218383
     47          1           0       -0.763026    0.299842   -1.308629
     48          6           0        0.972966    1.429972   -1.262740
     49          1           0        1.233637    2.352296   -1.793855
     50          6           0        1.505580    0.169599   -1.980532
     51          6           0        1.608527    1.449411    0.164651
     52          1           0        2.697117    1.493837    0.041280
     53          8           0        0.771789   -0.786054   -2.212800
     54          6           0        1.178773    2.615906    1.043117
     55          1           0        1.348035    3.575764    0.548095
     56          1           0        1.743779    2.582414    1.980056
     57          1           0        0.116584    2.553194    1.274169
     58          8           0        1.373511    0.194258    0.812198
     59          1           0        0.407192    0.030542    0.851398
     60          7           0        2.846213    0.126590   -2.206247
     61          1           0        3.420440    0.924401   -1.967890
     62          6           0        3.511434   -1.112868   -2.582342
     63          1           0        2.864372   -1.641832   -3.288136
     64          6           0        3.742079   -2.080789   -1.407470
     65          6           0        4.850134   -0.820512   -3.302155
     66          1           0        5.560823   -0.383689   -2.575763
     67          1           0        4.662636   -0.069350   -4.076768
     68          8           0        4.433674   -3.098186   -1.593372
     69          8           0        5.367261   -1.959291   -3.937388
     70          1           0        5.393159   -2.659222   -3.256647
     71          7           0        3.193379   -1.790113   -0.213002
     72          1           0        2.505159   -1.047495   -0.095080
     73          6           0        3.306361   -2.699398    0.920204
     74          1           0        4.325452   -3.094433    0.962617
     75          1           0        3.089441   -2.137948    1.829081
     76          6           0        2.290541   -3.843938    0.819606
     77          8           0        1.284800   -3.861807    1.549830
     78          7           0        2.566122   -4.757071   -0.123835
     79          1           0        3.422670   -4.621286   -0.655096
     80          6           0        1.727854   -5.910554   -0.412440
     81          1           0        0.681194   -5.596024   -0.413653
     82          6           0        1.896371   -7.051220    0.611201
     83          6           0        2.090869   -6.462202   -1.817811
     84          1           0        1.650019   -5.792515   -2.563769
     85          1           0        3.178871   -6.395953   -1.946366
     86          8           0        0.815152   -7.723014    0.841437
     87          6           0        1.647312   -7.921866   -2.080990
     88          1           0        0.709791   -8.114273   -1.549201
     89          1           0        1.423050   -8.027731   -3.147132
     90          6           0        2.722653   -8.982402   -1.698656
     91          1           0        3.535082   -8.513120   -1.133540
     92          1           0        3.179861   -9.372014   -2.614934
     93          6           0        2.235773  -10.206288   -0.909584
     94          1           0        1.263575  -10.558996   -1.266530
     95          1           0        2.952230  -11.027595   -1.002021
     96          7           0        2.083422   -9.919364    0.560839
     97          1           0        1.870065  -10.760836    1.099082
     98          1           0        1.346402   -9.115922    0.763052
     99          1           0        2.925833   -9.461943    0.943005
    100          8           0        3.037850   -7.355110    0.993803
 ---------------------------------------------------------------------

 SCF Done:  E(RB3LYP) =  -2418.61704786     A.U. after    3 cycles

 Alpha  occ. eigenvalues --  -19.25150 -19.23865 -19.23179 -19.22773 -19.21014
 Alpha  occ. eigenvalues --  -19.20671 -19.20491 -19.19461 -19.19367 -19.18518
 Alpha  occ. eigenvalues --  -19.17420 -14.54254 -14.50384 -14.48522 -14.47240
 Alpha  occ. eigenvalues --  -14.45625 -14.44184 -14.43945 -14.43671 -14.43511
 Alpha  occ. eigenvalues --  -10.41954 -10.40039 -10.39716 -10.38560 -10.38163
 Alpha  occ. eigenvalues --  -10.37319 -10.37103 -10.36808 -10.35328 -10.34255
 Alpha  occ. eigenvalues --  -10.33371 -10.33367 -10.32749 -10.32410 -10.32220
 Alpha  occ. eigenvalues --  -10.31360 -10.30640 -10.30624 -10.29919 -10.29788
 Alpha  occ. eigenvalues --  -10.27629 -10.27316 -10.26784 -10.26591 -10.26576
 Alpha  occ. eigenvalues --  -10.26444 -10.25478 -10.25386  -1.17419  -1.14626
 Alpha  occ. eigenvalues --   -1.14419  -1.13557  -1.12365  -1.11746  -1.11365
 Alpha  occ. eigenvalues --   -1.11216  -1.10857  -1.09189  -1.07333  -1.05529
 Alpha  occ. eigenvalues --   -1.05133  -1.03192  -1.02253  -1.02201  -1.00706
 Alpha  occ. eigenvalues --   -1.00653  -1.00085  -0.99680  -0.92102  -0.90035
 Alpha  occ. eigenvalues --   -0.88554  -0.87730  -0.85960  -0.84669  -0.83581
 Alpha  occ. eigenvalues --   -0.83299  -0.80904  -0.80790  -0.79522  -0.78372
 Alpha  occ. eigenvalues --   -0.77526  -0.74446  -0.72938  -0.72043  -0.71404
 Alpha  occ. eigenvalues --   -0.71221  -0.70510  -0.70501  -0.70058  -0.69336
 Alpha  occ. eigenvalues --   -0.68534  -0.68211  -0.67729  -0.67431  -0.66321
 Alpha  occ. eigenvalues --   -0.66245  -0.65648  -0.65060  -0.63946  -0.63115
 Alpha  occ. eigenvalues --   -0.62652  -0.62505  -0.61543  -0.61281  -0.60850
 Alpha  occ. eigenvalues --   -0.60480  -0.59392  -0.59139  -0.58735  -0.58321
 Alpha  occ. eigenvalues --   -0.57670  -0.57193  -0.56787  -0.56587  -0.56089
 Alpha  occ. eigenvalues --   -0.55916  -0.55473  -0.55276  -0.54496  -0.54348
 Alpha  occ. eigenvalues --   -0.53967  -0.53547  -0.53112  -0.52672  -0.52454
 Alpha  occ. eigenvalues --   -0.52406  -0.51914  -0.51685  -0.51476  -0.51059
 Alpha  occ. eigenvalues --   -0.50937  -0.50343  -0.50039  -0.49931  -0.49832
 Alpha  occ. eigenvalues --   -0.49498  -0.48984  -0.48700  -0.48559  -0.48057
 Alpha  occ. eigenvalues --   -0.47783  -0.47730  -0.47321  -0.47209  -0.47117
 Alpha  occ. eigenvalues --   -0.46984  -0.46668  -0.46649  -0.46497  -0.45922
 Alpha  occ. eigenvalues --   -0.45752  -0.45691  -0.45181  -0.45043  -0.44892
 Alpha  occ. eigenvalues --   -0.44359  -0.43952  -0.43830  -0.42613  -0.42169
 Alpha  occ. eigenvalues --   -0.42007  -0.41830  -0.41490  -0.41275  -0.40770
 Alpha  occ. eigenvalues --   -0.40284  -0.39663  -0.38598  -0.37912  -0.37633
 Alpha  occ. eigenvalues --   -0.37123  -0.36854  -0.36789  -0.36455  -0.36335
 Alpha  occ. eigenvalues --   -0.35620  -0.34936  -0.33747  -0.33551  -0.33151
 Alpha  occ. eigenvalues --   -0.32775  -0.32358  -0.32113  -0.31766  -0.31032
 Alpha virt. eigenvalues --   -0.11237  -0.09115  -0.08366  -0.07368  -0.07206
 Alpha virt. eigenvalues --   -0.06637  -0.06102  -0.05375  -0.04664  -0.03931
 Alpha virt. eigenvalues --   -0.03031  -0.01862  -0.01644  -0.00698   0.00424

 Mulliken charges:
               1
     1  N   -0.767145
     2  H    0.395944
     3  H    0.454431
     4  H    0.406166
     5  C   -0.125338
     6  H    0.208352
     7  C    0.652435
     8  C   -0.408622
     9  H    0.218608
    10  H    0.224632
    11  O   -0.523632
    12  C    0.639613
    13  N   -0.790220
    14  H    0.392560
    15  H    0.431124
    16  O   -0.583001
    17  N   -0.589124
    18  H    0.352733
    19  C   -0.056800
    20  H    0.181980
    21  C    0.645634
    22  C   -0.120352
    23  H    0.145903
    24  O   -0.578244
    25  C   -0.250140
    26  H    0.132276
    27  H    0.145225
    28  C   -0.492407
    29  H    0.150392
    30  H    0.180977
    31  H    0.177212
    32  C   -0.454211
    33  H    0.163089
    34  H    0.149690
    35  H    0.163194
    36  N   -0.584964
    37  H    0.351113
    38  C   -0.040231
    39  H    0.173287
    40  C    0.627925
    41  C   -0.487550
    42  H    0.185504
    43  H    0.163687
    44  H    0.189036
    45  O   -0.528776
    46  N   -0.605749
    47  H    0.365840
    48  C   -0.070454
    49  H    0.187166
    50  C    0.609364
    51  C    0.113661
    52  H    0.135881
    53  O   -0.520316
    54  C   -0.453754
    55  H    0.175336
    56  H    0.157099
    57  H    0.161528
    58  O   -0.676254
    59  H    0.443141
    60  N   -0.630370
    61  H    0.342588
    62  C   -0.065696
    63  H    0.217380
    64  C    0.634993
    65  C   -0.033847
    66  H    0.123433
    67  H    0.162244
    68  O   -0.574967
    69  O   -0.621279
    70  H    0.421228
    71  N   -0.632481
    72  H    0.426724
    73  C   -0.243276
    74  H    0.201479
    75  H    0.185613
    76  C    0.617348
    77  O   -0.566633
    78  N   -0.581901
    79  H    0.383122
    80  C   -0.013874
    81  H    0.153481
    82  C    0.608241
    83  C   -0.311307
    84  H    0.166575
    85  H    0.161363
    86  O   -0.655341
    87  C   -0.295374
    88  H    0.169028
    89  H    0.157794
    90  C   -0.296334
    91  H    0.187699
    92  H    0.170574
    93  C   -0.178233
    94  H    0.191646
    95  H    0.186267
    96  N   -0.762109
    97  H    0.377887
    98  H    0.434617
    99  H    0.400653
   100  O   -0.563409
 Sum of Mulliken charges =   1.00000

 Dipole moment (field-independent basis, Debye):
    X=             -5.5403    Y=            -17.5719    Z=             10.0852  Tot=             21.0042
 Quadrupole moment (field-independent basis, Debye-Ang):
   XX=           -235.9225   YY=            -79.9924   ZZ=           -238.5259
   XY=             -9.1625   XZ=            -30.3312   YZ=            -12.7214

 Normal termination of Gaussian 16 at Mon Jun  6 08:12:20 2022.
