 Gaussian 16, Revision C.01,
 Gaussian 16:  ES64L-G16RevC.01  3-Jul-2019

 ----------------------------------------------------------------------
 # B3LYP/6-31G* empiricaldispersion=gd3 guess=read geom=check nosymm in
 tegral(ultrafinegrid)
 ----------------------------------------------------------------------

 ------------------------------------------------------
 Candidate Structure: Conf:771 Charge calc in gas phase
 ------------------------------------------------------
 Structure from the checkpoint file:  "conf-771.chk"
 Charge =  1 Multiplicity = 1

                          Input orientation:
 ---------------------------------------------------------------------
 Center     Atomic      Atomic             Coordinates (Angstroms)
 Number     Number       Type             X           Y           Z
 ---------------------------------------------------------------------
      1          7           0       -3.513097    1.824560    5.878802
      2          1           0       -3.285055    1.303659    6.731056
      3          1           0       -4.384288    2.340473    6.028230
      4          1           0       -2.695791    2.478239    5.656702
      5          6           0       -3.518127    0.959124    4.634211
      6          1           0       -3.701711   -0.077046    4.924170
      7          6           0       -2.071446    1.167232    4.093100
      8          6           0       -4.595218    1.474793    3.652596
      9          1           0       -5.587885    1.163812    4.000018
     10          1           0       -4.555479    2.566864    3.603359
     11          8           0       -1.479697    2.187551    4.476848
     12          6           0       -4.277663    0.978811    2.228667
     13          7           0       -4.610026   -0.312605    1.972405
     14          1           0       -4.227536   -0.734112    1.131702
     15          1           0       -5.281650   -0.832492    2.518014
     16          8           0       -3.637478    1.687387    1.470641
     17          7           0       -1.612126    0.232680    3.274474
     18          1           0       -2.233456   -0.509741    2.945365
     19          6           0       -0.490106    0.419538    2.341635
     20          1           0       -0.225729    1.481258    2.343638
     21          6           0       -1.087647   -0.003209    0.981230
     22          6           0        0.739292   -0.433429    2.747593
     23          1           0        0.392470   -1.475093    2.811677
     24          8           0       -1.934199   -0.907246    0.951270
     25          6           0        1.248143    0.003945    4.136131
     26          1           0        0.399765    0.056694    4.830030
     27          1           0        1.644247    1.026620    4.063301
     28          6           0        1.832240   -0.354582    1.670658
     29          1           0        2.123152    0.691120    1.491308
     30          1           0        2.729815   -0.886994    1.996561
     31          1           0        1.518202   -0.804011    0.724347
     32          6           0        2.308598   -0.927425    4.733702
     33          1           0        2.574669   -0.609422    5.747518
     34          1           0        1.939943   -1.958874    4.791580
     35          1           0        3.229899   -0.936354    4.143102
     36          7           0       -0.648492    0.660438   -0.089495
     37          1           0        0.121571    1.318181   -0.023662
     38          6           0       -1.042056    0.308602   -1.444595
     39          1           0       -1.160336   -0.778042   -1.488484
     40          6           0        0.126519    0.696763   -2.349057
     41          6           0       -2.338401    1.030356   -1.853688
     42          1           0       -2.702359    0.663830   -2.818616
     43          1           0       -3.104122    0.861260   -1.092783
     44          1           0       -2.168768    2.109431   -1.935554
     45          8           0        1.082997    1.344540   -1.923444
     46          7           0       -0.012780    0.362288   -3.660623
     47          1           0       -0.675152   -0.382495   -3.871343
     48          6           0        1.151475    0.278409   -4.541797
     49          1           0        1.924464   -0.311698   -4.052819
     50          6           0        1.848938    1.609635   -4.784142
     51          6           0        0.711472   -0.552730   -5.779584
     52          1           0       -0.060662    0.010746   -6.318909
     53          8           0        3.047433    1.621197   -5.133518
     54          6           0        1.861654   -0.875838   -6.728201
     55          1           0        2.351894    0.030835   -7.096922
     56          1           0        1.474543   -1.443007   -7.578935
     57          1           0        2.595868   -1.505499   -6.216054
     58          8           0        0.072172   -1.725255   -5.301211
     59          1           0        0.692497   -2.180379   -4.673762
     60          7           0        1.146984    2.725252   -4.527028
     61          1           0        0.206120    2.603789   -4.162753
     62          6           0        1.743154    4.005326   -4.133428
     63          1           0        2.557894    4.248984   -4.821728
     64          6           0        2.268217    3.845793   -2.677036
     65          6           0        0.631706    5.064176   -4.178859
     66          1           0        0.290978    5.195055   -5.209746
     67          1           0        1.030217    6.021970   -3.817059
     68          8           0        1.616852    4.237245   -1.707620
     69          8           0       -0.489169    4.634288   -3.418579
     70          1           0       -0.147100    4.579933   -2.503193
     71          7           0        3.447906    3.187831   -2.570318
     72          1           0        3.880641    2.858052   -3.426572
     73          6           0        3.834688    2.458450   -1.360111
     74          1           0        4.684470    2.940483   -0.864054
     75          1           0        2.980925    2.436801   -0.683048
     76          6           0        4.268751    1.077484   -1.851216
     77          8           0        5.199505    1.058372   -2.687964
     78          7           0        3.608015   -0.017162   -1.450367
     79          1           0        2.733158    0.109262   -0.946558
     80          6           0        3.609586   -1.232302   -2.281450
     81          1           0        3.777226   -0.870432   -3.286614
     82          6           0        2.178543   -1.856494   -2.365082
     83          6           0        4.687307   -2.282541   -1.947093
     84          1           0        4.793821   -2.331624   -0.857661
     85          1           0        4.309537   -3.257789   -2.276616
     86          8           0        1.360874   -1.597192   -1.458202
     87          6           0        6.063324   -2.027685   -2.593847
     88          1           0        6.365129   -0.990582   -2.417776
     89          1           0        6.810983   -2.650590   -2.087903
     90          6           0        6.165363   -2.373145   -4.099740
     91          1           0        6.057222   -3.458567   -4.222090
     92          1           0        7.175310   -2.126174   -4.455297
     93          6           0        5.128267   -1.757915   -5.045422
     94          1           0        5.295808   -2.080390   -6.076378
     95          1           0        4.116561   -2.055688   -4.759473
     96          7           0        5.176684   -0.243231   -5.047307
     97          1           0        4.298967    0.215886   -5.374211
     98          1           0        5.952670    0.106054   -5.614817
     99          1           0        5.289291    0.156812   -4.073160
    100          8           0        2.019029   -2.521795   -3.431084
 ---------------------------------------------------------------------

 SCF Done:  E(RB3LYP) =  -2418.58799953     A.U. after    3 cycles

 Alpha  occ. eigenvalues --  -19.26580 -19.22984 -19.20831 -19.20529 -19.20290
 Alpha  occ. eigenvalues --  -19.20045 -19.20009 -19.19101 -19.18996 -19.14383
 Alpha  occ. eigenvalues --  -19.14157 -14.60688 -14.51071 -14.48661 -14.47064
 Alpha  occ. eigenvalues --  -14.43948 -14.43759 -14.43199 -14.43082 -14.42847
 Alpha  occ. eigenvalues --  -10.43241 -10.41795 -10.41191 -10.37363 -10.37349
 Alpha  occ. eigenvalues --  -10.37135 -10.36652 -10.35892 -10.34952 -10.32901
 Alpha  occ. eigenvalues --  -10.32446 -10.32274 -10.30816 -10.30662 -10.30275
 Alpha  occ. eigenvalues --  -10.29989 -10.29948 -10.29773 -10.28132 -10.27785
 Alpha  occ. eigenvalues --  -10.27317 -10.25956 -10.25263 -10.24807 -10.24751
 Alpha  occ. eigenvalues --  -10.24542 -10.24372 -10.24056  -1.19229  -1.15040
 Alpha  occ. eigenvalues --   -1.14229  -1.12736  -1.12216  -1.11858  -1.11475
 Alpha  occ. eigenvalues --   -1.10643  -1.07646  -1.07370  -1.06959  -1.06167
 Alpha  occ. eigenvalues --   -1.05511  -1.02028  -1.00980  -1.00622  -0.99708
 Alpha  occ. eigenvalues --   -0.99499  -0.98732  -0.98715  -0.93926  -0.89764
 Alpha  occ. eigenvalues --   -0.87825  -0.86099  -0.84435  -0.83769  -0.83117
 Alpha  occ. eigenvalues --   -0.82429  -0.81252  -0.79762  -0.78385  -0.77307
 Alpha  occ. eigenvalues --   -0.76861  -0.74650  -0.74349  -0.73295  -0.72046
 Alpha  occ. eigenvalues --   -0.71633  -0.70856  -0.70317  -0.69909  -0.68664
 Alpha  occ. eigenvalues --   -0.67502  -0.67242  -0.66391  -0.66260  -0.65699
 Alpha  occ. eigenvalues --   -0.65389  -0.65262  -0.65081  -0.64439  -0.64188
 Alpha  occ. eigenvalues --   -0.63742  -0.63421  -0.61872  -0.61118  -0.59896
 Alpha  occ. eigenvalues --   -0.59309  -0.58755  -0.58033  -0.57586  -0.57348
 Alpha  occ. eigenvalues --   -0.57159  -0.56332  -0.55819  -0.55416  -0.55140
 Alpha  occ. eigenvalues --   -0.54961  -0.54404  -0.54195  -0.53678  -0.53336
 Alpha  occ. eigenvalues --   -0.53031  -0.52789  -0.52576  -0.52316  -0.52164
 Alpha  occ. eigenvalues --   -0.51933  -0.51706  -0.51126  -0.50893  -0.50015
 Alpha  occ. eigenvalues --   -0.49771  -0.49466  -0.49200  -0.49127  -0.48871
 Alpha  occ. eigenvalues --   -0.48623  -0.48287  -0.47971  -0.47647  -0.47584
 Alpha  occ. eigenvalues --   -0.47097  -0.46865  -0.46525  -0.46414  -0.46082
 Alpha  occ. eigenvalues --   -0.46000  -0.45429  -0.45335  -0.45069  -0.44655
 Alpha  occ. eigenvalues --   -0.44333  -0.44246  -0.43916  -0.43504  -0.43025
 Alpha  occ. eigenvalues --   -0.42832  -0.42498  -0.42125  -0.41547  -0.41316
 Alpha  occ. eigenvalues --   -0.40892  -0.40348  -0.40249  -0.39961  -0.39841
 Alpha  occ. eigenvalues --   -0.39250  -0.38545  -0.38080  -0.37987  -0.36690
 Alpha  occ. eigenvalues --   -0.36125  -0.35642  -0.35182  -0.34549  -0.34148
 Alpha  occ. eigenvalues --   -0.34033  -0.33760  -0.33425  -0.33042  -0.32331
 Alpha  occ. eigenvalues --   -0.32155  -0.30907  -0.29800  -0.28516  -0.28313
 Alpha virt. eigenvalues --   -0.12556  -0.11508  -0.10443  -0.08438  -0.06806
 Alpha virt. eigenvalues --   -0.06598  -0.06167  -0.05464  -0.04310  -0.03602
 Alpha virt. eigenvalues --   -0.03414  -0.02535  -0.01518  -0.00592  -0.00073

 Mulliken charges:
               1
     1  N   -0.752850
     2  H    0.417857
     3  H    0.415444
     4  H    0.435291
     5  C   -0.119806
     6  H    0.215108
     7  C    0.654202
     8  C   -0.376649
     9  H    0.185490
    10  H    0.209959
    11  O   -0.539582
    12  C    0.580336
    13  N   -0.740630
    14  H    0.397966
    15  H    0.347039
    16  O   -0.464467
    17  N   -0.583586
    18  H    0.372537
    19  C   -0.085214
    20  H    0.187351
    21  C    0.672025
    22  C   -0.065119
    23  H    0.144711
    24  O   -0.585362
    25  C   -0.250445
    26  H    0.119047
    27  H    0.144172
    28  C   -0.527078
    29  H    0.129014
    30  H    0.165494
    31  H    0.227209
    32  C   -0.451987
    33  H    0.152849
    34  H    0.148790
    35  H    0.159531
    36  N   -0.595447
    37  H    0.358861
    38  C   -0.056624
    39  H    0.215937
    40  C    0.652354
    41  C   -0.454219
    42  H    0.158152
    43  H    0.178691
    44  H    0.169908
    45  O   -0.563553
    46  N   -0.651871
    47  H    0.364781
    48  C   -0.072544
    49  H    0.184742
    50  C    0.660669
    51  C    0.127613
    52  H    0.148576
    53  O   -0.608543
    54  C   -0.486260
    55  H    0.151068
    56  H    0.177909
    57  H    0.150178
    58  O   -0.658125
    59  H    0.440534
    60  N   -0.574183
    61  H    0.366140
    62  C   -0.103907
    63  H    0.177425
    64  C    0.655998
    65  C   -0.046316
    66  H    0.163963
    67  H    0.154395
    68  O   -0.548449
    69  O   -0.641532
    70  H    0.422212
    71  N   -0.601043
    72  H    0.362823
    73  C   -0.167726
    74  H    0.183054
    75  H    0.192718
    76  C    0.580495
    77  O   -0.579264
    78  N   -0.586556
    79  H    0.385884
    80  C   -0.035766
    81  H    0.106760
    82  C    0.572992
    83  C   -0.268534
    84  H    0.154447
    85  H    0.172228
    86  O   -0.565977
    87  C   -0.297981
    88  H    0.167879
    89  H    0.154032
    90  C   -0.278358
    91  H    0.176759
    92  H    0.149342
    93  C   -0.222086
    94  H    0.185859
    95  H    0.246865
    96  N   -0.813985
    97  H    0.433246
    98  H    0.384672
    99  H    0.455348
   100  O   -0.605301
 Sum of Mulliken charges =   1.00000

 Dipole moment (field-independent basis, Debye):
    X=             -4.6579    Y=              4.3643    Z=             12.2807  Tot=             13.8405
 Quadrupole moment (field-independent basis, Debye-Ang):
   XX=           -147.1328   YY=           -286.3756   ZZ=           -101.5671
   XY=            -18.0221   XZ=           -141.5407   YZ=             14.8970

 Normal termination of Gaussian 16 at Mon Jun  6 08:15:27 2022.
