 Gaussian 16, Revision C.01,
 Gaussian 16:  ES64L-G16RevC.01  3-Jul-2019

 ----------------------------------------------------------------------
 # B3LYP/6-31G* empiricaldispersion=gd3 guess=read geom=check nosymm in
 tegral(ultrafinegrid)
 ----------------------------------------------------------------------

 ------------------------------------------------------
 Candidate Structure: Conf:112 Charge calc in gas phase
 ------------------------------------------------------
 Structure from the checkpoint file:  "conf-112.chk"
 Charge =  1 Multiplicity = 1

                          Input orientation:
 ---------------------------------------------------------------------
 Center     Atomic      Atomic             Coordinates (Angstroms)
 Number     Number       Type             X           Y           Z
 ---------------------------------------------------------------------
      1          7           0       -9.382140    2.622894    4.416571
      2          1           0       -9.418029    2.713089    5.436812
      3          1           0      -10.333600    2.495626    4.061093
      4          1           0       -8.926068    3.502477    4.021347
      5          6           0       -8.404454    1.563567    3.947158
      6          1           0       -8.285371    0.817875    4.735377
      7          6           0       -7.108433    2.396236    3.719891
      8          6           0       -8.924422    0.931686    2.634759
      9          1           0       -9.729874    0.222878    2.861389
     10          1           0       -9.308805    1.717217    1.977576
     11          8           0       -7.262722    3.610163    3.521509
     12          6           0       -7.751676    0.284387    1.872069
     13          7           0       -7.375646   -0.943600    2.309276
     14          1           0       -6.482219   -1.300199    1.985059
     15          1           0       -7.958783   -1.533435    2.884540
     16          8           0       -7.144467    0.932091    1.035513
     17          7           0       -5.967456    1.721994    3.748442
     18          1           0       -5.982820    0.702811    3.818436
     19          6           0       -4.715079    2.184793    3.131243
     20          1           0       -4.937726    3.092226    2.564861
     21          6           0       -4.323563    1.023390    2.195516
     22          6           0       -3.611881    2.455474    4.187364
     23          1           0       -3.455583    1.503322    4.714041
     24          8           0       -4.570534   -0.140329    2.543364
     25          6           0       -4.067090    3.494885    5.235364
     26          1           0       -3.299298    3.520270    6.018914
     27          1           0       -4.982934    3.134077    5.722882
     28          6           0       -2.286442    2.851463    3.513696
     29          1           0       -2.418604    3.695427    2.825369
     30          1           0       -1.562555    3.163589    4.273156
     31          1           0       -1.827995    2.033493    2.952605
     32          6           0       -4.297684    4.916763    4.707878
     33          1           0       -4.578656    5.583087    5.530711
     34          1           0       -3.393359    5.329901    4.249655
     35          1           0       -5.106238    4.951913    3.970321
     36          7           0       -3.714984    1.366740    1.057514
     37          1           0       -3.474254    2.334169    0.868945
     38          6           0       -3.133196    0.404393    0.124947
     39          1           0       -3.091917   -0.558138    0.640702
     40          6           0       -1.727785    0.943561   -0.172409
     41          6           0       -3.978870    0.298184   -1.149954
     42          1           0       -3.572007   -0.467109   -1.819208
     43          1           0       -5.008761    0.040291   -0.885510
     44          1           0       -3.980438    1.257161   -1.677405
     45          8           0       -1.578691    2.155551   -0.383121
     46          7           0       -0.730519    0.049076   -0.173355
     47          1           0       -0.879669   -0.930988    0.045965
     48          6           0        0.662299    0.422269   -0.356141
     49          1           0        0.709229    1.201003   -1.125574
     50          6           0        1.387575   -0.859104   -0.797137
     51          6           0        1.281397    0.976475    0.970235
     52          1           0        1.413658    0.127306    1.651702
     53          8           0        0.990457   -1.951516   -0.397703
     54          6           0        2.623531    1.669709    0.731723
     55          1           0        3.390395    0.994144    0.339830
     56          1           0        2.980143    2.084645    1.678558
     57          1           0        2.502765    2.501965    0.025697
     58          8           0        0.371091    1.844856    1.635706
     59          1           0       -0.021729    2.438081    0.970331
     60          7           0        2.461137   -0.675769   -1.598390
     61          1           0        2.826056    0.260156   -1.736464
     62          6           0        3.394963   -1.737782   -1.917690
     63          1           0        3.114215   -2.614163   -1.326091
     64          6           0        4.808487   -1.241967   -1.557412
     65          6           0        3.331536   -2.115541   -3.405472
     66          1           0        4.094498   -2.884122   -3.608276
     67          1           0        3.583948   -1.226435   -4.006820
     68          8           0        5.042380   -0.040885   -1.412091
     69          8           0        2.022371   -2.583502   -3.668317
     70          1           0        1.954175   -2.771888   -4.616434
     71          7           0        5.753264   -2.196714   -1.461690
     72          1           0        5.548110   -3.188998   -1.541419
     73          6           0        7.134608   -1.888395   -1.167458
     74          1           0        7.551886   -1.214956   -1.927139
     75          1           0        7.222090   -1.370231   -0.203679
     76          6           0        7.911080   -3.211516   -1.135147
     77          8           0        7.343240   -4.288317   -1.320200
     78          7           0        9.229879   -3.094499   -0.878070
     79          1           0        9.675439   -2.186023   -0.812017
     80          6           0       10.129027   -4.244514   -0.839440
     81          1           0        9.635717   -5.065704   -0.315288
     82          6           0       11.389392   -3.797093   -0.107438
     83          6           0       10.506086   -4.666764   -2.291108
     84          1           0        9.559494   -4.711130   -2.840452
     85          1           0       11.080362   -3.837902   -2.722946
     86          8           0       11.922093   -4.742547    0.659072
     87          6           0       11.225349   -6.013096   -2.524519
     88          1           0       10.526446   -6.826646   -2.290772
     89          1           0       11.405435   -6.076525   -3.606400
     90          6           0       12.541271   -6.308760   -1.771363
     91          1           0       12.953645   -7.242943   -2.173079
     92          1           0       12.302010   -6.505614   -0.724567
     93          6           0       13.622244   -5.204846   -1.825827
     94          1           0       14.342685   -5.413430   -2.629604
     95          1           0       13.179862   -4.230195   -2.047041
     96          7           0       14.290344   -5.055855   -0.505429
     97          1           0       14.990578   -4.316700   -0.547810
     98          1           0       14.784732   -5.914429   -0.263136
     99          1           0       12.934737   -4.697122    0.550514
    100          8           0       11.884995   -2.702656   -0.317686
 ---------------------------------------------------------------------

 SCF Done:  E(RB3LYP) =  -2418.54876398     A.U. after    3 cycles

 Alpha  occ. eigenvalues --  -19.26918 -19.23265 -19.21039 -19.20962 -19.19891
 Alpha  occ. eigenvalues --  -19.19175 -19.18719 -19.17642 -19.17541 -19.17365
 Alpha  occ. eigenvalues --  -19.17267 -14.61113 -14.49067 -14.47389 -14.44841
 Alpha  occ. eigenvalues --  -14.43051 -14.41795 -14.41674 -14.41293 -14.39193
 Alpha  occ. eigenvalues --  -10.43605 -10.42139 -10.41510 -10.38083 -10.35950
 Alpha  occ. eigenvalues --  -10.35591 -10.35265 -10.34847 -10.34563 -10.34466
 Alpha  occ. eigenvalues --  -10.33228 -10.31043 -10.29576 -10.29428 -10.29419
 Alpha  occ. eigenvalues --  -10.28870 -10.28617 -10.28100 -10.27899 -10.26223
 Alpha  occ. eigenvalues --  -10.25953 -10.25072 -10.24333 -10.24256 -10.23522
 Alpha  occ. eigenvalues --  -10.23159 -10.22624 -10.22277  -1.19563  -1.15324
 Alpha  occ. eigenvalues --   -1.14641  -1.13177  -1.12878  -1.10920  -1.09887
 Alpha  occ. eigenvalues --   -1.09324  -1.08709  -1.07341  -1.06645  -1.05910
 Alpha  occ. eigenvalues --   -1.04670  -1.02353  -1.01387  -0.99309  -0.98418
 Alpha  occ. eigenvalues --   -0.98062  -0.97725  -0.94548  -0.94263  -0.89907
 Alpha  occ. eigenvalues --   -0.85811  -0.84802  -0.84279  -0.83696  -0.81930
 Alpha  occ. eigenvalues --   -0.81236  -0.80275  -0.78511  -0.77279  -0.76487
 Alpha  occ. eigenvalues --   -0.75005  -0.74724  -0.73807  -0.73301  -0.71840
 Alpha  occ. eigenvalues --   -0.70907  -0.70656  -0.69804  -0.68373  -0.68023
 Alpha  occ. eigenvalues --   -0.67117  -0.66601  -0.66213  -0.65442  -0.65279
 Alpha  occ. eigenvalues --   -0.64699  -0.64129  -0.64100  -0.63860  -0.63662
 Alpha  occ. eigenvalues --   -0.62516  -0.61301  -0.60187  -0.59396  -0.58882
 Alpha  occ. eigenvalues --   -0.58005  -0.57400  -0.56885  -0.56397  -0.55579
 Alpha  occ. eigenvalues --   -0.55449  -0.54962  -0.54629  -0.54472  -0.54081
 Alpha  occ. eigenvalues --   -0.53448  -0.53378  -0.53165  -0.52904  -0.52728
 Alpha  occ. eigenvalues --   -0.52619  -0.51912  -0.51866  -0.51754  -0.51603
 Alpha  occ. eigenvalues --   -0.50916  -0.50418  -0.50205  -0.49960  -0.49556
 Alpha  occ. eigenvalues --   -0.49320  -0.48938  -0.48723  -0.48650  -0.48274
 Alpha  occ. eigenvalues --   -0.48088  -0.47952  -0.46954  -0.46714  -0.46170
 Alpha  occ. eigenvalues --   -0.46020  -0.45881  -0.45451  -0.45365  -0.45034
 Alpha  occ. eigenvalues --   -0.44657  -0.44183  -0.44110  -0.43930  -0.43713
 Alpha  occ. eigenvalues --   -0.43431  -0.43209  -0.42489  -0.42137  -0.42013
 Alpha  occ. eigenvalues --   -0.41951  -0.41664  -0.40857  -0.40758  -0.40474
 Alpha  occ. eigenvalues --   -0.40139  -0.40103  -0.39042  -0.38816  -0.38479
 Alpha  occ. eigenvalues --   -0.38257  -0.37893  -0.37699  -0.37013  -0.36879
 Alpha  occ. eigenvalues --   -0.35117  -0.34624  -0.34419  -0.33310  -0.32847
 Alpha  occ. eigenvalues --   -0.32635  -0.32403  -0.32103  -0.31955  -0.31634
 Alpha  occ. eigenvalues --   -0.31382  -0.30832  -0.30548  -0.30496  -0.29785
 Alpha virt. eigenvalues --   -0.12935  -0.11752  -0.10752  -0.07064  -0.06756
 Alpha virt. eigenvalues --   -0.04847  -0.04650  -0.04101  -0.03602  -0.03375
 Alpha virt. eigenvalues --   -0.02880  -0.02338  -0.01989  -0.00071   0.00652

 Mulliken charges:
               1
     1  N   -0.751034
     2  H    0.419425
     3  H    0.416517
     4  H    0.435479
     5  C   -0.121073
     6  H    0.215393
     7  C    0.654566
     8  C   -0.377064
     9  H    0.185973
    10  H    0.210494
    11  O   -0.535043
    12  C    0.581918
    13  N   -0.736662
    14  H    0.392701
    15  H    0.347792
    16  O   -0.468952
    17  N   -0.580658
    18  H    0.369082
    19  C   -0.080761
    20  H    0.190458
    21  C    0.661561
    22  C   -0.074916
    23  H    0.144465
    24  O   -0.584121
    25  C   -0.257175
    26  H    0.154803
    27  H    0.114617
    28  C   -0.489076
    29  H    0.146411
    30  H    0.169358
    31  H    0.192004
    32  C   -0.470692
    33  H    0.152752
    34  H    0.161368
    35  H    0.162840
    36  N   -0.581786
    37  H    0.359604
    38  C   -0.065653
    39  H    0.178551
    40  C    0.649311
    41  C   -0.446918
    42  H    0.165864
    43  H    0.175318
    44  H    0.174033
    45  O   -0.576062
    46  N   -0.597055
    47  H    0.358327
    48  C   -0.097344
    49  H    0.171694
    50  C    0.622529
    51  C    0.161317
    52  H    0.148827
    53  O   -0.531369
    54  C   -0.486637
    55  H    0.176292
    56  H    0.169817
    57  H    0.141970
    58  O   -0.639986
    59  H    0.410879
    60  N   -0.583360
    61  H    0.352094
    62  C   -0.093822
    63  H    0.202020
    64  C    0.622321
    65  C   -0.017189
    66  H    0.135780
    67  H    0.133566
    68  O   -0.538181
    69  O   -0.605368
    70  H    0.401698
    71  N   -0.617159
    72  H    0.362101
    73  C   -0.193025
    74  H    0.190610
    75  H    0.195712
    76  C    0.609327
    77  O   -0.535306
    78  N   -0.619581
    79  H    0.350544
    80  C   -0.005105
    81  H    0.184291
    82  C    0.579414
    83  C   -0.284414
    84  H    0.170422
    85  H    0.149592
    86  O   -0.594574
    87  C   -0.270207
    88  H    0.151533
    89  H    0.143347
    90  C   -0.291241
    91  H    0.141425
    92  H    0.174464
    93  C   -0.159916
    94  H    0.146273
    95  H    0.174536
    96  N   -0.768651
    97  H    0.331993
    98  H    0.324675
    99  H    0.447675
   100  O   -0.492585
 Sum of Mulliken charges =   1.00000

 Dipole moment (field-independent basis, Debye):
    X=            -23.6600    Y=              0.9620    Z=             12.6736  Tot=             26.8578
 Quadrupole moment (field-independent basis, Debye-Ang):
   XX=            229.9999   YY=           -247.3154   ZZ=           -183.6430
   XY=           -123.1831   XZ=           -197.4278   YZ=             48.7689

 Normal termination of Gaussian 16 at Mon Jun  6 08:11:13 2022.
