 Gaussian 16, Revision C.01,
 Gaussian 16:  ES64L-G16RevC.01  3-Jul-2019

 ----------------------------------------------------------------------
 # B3LYP/6-31G* empiricaldispersion=gd3 guess=read geom=check nosymm in
 tegral(ultrafinegrid)
 ----------------------------------------------------------------------

 ------------------------------------------------------
 Candidate Structure: Conf:420 Charge calc in gas phase
 ------------------------------------------------------
 Structure from the checkpoint file:  "conf-420.chk"
 Charge =  1 Multiplicity = 1

                          Input orientation:
 ---------------------------------------------------------------------
 Center     Atomic      Atomic             Coordinates (Angstroms)
 Number     Number       Type             X           Y           Z
 ---------------------------------------------------------------------
      1          7           0       -3.963013   -0.381421    6.047734
      2          1           0       -3.501806   -1.257706    6.307104
      3          1           0       -4.968126   -0.385487    6.368063
      4          1           0       -3.385189    0.398816    6.425005
      5          6           0       -3.970517   -0.167431    4.557660
      6          1           0       -4.052077   -1.143285    4.073146
      7          6           0       -2.630742    0.546395    4.254028
      8          6           0       -5.150078    0.743720    4.166490
      9          1           0       -4.984802    1.740603    4.597005
     10          1           0       -5.141213    0.862774    3.078764
     11          8           0       -2.086765    1.150328    5.183419
     12          6           0       -6.494529    0.230581    4.687208
     13          7           0       -7.563236    0.402791    3.893500
     14          1           0       -8.474766    0.132428    4.243258
     15          1           0       -7.508969    0.843172    2.986189
     16          8           0       -6.576592   -0.292701    5.807956
     17          7           0       -2.216980    0.473253    2.993546
     18          1           0       -2.788817    0.042622    2.269073
     19          6           0       -1.088812    1.223824    2.442211
     20          1           0       -0.884086    2.061989    3.116045
     21          6           0       -1.601738    1.700297    1.071500
     22          6           0        0.203918    0.351273    2.280800
     23          1           0        0.001753   -0.363286    1.472973
     24          8           0       -2.531992    1.104412    0.518882
     25          6           0        0.518746   -0.453686    3.560191
     26          1           0       -0.406733   -0.858279    3.989030
     27          1           0        0.938411    0.222644    4.317438
     28          6           0        1.406977    1.228435    1.889474
     29          1           0        1.474200    2.108519    2.547033
     30          1           0        2.339845    0.668505    1.992607
     31          1           0        1.375491    1.563498    0.849616
     32          6           0        1.477477   -1.622539    3.291236
     33          1           0        1.689304   -2.162870    4.221438
     34          1           0        1.023082   -2.331710    2.586852
     35          1           0        2.428418   -1.295314    2.859710
     36          7           0       -0.964414    2.755915    0.509494
     37          1           0       -0.128994    3.094751    0.972516
     38          6           0       -1.017265    2.980706   -0.945771
     39          1           0       -2.009841    2.663599   -1.272087
     40          6           0        0.071245    2.060225   -1.538464
     41          6           0       -0.772745    4.445424   -1.281126
     42          1           0       -0.848026    4.600493   -2.361613
     43          1           0       -1.512505    5.077415   -0.781755
     44          1           0        0.233149    4.745436   -0.973740
     45          8           0        1.228900    2.480183   -1.664301
     46          7           0       -0.308369    0.787094   -1.792031
     47          1           0       -1.232514    0.515483   -1.465958
     48          6           0        0.652736   -0.336030   -1.832534
     49          1           0        1.419433   -0.177182   -1.060538
     50          6           0        1.405704   -0.444927   -3.171406
     51          6           0       -0.091990   -1.654644   -1.535025
     52          1           0       -0.647668   -1.950005   -2.436698
     53          8           0        1.471652   -1.504609   -3.810499
     54          6           0        0.842849   -2.779833   -1.102238
     55          1           0        1.505860   -3.060283   -1.922491
     56          1           0        0.249083   -3.662965   -0.831619
     57          1           0        1.450749   -2.462868   -0.251540
     58          8           0       -1.029593   -1.343376   -0.485553
     59          1           0       -1.523182   -2.155892   -0.298463
     60          7           0        2.051232    0.674090   -3.569928
     61          1           0        2.025255    1.482443   -2.939741
     62          6           0        2.751870    0.762035   -4.845257
     63          1           0        2.211593    0.156306   -5.581151
     64          6           0        4.173786    0.185828   -4.705787
     65          6           0        2.789525    2.223088   -5.319085
     66          1           0        3.277374    2.840744   -4.547638
     67          1           0        1.760734    2.577368   -5.429842
     68          8           0        5.185725    0.893279   -4.901030
     69          8           0        3.416852    2.348692   -6.576035
     70          1           0        4.352761    2.135740   -6.423887
     71          7           0        4.239941   -1.096949   -4.317821
     72          1           0        3.349287   -1.581812   -4.177266
     73          6           0        5.492452   -1.689741   -3.885809
     74          1           0        5.331080   -2.759074   -3.721823
     75          1           0        6.254465   -1.586569   -4.663031
     76          6           0        6.065820   -1.069557   -2.595473
     77          8           0        7.309101   -1.017215   -2.459506
     78          7           0        5.184527   -0.613122   -1.713892
     79          1           0        4.179948   -0.815125   -1.802462
     80          6           0        5.454311   -0.226415   -0.324270
     81          1           0        6.280450   -0.837245    0.052830
     82          6           0        4.145091   -0.542603    0.480495
     83          6           0        5.793295    1.261745   -0.119190
     84          1           0        4.904916    1.865545   -0.353859
     85          1           0        5.961119    1.370265    0.955753
     86          8           0        4.230805   -0.398097    1.712032
     87          6           0        7.004102    1.773698   -0.923994
     88          1           0        7.561473    2.515810   -0.338892
     89          1           0        7.689429    0.937801   -1.099602
     90          6           0        6.586570    2.424884   -2.257732
     91          1           0        6.260821    3.455510   -2.073905
     92          1           0        5.719406    1.911315   -2.686233
     93          6           0        7.691937    2.466007   -3.313646
     94          1           0        7.486064    3.203716   -4.093659
     95          1           0        8.670052    2.682365   -2.874655
     96          7           0        7.792475    1.130976   -4.012759
     97          1           0        8.570433    1.095225   -4.675210
     98          1           0        6.893312    0.948842   -4.515980
     99          1           0        7.866453    0.319014   -3.342470
    100          8           0        3.137125   -0.849041   -0.227940
 ---------------------------------------------------------------------

 SCF Done:  E(RB3LYP) =  -2418.59224846     A.U. after    2 cycles

 Alpha  occ. eigenvalues --  -19.26526 -19.24756 -19.22629 -19.22278 -19.21533
 Alpha  occ. eigenvalues --  -19.20310 -19.20303 -19.19451 -19.19141 -19.12508
 Alpha  occ. eigenvalues --  -19.11342 -14.57336 -14.51612 -14.49945 -14.47938
 Alpha  occ. eigenvalues --  -14.45382 -14.44830 -14.43630 -14.42868 -14.41880
 Alpha  occ. eigenvalues --  -10.44129 -10.41928 -10.40308 -10.38324 -10.38322
 Alpha  occ. eigenvalues --  -10.36835 -10.36276 -10.36249 -10.35563 -10.33211
 Alpha  occ. eigenvalues --  -10.32484 -10.31743 -10.31192 -10.30857 -10.30568
 Alpha  occ. eigenvalues --  -10.30224 -10.29988 -10.29376 -10.26648 -10.26218
 Alpha  occ. eigenvalues --  -10.25799 -10.25621 -10.24422 -10.23669 -10.23276
 Alpha  occ. eigenvalues --  -10.22030 -10.21955 -10.20658  -1.18404  -1.17080
 Alpha  occ. eigenvalues --   -1.13639  -1.13509  -1.11967  -1.11802  -1.10930
 Alpha  occ. eigenvalues --   -1.10520  -1.09368  -1.07998  -1.06809  -1.05297
 Alpha  occ. eigenvalues --   -1.04888  -1.04670  -1.01873  -1.01755  -0.99986
 Alpha  occ. eigenvalues --   -0.99233  -0.98403  -0.96280  -0.93631  -0.88476
 Alpha  occ. eigenvalues --   -0.87389  -0.85949  -0.84608  -0.83383  -0.83245
 Alpha  occ. eigenvalues --   -0.82361  -0.80333  -0.79974  -0.76630  -0.76258
 Alpha  occ. eigenvalues --   -0.76034  -0.74406  -0.72763  -0.72537  -0.71971
 Alpha  occ. eigenvalues --   -0.70927  -0.70573  -0.70514  -0.69063  -0.68549
 Alpha  occ. eigenvalues --   -0.67801  -0.67433  -0.67167  -0.67001  -0.65636
 Alpha  occ. eigenvalues --   -0.65569  -0.64871  -0.64647  -0.63990  -0.63187
 Alpha  occ. eigenvalues --   -0.63052  -0.62426  -0.61617  -0.61475  -0.60259
 Alpha  occ. eigenvalues --   -0.59870  -0.59172  -0.57950  -0.57798  -0.57536
 Alpha  occ. eigenvalues --   -0.57438  -0.56968  -0.56802  -0.56454  -0.55931
 Alpha  occ. eigenvalues --   -0.55569  -0.55108  -0.54416  -0.53928  -0.53729
 Alpha  occ. eigenvalues --   -0.53207  -0.53094  -0.52487  -0.52224  -0.51835
 Alpha  occ. eigenvalues --   -0.51278  -0.51111  -0.50853  -0.50796  -0.50173
 Alpha  occ. eigenvalues --   -0.49996  -0.49261  -0.49200  -0.49072  -0.48673
 Alpha  occ. eigenvalues --   -0.48403  -0.47847  -0.47645  -0.47490  -0.47047
 Alpha  occ. eigenvalues --   -0.46721  -0.46477  -0.46248  -0.45768  -0.45519
 Alpha  occ. eigenvalues --   -0.45332  -0.44985  -0.44324  -0.43989  -0.43949
 Alpha  occ. eigenvalues --   -0.43418  -0.43276  -0.42841  -0.42394  -0.42008
 Alpha  occ. eigenvalues --   -0.41648  -0.41177  -0.41078  -0.40810  -0.40634
 Alpha  occ. eigenvalues --   -0.40335  -0.39766  -0.39687  -0.39248  -0.39179
 Alpha  occ. eigenvalues --   -0.38903  -0.38394  -0.38018  -0.37326  -0.37049
 Alpha  occ. eigenvalues --   -0.36776  -0.36421  -0.36248  -0.35344  -0.34857
 Alpha  occ. eigenvalues --   -0.34102  -0.33757  -0.33024  -0.32724  -0.32310
 Alpha  occ. eigenvalues --   -0.32065  -0.31735  -0.27514  -0.27248  -0.25357
 Alpha virt. eigenvalues --   -0.12189  -0.10654  -0.08569  -0.08331  -0.08271
 Alpha virt. eigenvalues --   -0.06178  -0.05492  -0.05129  -0.04611  -0.03699
 Alpha virt. eigenvalues --   -0.03554  -0.01655  -0.00558  -0.00268   0.00938

 Mulliken charges:
               1
     1  N   -0.751542
     2  H    0.410895
     3  H    0.441401
     4  H    0.416998
     5  C   -0.126854
     6  H    0.213097
     7  C    0.649537
     8  C   -0.401235
     9  H    0.228077
    10  H    0.206518
    11  O   -0.528859
    12  C    0.645417
    13  N   -0.727225
    14  H    0.381179
    15  H    0.370872
    16  O   -0.534108
    17  N   -0.591267
    18  H    0.358285
    19  C   -0.082317
    20  H    0.182777
    21  C    0.629590
    22  C   -0.085582
    23  H    0.175966
    24  O   -0.554413
    25  C   -0.249041
    26  H    0.089499
    27  H    0.143691
    28  C   -0.535776
    29  H    0.118586
    30  H    0.252342
    31  H    0.152619
    32  C   -0.477105
    33  H    0.130588
    34  H    0.127163
    35  H    0.230505
    36  N   -0.586866
    37  H    0.353260
    38  C   -0.067535
    39  H    0.185509
    40  C    0.640060
    41  C   -0.455697
    42  H    0.170626
    43  H    0.162810
    44  H    0.177243
    45  O   -0.562002
    46  N   -0.617373
    47  H    0.379932
    48  C   -0.108839
    49  H    0.268350
    50  C    0.639971
    51  C    0.116433
    52  H    0.143426
    53  O   -0.556788
    54  C   -0.484795
    55  H    0.168077
    56  H    0.119794
    57  H    0.215634
    58  O   -0.645672
    59  H    0.396973
    60  N   -0.637179
    61  H    0.399183
    62  C   -0.084051
    63  H    0.204060
    64  C    0.650749
    65  C   -0.041673
    66  H    0.135115
    67  H    0.164516
    68  O   -0.600942
    69  O   -0.618773
    70  H    0.406720
    71  N   -0.593932
    72  H    0.397085
    73  C   -0.228461
    74  H    0.206486
    75  H    0.176059
    76  C    0.591028
    77  O   -0.589964
    78  N   -0.570707
    79  H    0.359709
    80  C   -0.064061
    81  H    0.171442
    82  C    0.605838
    83  C   -0.273711
    84  H    0.139264
    85  H    0.180191
    86  O   -0.565500
    87  C   -0.285426
    88  H    0.145506
    89  H    0.162353
    90  C   -0.299853
    91  H    0.168234
    92  H    0.176868
    93  C   -0.181578
    94  H    0.189118
    95  H    0.195136
    96  N   -0.799936
    97  H    0.385877
    98  H    0.432161
    99  H    0.442243
   100  O   -0.612005
 Sum of Mulliken charges =   1.00000

 Dipole moment (field-independent basis, Debye):
    X=             -8.1644    Y=              4.2085    Z=              5.3065  Tot=             10.6079
 Quadrupole moment (field-independent basis, Debye-Ang):
   XX=            -66.2090   YY=           -259.7452   ZZ=           -187.2752
   XY=             26.3917   XZ=           -152.8706   YZ=             -9.9733

 Normal termination of Gaussian 16 at Mon Jun  6 08:11:22 2022.
