 Gaussian 16, Revision C.01,
 Gaussian 16:  ES64L-G16RevC.01  3-Jul-2019

 ----------------------------------------------------------------------
 # B3LYP/6-31G* empiricaldispersion=gd3 guess=read geom=check nosymm in
 tegral(ultrafinegrid)
 ----------------------------------------------------------------------

 ------------------------------------------------------
 Candidate Structure: Conf:807 Charge calc in gas phase
 ------------------------------------------------------
 Structure from the checkpoint file:  "conf-807.chk"
 Charge =  1 Multiplicity = 1

                          Input orientation:
 ---------------------------------------------------------------------
 Center     Atomic      Atomic             Coordinates (Angstroms)
 Number     Number       Type             X           Y           Z
 ---------------------------------------------------------------------
      1          7           0       -7.638424    0.572463    1.349508
      2          1           0       -8.395901    0.780919    2.006248
      3          1           0       -7.964704   -0.130633    0.681935
      4          1           0       -7.354974    1.476943    0.857590
      5          6           0       -6.342955    0.202524    2.042446
      6          1           0       -6.549746   -0.139958    3.056780
      7          6           0       -5.560644    1.543710    2.004920
      8          6           0       -5.610596   -0.887728    1.246025
      9          1           0       -6.295414   -1.724096    1.047998
     10          1           0       -5.262284   -0.484099    0.289789
     11          8           0       -5.943497    2.396237    1.189645
     12          6           0       -4.408956   -1.433033    2.045125
     13          7           0       -3.604257   -2.261806    1.365688
     14          1           0       -2.671168   -2.475552    1.739334
     15          1           0       -3.671645   -2.296361    0.357124
     16          8           0       -4.274880   -1.145828    3.239533
     17          7           0       -4.520811    1.645208    2.829330
     18          1           0       -4.272959    0.767509    3.295673
     19          6           0       -3.392166    2.515662    2.494291
     20          1           0       -3.779447    3.507226    2.243578
     21          6           0       -2.725545    1.894525    1.237112
     22          6           0       -2.455854    2.601155    3.733679
     23          1           0       -2.148835    1.571565    3.963389
     24          8           0       -3.003554    0.739285    0.889913
     25          6           0       -3.225644    3.131108    4.968054
     26          1           0       -2.538486    3.084113    5.822056
     27          1           0       -4.048730    2.446319    5.204551
     28          6           0       -1.173163    3.411158    3.481886
     29          1           0       -1.388017    4.410397    3.082328
     30          1           0       -0.643110    3.556170    4.428636
     31          1           0       -0.483347    2.905703    2.801093
     32          6           0       -3.777748    4.555711    4.840209
     33          1           0       -4.260042    4.860171    5.774760
     34          1           0       -2.987479    5.283808    4.628492
     35          1           0       -4.530942    4.635137    4.047262
     36          7           0       -1.841034    2.658596    0.572939
     37          1           0       -1.615483    3.576846    0.932302
     38          6           0       -0.906713    2.092854   -0.420818
     39          1           0       -1.464546    1.368368   -1.017278
     40          6           0        0.204627    1.355531    0.358808
     41          6           0       -0.338843    3.187224   -1.311189
     42          1           0        0.257315    2.715185   -2.094722
     43          1           0       -1.152128    3.757411   -1.771411
     44          1           0        0.305702    3.859761   -0.736697
     45          8           0        1.305541    1.867183    0.565723
     46          7           0       -0.151517    0.147059    0.869307
     47          1           0       -1.043940   -0.256276    0.609137
     48          6           0        0.797471   -0.724291    1.562655
     49          1           0        1.476855   -0.087051    2.137798
     50          6           0        1.577004   -1.473200    0.459996
     51          6           0        0.060719   -1.690654    2.506850
     52          1           0        0.828272   -2.306864    2.998047
     53          8           0        1.322455   -2.653592    0.164800
     54          6           0       -0.778028   -0.975755    3.555365
     55          1           0       -0.159514   -0.297123    4.152714
     56          1           0       -1.248516   -1.704881    4.220750
     57          1           0       -1.572722   -0.401991    3.071232
     58          8           0       -0.816631   -2.535101    1.754390
     59          1           0       -0.237296   -2.948310    1.071857
     60          7           0        2.430445   -0.702656   -0.240283
     61          1           0        2.508097    0.265597    0.063158
     62          6           0        2.601454   -0.939440   -1.676850
     63          1           0        1.840028   -1.669703   -1.955703
     64          6           0        3.948277   -1.550593   -2.075166
     65          6           0        2.254561    0.329693   -2.474924
     66          1           0        2.709174    0.253340   -3.466580
     67          1           0        2.654409    1.224954   -1.985913
     68          8           0        4.823438   -0.924345   -2.655372
     69          8           0        0.843451    0.467398   -2.556032
     70          1           0        0.580074   -0.235255   -3.205003
     71          7           0        4.024352   -2.908662   -1.862602
     72          1           0        3.217217   -3.345890   -1.431612
     73          6           0        4.850704   -3.695273   -2.767545
     74          1           0        5.886583   -3.355285   -2.721623
     75          1           0        4.822545   -4.744546   -2.457871
     76          6           0        4.432474   -3.567692   -4.257818
     77          8           0        5.251048   -3.789588   -5.144928
     78          7           0        3.132344   -3.230408   -4.472431
     79          1           0        2.559683   -2.966216   -3.677638
     80          6           0        2.645204   -2.530557   -5.662792
     81          1           0        3.277198   -1.643405   -5.823381
     82          6           0        1.195068   -1.996748   -5.348941
     83          6           0        2.709958   -3.370663   -6.936899
     84          1           0        2.351831   -2.738254   -7.755843
     85          1           0        3.753084   -3.648082   -7.121388
     86          8           0        0.426844   -1.863680   -6.313264
     87          6           0        1.836272   -4.623095   -6.857136
     88          1           0        2.140801   -5.230629   -5.994937
     89          1           0        0.797613   -4.307792   -6.705961
     90          6           0        1.951404   -5.453395   -8.142675
     91          1           0        2.997209   -5.758978   -8.292893
     92          1           0        1.661439   -4.831673   -9.002320
     93          6           0        1.060974   -6.679646   -8.077729
     94          1           0        1.342153   -7.363299   -7.272912
     95          1           0        0.002872   -6.424337   -7.981781
     96          7           0        1.183633   -7.490701   -9.380520
     97          1           0        0.598186   -8.334019   -9.386301
     98          1           0        2.158534   -7.778001   -9.529099
     99          1           0        0.915849   -6.910917  -10.184957
    100          8           0        0.981272   -1.748187   -4.115321
 ---------------------------------------------------------------------

 SCF Done:  E(RB3LYP) =  -2418.51917697     A.U. after    2 cycles

 Alpha  occ. eigenvalues --  -19.25656 -19.21625 -19.21020 -19.21019 -19.18594
 Alpha  occ. eigenvalues --  -19.18171 -19.15256 -19.14371 -19.12813 -19.09574
 Alpha  occ. eigenvalues --  -19.08504 -14.62096 -14.59223 -14.46920 -14.44891
 Alpha  occ. eigenvalues --  -14.43687 -14.42362 -14.40616 -14.38449 -14.36138
 Alpha  occ. eigenvalues --  -10.41906 -10.39610 -10.39487 -10.38399 -10.37895
 Alpha  occ. eigenvalues --  -10.35142 -10.34677 -10.33083 -10.33037 -10.31115
 Alpha  occ. eigenvalues --  -10.30750 -10.30062 -10.29831 -10.29783 -10.29656
 Alpha  occ. eigenvalues --  -10.28488 -10.27278 -10.25998 -10.25618 -10.25285
 Alpha  occ. eigenvalues --  -10.25138 -10.24956 -10.24711 -10.24279 -10.24008
 Alpha  occ. eigenvalues --  -10.23017 -10.22669 -10.20822  -1.18130  -1.15909
 Alpha  occ. eigenvalues --   -1.13257  -1.13157  -1.12476  -1.10655  -1.09592
 Alpha  occ. eigenvalues --   -1.07786  -1.06273  -1.04492  -1.04366  -1.02805
 Alpha  occ. eigenvalues --   -1.01931  -1.01106  -0.99614  -0.98933  -0.97022
 Alpha  occ. eigenvalues --   -0.95147  -0.93866  -0.92364  -0.92218  -0.91254
 Alpha  occ. eigenvalues --   -0.89593  -0.85039  -0.83420  -0.82697  -0.82169
 Alpha  occ. eigenvalues --   -0.80552  -0.79986  -0.78581  -0.77405  -0.76664
 Alpha  occ. eigenvalues --   -0.74753  -0.74552  -0.73321  -0.73103  -0.72996
 Alpha  occ. eigenvalues --   -0.72424  -0.70748  -0.69835  -0.68839  -0.67863
 Alpha  occ. eigenvalues --   -0.67243  -0.66825  -0.65959  -0.65661  -0.65269
 Alpha  occ. eigenvalues --   -0.64636  -0.63651  -0.63238  -0.62382  -0.62349
 Alpha  occ. eigenvalues --   -0.61645  -0.60959  -0.60553  -0.59457  -0.58985
 Alpha  occ. eigenvalues --   -0.58310  -0.57704  -0.57524  -0.57378  -0.56972
 Alpha  occ. eigenvalues --   -0.56115  -0.55607  -0.55002  -0.54543  -0.54103
 Alpha  occ. eigenvalues --   -0.53443  -0.53232  -0.52735  -0.52286  -0.52037
 Alpha  occ. eigenvalues --   -0.51689  -0.51505  -0.51153  -0.51026  -0.50469
 Alpha  occ. eigenvalues --   -0.50233  -0.49658  -0.49482  -0.49073  -0.48571
 Alpha  occ. eigenvalues --   -0.48075  -0.47877  -0.47101  -0.46963  -0.46865
 Alpha  occ. eigenvalues --   -0.46501  -0.46435  -0.46224  -0.45923  -0.45561
 Alpha  occ. eigenvalues --   -0.45156  -0.44937  -0.44779  -0.44282  -0.43950
 Alpha  occ. eigenvalues --   -0.43895  -0.43503  -0.43361  -0.42946  -0.42749
 Alpha  occ. eigenvalues --   -0.42345  -0.41777  -0.41693  -0.41029  -0.40933
 Alpha  occ. eigenvalues --   -0.40709  -0.40565  -0.40518  -0.40187  -0.39957
 Alpha  occ. eigenvalues --   -0.39501  -0.38699  -0.38423  -0.37879  -0.37863
 Alpha  occ. eigenvalues --   -0.37366  -0.36228  -0.35940  -0.35566  -0.35549
 Alpha  occ. eigenvalues --   -0.34792  -0.34724  -0.34338  -0.33708  -0.32415
 Alpha  occ. eigenvalues --   -0.31116  -0.30487  -0.29967  -0.29071  -0.26929
 Alpha  occ. eigenvalues --   -0.26476  -0.25585  -0.25028  -0.24056  -0.22588
 Alpha virt. eigenvalues --   -0.12772  -0.11254  -0.10221  -0.08070  -0.07601
 Alpha virt. eigenvalues --   -0.06143  -0.05908  -0.05578  -0.05185  -0.02990
 Alpha virt. eigenvalues --   -0.02830  -0.02022  -0.01673  -0.00676   0.00028

 Mulliken charges:
               1
     1  N   -0.759670
     2  H    0.416326
     3  H    0.410006
     4  H    0.431550
     5  C   -0.113654
     6  H    0.233126
     7  C    0.646537
     8  C   -0.397973
     9  H    0.186810
    10  H    0.215593
    11  O   -0.542563
    12  C    0.659092
    13  N   -0.758061
    14  H    0.419188
    15  H    0.344009
    16  O   -0.545840
    17  N   -0.589912
    18  H    0.397700
    19  C   -0.090566
    20  H    0.192562
    21  C    0.654567
    22  C   -0.109358
    23  H    0.158055
    24  O   -0.577236
    25  C   -0.254389
    26  H    0.154461
    27  H    0.141029
    28  C   -0.499516
    29  H    0.149644
    30  H    0.173263
    31  H    0.182155
    32  C   -0.462348
    33  H    0.164395
    34  H    0.160074
    35  H    0.145733
    36  N   -0.592912
    37  H    0.346832
    38  C   -0.050769
    39  H    0.192248
    40  C    0.666474
    41  C   -0.485386
    42  H    0.228094
    43  H    0.147787
    44  H    0.163248
    45  O   -0.556523
    46  N   -0.603938
    47  H    0.358804
    48  C   -0.088182
    49  H    0.183972
    50  C    0.635456
    51  C    0.122058
    52  H    0.148980
    53  O   -0.568901
    54  C   -0.474865
    55  H    0.150450
    56  H    0.174174
    57  H    0.162059
    58  O   -0.680571
    59  H    0.434580
    60  N   -0.589036
    61  H    0.373244
    62  C   -0.104635
    63  H    0.204769
    64  C    0.596889
    65  C   -0.046694
    66  H    0.168643
    67  H    0.144544
    68  O   -0.501313
    69  O   -0.674910
    70  H    0.430110
    71  N   -0.599477
    72  H    0.340611
    73  C   -0.226711
    74  H    0.207934
    75  H    0.160951
    76  C    0.587095
    77  O   -0.529701
    78  N   -0.622146
    79  H    0.344720
    80  C   -0.055183
    81  H    0.162585
    82  C    0.570386
    83  C   -0.255899
    84  H    0.147961
    85  H    0.158840
    86  O   -0.575024
    87  C   -0.272048
    88  H    0.149573
    89  H    0.177279
    90  C   -0.291952
    91  H    0.163322
    92  H    0.163198
    93  C   -0.206753
    94  H    0.222034
    95  H    0.226308
    96  N   -0.731881
    97  H    0.422176
    98  H    0.423978
    99  H    0.423897
   100  O   -0.635635
 Sum of Mulliken charges =   1.00000

 Dipole moment (field-independent basis, Debye):
    X=            -26.4678    Y=            -21.2572    Z=            -13.7448  Tot=             36.6242
 Quadrupole moment (field-independent basis, Debye-Ang):
   XX=           -136.1441   YY=            -56.7047   ZZ=             -8.9927
   XY=            -28.1455   XZ=            -39.6077   YZ=            260.7642

 Normal termination of Gaussian 16 at Mon Jun  6 08:11:18 2022.
