 Gaussian 16, Revision C.01,
 Gaussian 16:  ES64L-G16RevC.01  3-Jul-2019

 ----------------------------------------------------------------------
 # B3LYP/6-31G* empiricaldispersion=gd3 guess=read geom=check nosymm in
 tegral(ultrafinegrid)
 ----------------------------------------------------------------------

 ------------------------------------------------------
 Candidate Structure: Conf:962 Charge calc in gas phase
 ------------------------------------------------------
 Structure from the checkpoint file:  "conf-962.chk"
 Charge =  1 Multiplicity = 1

                          Input orientation:
 ---------------------------------------------------------------------
 Center     Atomic      Atomic             Coordinates (Angstroms)
 Number     Number       Type             X           Y           Z
 ---------------------------------------------------------------------
      1          7           0       -5.814899    5.523012    3.134475
      2          1           0       -6.302011    5.517085    4.036124
      3          1           0       -6.224143    6.250023    2.541297
      4          1           0       -4.778686    5.698133    3.316839
      5          6           0       -5.758260    4.156662    2.479600
      6          1           0       -6.601160    3.558817    2.831061
      7          6           0       -4.390667    3.610902    2.983585
      8          6           0       -5.777389    4.325353    0.942955
      9          1           0       -6.792229    4.579023    0.613418
     10          1           0       -5.092342    5.127912    0.654292
     11          8           0       -3.558142    4.456679    3.340050
     12          6           0       -5.234633    3.045513    0.277151
     13          7           0       -6.123174    2.024945    0.171422
     14          1           0       -5.757976    1.113372   -0.082025
     15          1           0       -7.123541    2.153250    0.214771
     16          8           0       -4.046855    2.954519    0.016255
     17          7           0       -4.239583    2.293030    2.965001
     18          1           0       -4.955574    1.703825    2.531311
     19          6           0       -2.929642    1.630860    2.919842
     20          1           0       -2.190132    2.384157    2.631615
     21          6           0       -3.072088    0.583092    1.794603
     22          6           0       -2.519168    0.995039    4.272580
     23          1           0       -1.556979    0.497270    4.082273
     24          8           0       -4.195977    0.200901    1.436963
     25          6           0       -3.527873   -0.076274    4.731863
     26          1           0       -3.724634   -0.769561    3.905081
     27          1           0       -4.486838    0.413834    4.953686
     28          6           0       -2.294441    2.090904    5.323584
     29          1           0       -3.239651    2.585319    5.577875
     30          1           0       -1.877715    1.671267    6.242976
     31          1           0       -1.604672    2.859460    4.960107
     32          6           0       -3.064437   -0.877926    5.953009
     33          1           0       -3.780996   -1.672118    6.186702
     34          1           0       -2.092690   -1.350808    5.766922
     35          1           0       -2.966347   -0.250792    6.844994
     36          7           0       -1.926982    0.120857    1.288344
     37          1           0       -1.015738    0.431090    1.617450
     38          6           0       -1.873279   -0.849389    0.204925
     39          1           0       -2.631284   -1.617652    0.390033
     40          6           0       -0.460688   -1.451394    0.240756
     41          6           0       -2.127680   -0.177725   -1.158042
     42          1           0       -2.184685   -0.923644   -1.957090
     43          1           0       -3.065836    0.381919   -1.122597
     44          1           0       -1.316588    0.519258   -1.392589
     45          8           0        0.450858   -0.874003    0.841928
     46          7           0       -0.300127   -2.589518   -0.457053
     47          1           0       -1.053544   -2.983182   -1.012750
     48          6           0        1.009698   -3.177370   -0.735617
     49          1           0        1.628747   -3.073486    0.160445
     50          6           0        1.637305   -2.409711   -1.921198
     51          6           0        0.801657   -4.662361   -1.103268
     52          1           0        1.764812   -5.046784   -1.467908
     53          8           0        1.565147   -2.841729   -3.076757
     54          6           0        0.328149   -5.498989    0.076264
     55          1           0        1.072658   -5.497966    0.879614
     56          1           0        0.162894   -6.529051   -0.251060
     57          1           0       -0.615005   -5.110528    0.474679
     58          8           0       -0.187025   -4.746954   -2.127386
     59          1           0        0.219973   -4.293318   -2.894260
     60          7           0        2.192815   -1.224248   -1.601805
     61          1           0        2.288301   -0.963769   -0.625942
     62          6           0        2.825191   -0.365256   -2.589415
     63          1           0        3.433081   -0.988173   -3.261591
     64          6           0        3.815372    0.550733   -1.847293
     65          6           0        1.771078    0.339853   -3.482332
     66          1           0        1.152116    1.002207   -2.864591
     67          1           0        1.129330   -0.444803   -3.901391
     68          8           0        4.298971    0.229598   -0.766600
     69          8           0        2.348026    1.138383   -4.502320
     70          1           0        2.954138    0.569579   -5.052696
     71          7           0        4.151786    1.686303   -2.526676
     72          1           0        3.644954    1.834848   -3.407114
     73          6           0        5.405383    2.373596   -2.307704
     74          1           0        5.270642    3.456956   -2.230755
     75          1           0        5.832943    2.018165   -1.364697
     76          6           0        6.391380    2.123881   -3.458309
     77          8           0        7.292157    2.976222   -3.685274
     78          7           0        6.202610    1.010300   -4.148692
     79          1           0        5.338260    0.477359   -3.990608
     80          6           0        6.628766    0.714920   -5.511565
     81          1           0        6.849490    1.656523   -6.022269
     82          6           0        5.372715    0.085916   -6.244256
     83          6           0        7.812870   -0.259573   -5.566455
     84          1           0        7.500026   -1.169297   -5.040377
     85          1           0        7.952043   -0.541827   -6.616799
     86          8           0        5.485459   -0.026286   -7.463724
     87          6           0        9.128982    0.250193   -4.948838
     88          1           0        8.911727    0.855661   -4.058698
     89          1           0        9.712337   -0.603935   -4.585555
     90          6           0       10.043401    1.022350   -5.917547
     91          1           0       10.334434    0.359582   -6.741971
     92          1           0       10.977282    1.302135   -5.408124
     93          6           0        9.443570    2.266501   -6.567095
     94          1           0       10.159711    2.739858   -7.245251
     95          1           0        8.538873    2.034353   -7.131745
     96          7           0        9.060688    3.295387   -5.531413
     97          1           0        8.717894    4.153726   -5.971508
     98          1           0        9.873241    3.553057   -4.963330
     99          1           0        8.273173    2.985696   -4.813088
    100          8           0        4.422063   -0.239608   -5.453594
 ---------------------------------------------------------------------

 SCF Done:  E(RB3LYP) =  -2418.54940246     A.U. after    3 cycles

 Alpha  occ. eigenvalues --  -19.27047 -19.23420 -19.21460 -19.19938 -19.19503
 Alpha  occ. eigenvalues --  -19.18577 -19.17309 -19.17136 -19.16446 -19.11681
 Alpha  occ. eigenvalues --  -19.10164 -14.61245 -14.52153 -14.49034 -14.47579
 Alpha  occ. eigenvalues --  -14.44998 -14.43388 -14.40961 -14.40957 -14.40047
 Alpha  occ. eigenvalues --  -10.43703 -10.42241 -10.41653 -10.38455 -10.36445
 Alpha  occ. eigenvalues --  -10.35684 -10.35394 -10.34011 -10.33568 -10.33547
 Alpha  occ. eigenvalues --  -10.33147 -10.31597 -10.29217 -10.29054 -10.28974
 Alpha  occ. eigenvalues --  -10.28551 -10.28409 -10.27432 -10.27393 -10.27223
 Alpha  occ. eigenvalues --  -10.26318 -10.26229 -10.25673 -10.25636 -10.25016
 Alpha  occ. eigenvalues --  -10.24605 -10.23353 -10.22439  -1.19703  -1.15476
 Alpha  occ. eigenvalues --   -1.14790  -1.13334  -1.11368  -1.10617  -1.09182
 Alpha  occ. eigenvalues --   -1.08243  -1.06933  -1.06076  -1.05979  -1.04910
 Alpha  occ. eigenvalues --   -1.04040  -1.02525  -1.01656  -0.99710  -0.99063
 Alpha  occ. eigenvalues --   -0.97244  -0.96554  -0.95405  -0.94433  -0.90420
 Alpha  occ. eigenvalues --   -0.87839  -0.86143  -0.84354  -0.83024  -0.82576
 Alpha  occ. eigenvalues --   -0.81524  -0.80803  -0.79274  -0.78172  -0.76413
 Alpha  occ. eigenvalues --   -0.75524  -0.75176  -0.74851  -0.73871  -0.72307
 Alpha  occ. eigenvalues --   -0.70974  -0.70863  -0.70758  -0.69259  -0.68171
 Alpha  occ. eigenvalues --   -0.67398  -0.66755  -0.66127  -0.65584  -0.65476
 Alpha  occ. eigenvalues --   -0.64995  -0.64639  -0.64373  -0.63861  -0.63629
 Alpha  occ. eigenvalues --   -0.63277  -0.62333  -0.61886  -0.60401  -0.59692
 Alpha  occ. eigenvalues --   -0.59165  -0.58468  -0.57587  -0.57216  -0.56779
 Alpha  occ. eigenvalues --   -0.56207  -0.56056  -0.55388  -0.55148  -0.55007
 Alpha  occ. eigenvalues --   -0.54416  -0.53789  -0.53591  -0.53466  -0.52781
 Alpha  occ. eigenvalues --   -0.52496  -0.52477  -0.51911  -0.51642  -0.51547
 Alpha  occ. eigenvalues --   -0.51163  -0.51084  -0.50661  -0.50150  -0.49875
 Alpha  occ. eigenvalues --   -0.49498  -0.48901  -0.48696  -0.48379  -0.48019
 Alpha  occ. eigenvalues --   -0.47822  -0.47162  -0.47106  -0.46819  -0.46295
 Alpha  occ. eigenvalues --   -0.46221  -0.45888  -0.45470  -0.45430  -0.45250
 Alpha  occ. eigenvalues --   -0.44853  -0.44214  -0.44092  -0.43911  -0.43723
 Alpha  occ. eigenvalues --   -0.43461  -0.43094  -0.42735  -0.42480  -0.42308
 Alpha  occ. eigenvalues --   -0.41751  -0.41549  -0.41460  -0.41051  -0.41013
 Alpha  occ. eigenvalues --   -0.40811  -0.40439  -0.39893  -0.38966  -0.38883
 Alpha  occ. eigenvalues --   -0.38394  -0.38185  -0.37947  -0.37190  -0.36083
 Alpha  occ. eigenvalues --   -0.35706  -0.35150  -0.34993  -0.34144  -0.33476
 Alpha  occ. eigenvalues --   -0.32675  -0.32349  -0.32024  -0.30430  -0.30081
 Alpha  occ. eigenvalues --   -0.29621  -0.28950  -0.26741  -0.26420  -0.24070
 Alpha virt. eigenvalues --   -0.13121  -0.11887  -0.10940  -0.07229  -0.06904
 Alpha virt. eigenvalues --   -0.05600  -0.05322  -0.04765  -0.04666  -0.02917
 Alpha virt. eigenvalues --   -0.02870  -0.02311  -0.02164  -0.00259   0.00356

 Mulliken charges:
               1
     1  N   -0.750914
     2  H    0.419197
     3  H    0.416438
     4  H    0.434802
     5  C   -0.120318
     6  H    0.216285
     7  C    0.652972
     8  C   -0.376489
     9  H    0.184984
    10  H    0.211288
    11  O   -0.536458
    12  C    0.581584
    13  N   -0.736480
    14  H    0.393917
    15  H    0.348419
    16  O   -0.468876
    17  N   -0.580998
    18  H    0.374076
    19  C   -0.085778
    20  H    0.195140
    21  C    0.674375
    22  C   -0.078155
    23  H    0.150369
    24  O   -0.589083
    25  C   -0.272185
    26  H    0.158923
    27  H    0.125402
    28  C   -0.452388
    29  H    0.134381
    30  H    0.170796
    31  H    0.161920
    32  C   -0.452678
    33  H    0.159706
    34  H    0.156564
    35  H    0.154399
    36  N   -0.610076
    37  H    0.365251
    38  C   -0.052373
    39  H    0.182757
    40  C    0.633278
    41  C   -0.452592
    42  H    0.164558
    43  H    0.178220
    44  H    0.175107
    45  O   -0.551144
    46  N   -0.602188
    47  H    0.351909
    48  C   -0.083908
    49  H    0.180817
    50  C    0.633444
    51  C    0.115456
    52  H    0.150554
    53  O   -0.544136
    54  C   -0.449159
    55  H    0.148404
    56  H    0.173849
    57  H    0.145429
    58  O   -0.653915
    59  H    0.424438
    60  N   -0.616317
    61  H    0.369294
    62  C   -0.074000
    63  H    0.229649
    64  C    0.557844
    65  C   -0.039229
    66  H    0.132115
    67  H    0.168167
    68  O   -0.520483
    69  O   -0.659086
    70  H    0.447645
    71  N   -0.624961
    72  H    0.372042
    73  C   -0.214145
    74  H    0.181526
    75  H    0.217263
    76  C    0.598523
    77  O   -0.623364
    78  N   -0.556450
    79  H    0.375708
    80  C   -0.099677
    81  H    0.115249
    82  C    0.602777
    83  C   -0.263617
    84  H    0.161742
    85  H    0.171987
    86  O   -0.540148
    87  C   -0.285076
    88  H    0.146381
    89  H    0.161349
    90  C   -0.284939
    91  H    0.183537
    92  H    0.146634
    93  C   -0.191522
    94  H    0.188140
    95  H    0.229664
    96  N   -0.773026
    97  H    0.392274
    98  H    0.386536
    99  H    0.465964
   100  O   -0.635088
 Sum of Mulliken charges =   1.00000

 Dipole moment (field-independent basis, Debye):
    X=            -10.9426    Y=             25.0587    Z=              9.4012  Tot=             28.9148
 Quadrupole moment (field-independent basis, Debye-Ang):
   XX=             84.3972   YY=           -157.6841   ZZ=           -251.7149
   XY=            -48.2760   XZ=           -156.1260   YZ=             -3.7961

 Normal termination of Gaussian 16 at Mon Jun  6 08:11:16 2022.
