 Gaussian 16, Revision C.01,
 Gaussian 16:  ES64L-G16RevC.01  3-Jul-2019

 ----------------------------------------------------------------------
 # B3LYP/6-31G* empiricaldispersion=gd3 guess=read geom=check nosymm in
 tegral(ultrafinegrid)
 ----------------------------------------------------------------------

 ------------------------------------------------------
 Candidate Structure: Conf:234 Charge calc in gas phase
 ------------------------------------------------------
 Structure from the checkpoint file:  "conf-234.chk"
 Charge =  1 Multiplicity = 1

                          Input orientation:
 ---------------------------------------------------------------------
 Center     Atomic      Atomic             Coordinates (Angstroms)
 Number     Number       Type             X           Y           Z
 ---------------------------------------------------------------------
      1          7           0       -5.477199    0.383583   -2.279197
      2          1           0       -6.335806    0.018219   -1.862187
      3          1           0       -5.334719    0.006774   -3.292908
      4          1           0       -5.506212    1.414199   -2.203441
      5          6           0       -4.244384   -0.056019   -1.533842
      6          1           0       -4.434973   -1.056279   -1.134511
      7          6           0       -4.038954    0.985292   -0.417615
      8          6           0       -3.045790   -0.077912   -2.506372
      9          1           0       -2.792278    0.952070   -2.784382
     10          1           0       -2.149010   -0.470744   -2.017447
     11          8           0       -4.573462    2.086172   -0.527445
     12          6           0       -3.365667   -0.860128   -3.783009
     13          7           0       -2.385762   -1.593328   -4.293881
     14          1           0       -2.570454   -2.086173   -5.158824
     15          1           0       -1.468333   -1.675863   -3.814198
     16          8           0       -4.501009   -0.772483   -4.315871
     17          7           0       -3.263749    0.602261    0.621135
     18          1           0       -2.708222   -0.233190    0.464451
     19          6           0       -2.563099    1.622074    1.405245
     20          1           0       -3.297796    2.373681    1.707367
     21          6           0       -1.553491    2.291373    0.433423
     22          6           0       -1.949221    0.935044    2.654842
     23          1           0       -1.309520    0.127449    2.277091
     24          8           0       -1.344477    1.802423   -0.674183
     25          6           0       -3.051926    0.292601    3.530347
     26          1           0       -2.548267   -0.265692    4.330194
     27          1           0       -3.595615   -0.451169    2.936117
     28          6           0       -1.042804    1.859659    3.482049
     29          1           0       -1.545509    2.790803    3.772961
     30          1           0       -0.753847    1.355961    4.411040
     31          1           0       -0.126866    2.110140    2.940720
     32          6           0       -4.058119    1.267808    4.153044
     33          1           0       -4.768704    0.726962    4.786601
     34          1           0       -3.566477    2.018443    4.781541
     35          1           0       -4.642946    1.796652    3.391435
     36          7           0       -0.952138    3.439519    0.831318
     37          1           0       -1.095125    3.789591    1.768261
     38          6           0        0.108310    4.061485    0.027196
     39          1           0       -0.152392    3.865386   -1.017465
     40          6           0        1.452863    3.364728    0.338001
     41          6           0        0.178055    5.559043    0.299059
     42          1           0        0.947949    6.019891   -0.325098
     43          1           0       -0.785342    6.028026    0.079369
     44          1           0        0.451731    5.753043    1.340715
     45          8           0        2.354429    3.940419    0.960451
     46          7           0        1.554711    2.081587   -0.075209
     47          1           0        0.836992    1.647178   -0.662644
     48          6           0        2.604033    1.210648    0.445875
     49          1           0        2.921952    1.639421    1.406606
     50          6           0        3.839059    1.251008   -0.474392
     51          6           0        2.034571   -0.197243    0.712450
     52          1           0        1.632454   -0.594254   -0.220715
     53          8           0        4.293238    0.277071   -1.079298
     54          6           0        3.056294   -1.157391    1.314499
     55          1           0        3.875291   -1.349388    0.619284
     56          1           0        2.561310   -2.101656    1.559498
     57          1           0        3.481569   -0.742406    2.239338
     58          8           0        0.894965   -0.071448    1.572809
     59          1           0        1.221292    0.133196    2.464372
     60          7           0        4.381489    2.495412   -0.591561
     61          1           0        4.044640    3.216291    0.047473
     62          6           0        5.638556    2.698755   -1.303278
     63          1           0        5.785886    3.783772   -1.362064
     64          6           0        5.540879    2.170305   -2.744062
     65          6           0        6.842818    2.122268   -0.557120
     66          1           0        7.744949    2.295228   -1.159056
     67          1           0        6.712015    1.038568   -0.432672
     68          8           0        6.474296    1.559346   -3.281814
     69          8           0        6.877723    2.800716    0.689332
     70          1           0        7.653915    2.497548    1.183122
     71          7           0        4.402525    2.503782   -3.389485
     72          1           0        3.668033    2.917747   -2.828844
     73          6           0        4.096237    2.036282   -4.734660
     74          1           0        3.334910    2.695966   -5.161899
     75          1           0        4.996701    2.100035   -5.346148
     76          6           0        3.621188    0.566936   -4.788353
     77          8           0        4.167866   -0.215344   -5.580440
     78          7           0        2.653535    0.259981   -3.910378
     79          1           0        2.264599    0.970686   -3.288587
     80          6           0        1.965137   -1.011745   -3.661109
     81          1           0        1.691419   -1.464824   -4.618347
     82          6           0        0.696398   -0.652611   -2.829809
     83          6           0        2.795728   -2.036762   -2.820837
     84          1           0        2.782498   -1.736521   -1.768582
     85          1           0        2.307552   -3.012302   -2.902513
     86          8           0       -0.176138   -1.555801   -2.732466
     87          6           0        4.231959   -2.007348   -3.316537
     88          1           0        4.252389   -2.312889   -4.367004
     89          1           0        4.446158   -0.942461   -3.284990
     90          6           0        5.399280   -2.650628   -2.558243
     91          1           0        5.669117   -3.636459   -2.953095
     92          1           0        5.173736   -2.778005   -1.493236
     93          6           0        6.576427   -1.663367   -2.633067
     94          1           0        6.356256   -0.809624   -1.990625
     95          1           0        7.542101   -2.091641   -2.355531
     96          7           0        6.755036   -1.043354   -4.025844
     97          1           0        6.985501   -0.036060   -3.908666
     98          1           0        5.871245   -1.015082   -4.570950
     99          1           0        7.463512   -1.518211   -4.588918
    100          8           0        0.709791    0.473850   -2.273735
 ---------------------------------------------------------------------

 SCF Done:  E(RB3LYP) =  -2418.59864958     A.U. after    1 cycles

 Alpha  occ. eigenvalues --  -19.23065 -19.22801 -19.22651 -19.22597 -19.21858
 Alpha  occ. eigenvalues --  -19.21448 -19.19949 -19.19789 -19.19330 -19.15931
 Alpha  occ. eigenvalues --  -19.15485 -14.54219 -14.53061 -14.46346 -14.46045
 Alpha  occ. eigenvalues --  -14.44768 -14.44627 -14.43236 -14.42999 -14.42829
 Alpha  occ. eigenvalues --  -10.39857 -10.39558 -10.38709 -10.37916 -10.37128
 Alpha  occ. eigenvalues --  -10.36731 -10.36605 -10.36404 -10.34430 -10.33822
 Alpha  occ. eigenvalues --  -10.32725 -10.32203 -10.31697 -10.31645 -10.31534
 Alpha  occ. eigenvalues --  -10.31404 -10.31211 -10.29449 -10.28877 -10.28494
 Alpha  occ. eigenvalues --  -10.27870 -10.26086 -10.25771 -10.25628 -10.25486
 Alpha  occ. eigenvalues --  -10.25438 -10.25114 -10.24539  -1.15363  -1.14284
 Alpha  occ. eigenvalues --   -1.13196  -1.12913  -1.12312  -1.11194  -1.10802
 Alpha  occ. eigenvalues --   -1.10014  -1.09952  -1.09072  -1.08828  -1.07891
 Alpha  occ. eigenvalues --   -1.03033  -1.02989  -1.01120  -1.01007  -1.00900
 Alpha  occ. eigenvalues --   -0.99279  -0.98950  -0.98604  -0.90203  -0.89333
 Alpha  occ. eigenvalues --   -0.88126  -0.86984  -0.85368  -0.84522  -0.83994
 Alpha  occ. eigenvalues --   -0.81504  -0.81419  -0.79699  -0.78543  -0.77925
 Alpha  occ. eigenvalues --   -0.76891  -0.73571  -0.72925  -0.72358  -0.71483
 Alpha  occ. eigenvalues --   -0.70651  -0.69679  -0.69313  -0.68843  -0.68591
 Alpha  occ. eigenvalues --   -0.68314  -0.67319  -0.67244  -0.66745  -0.65928
 Alpha  occ. eigenvalues --   -0.65661  -0.65255  -0.64325  -0.64062  -0.62687
 Alpha  occ. eigenvalues --   -0.62357  -0.62019  -0.61412  -0.60484  -0.59916
 Alpha  occ. eigenvalues --   -0.59320  -0.58662  -0.58509  -0.58142  -0.57459
 Alpha  occ. eigenvalues --   -0.57197  -0.56741  -0.56585  -0.55956  -0.55735
 Alpha  occ. eigenvalues --   -0.55328  -0.54767  -0.54700  -0.54307  -0.53960
 Alpha  occ. eigenvalues --   -0.52991  -0.52778  -0.52362  -0.52215  -0.51719
 Alpha  occ. eigenvalues --   -0.51284  -0.50961  -0.50753  -0.50697  -0.50319
 Alpha  occ. eigenvalues --   -0.50216  -0.50015  -0.49934  -0.49670  -0.49183
 Alpha  occ. eigenvalues --   -0.48936  -0.48794  -0.48599  -0.48416  -0.47865
 Alpha  occ. eigenvalues --   -0.47653  -0.47259  -0.46906  -0.46586  -0.46389
 Alpha  occ. eigenvalues --   -0.46115  -0.45981  -0.45781  -0.45649  -0.45278
 Alpha  occ. eigenvalues --   -0.45018  -0.44837  -0.44706  -0.44562  -0.44434
 Alpha  occ. eigenvalues --   -0.43954  -0.43798  -0.43521  -0.42277  -0.41655
 Alpha  occ. eigenvalues --   -0.40953  -0.40686  -0.40558  -0.40330  -0.40185
 Alpha  occ. eigenvalues --   -0.39382  -0.37766  -0.37627  -0.37259  -0.36533
 Alpha  occ. eigenvalues --   -0.36227  -0.36030  -0.35767  -0.35664  -0.35385
 Alpha  occ. eigenvalues --   -0.34966  -0.34560  -0.33866  -0.33192  -0.32652
 Alpha  occ. eigenvalues --   -0.32268  -0.31942  -0.31494  -0.30203  -0.29581
 Alpha virt. eigenvalues --   -0.09195  -0.08611  -0.08042  -0.07220  -0.06725
 Alpha virt. eigenvalues --   -0.06577  -0.05177  -0.05104  -0.04841  -0.02142
 Alpha virt. eigenvalues --   -0.01582  -0.01403  -0.01132  -0.00292   0.00012

 Mulliken charges:
               1
     1  N   -0.759870
     2  H    0.393853
     3  H    0.447754
     4  H    0.404501
     5  C   -0.139835
     6  H    0.202150
     7  C    0.657282
     8  C   -0.396311
     9  H    0.222197
    10  H    0.245847
    11  O   -0.524155
    12  C    0.619701
    13  N   -0.755164
    14  H    0.349604
    15  H    0.427704
    16  O   -0.581530
    17  N   -0.582071
    18  H    0.353398
    19  C   -0.088351
    20  H    0.192592
    21  C    0.647435
    22  C   -0.102932
    23  H    0.169934
    24  O   -0.529444
    25  C   -0.251879
    26  H    0.145746
    27  H    0.140056
    28  C   -0.502158
    29  H    0.149926
    30  H    0.163149
    31  H    0.160323
    32  C   -0.462132
    33  H    0.162882
    34  H    0.154116
    35  H    0.151122
    36  N   -0.602516
    37  H    0.340726
    38  C   -0.058642
    39  H    0.190446
    40  C    0.608165
    41  C   -0.456788
    42  H    0.169850
    43  H    0.163662
    44  H    0.170769
    45  O   -0.549367
    46  N   -0.634336
    47  H    0.444174
    48  C   -0.086694
    49  H    0.172768
    50  C    0.639949
    51  C    0.112309
    52  H    0.193796
    53  O   -0.550633
    54  C   -0.490662
    55  H    0.179290
    56  H    0.169680
    57  H    0.135419
    58  O   -0.627209
    59  H    0.391163
    60  N   -0.627045
    61  H    0.388616
    62  C   -0.074710
    63  H    0.198446
    64  C    0.667061
    65  C   -0.026359
    66  H    0.149197
    67  H    0.144240
    68  O   -0.600359
    69  O   -0.622536
    70  H    0.407425
    71  N   -0.575011
    72  H    0.353039
    73  C   -0.241356
    74  H    0.190237
    75  H    0.200638
    76  C    0.597663
    77  O   -0.556270
    78  N   -0.584926
    79  H    0.344920
    80  C   -0.039619
    81  H    0.161903
    82  C    0.609018
    83  C   -0.280365
    84  H    0.163887
    85  H    0.162971
    86  O   -0.617739
    87  C   -0.318430
    88  H    0.164520
    89  H    0.169654
    90  C   -0.260594
    91  H    0.160501
    92  H    0.178639
    93  C   -0.221416
    94  H    0.241603
    95  H    0.185282
    96  N   -0.784310
    97  H    0.443092
    98  H    0.435213
    99  H    0.393834
   100  O   -0.591310
 Sum of Mulliken charges =   1.00000

 Dipole moment (field-independent basis, Debye):
    X=              7.3236    Y=              0.7658    Z=             -6.0177  Tot=              9.5097
 Quadrupole moment (field-independent basis, Debye-Ang):
   XX=            -93.0860   YY=           -258.0569   ZZ=           -236.9434
   XY=            -14.4822   XZ=            -37.7325   YZ=              5.7738

 Normal termination of Gaussian 16 at Mon Jun  6 08:10:54 2022.
