 Gaussian 16, Revision C.01,
 Gaussian 16:  ES64L-G16RevC.01  3-Jul-2019

 ----------------------------------------------------------------------
 # B3LYP/6-31G* empiricaldispersion=gd3 guess=read geom=check nosymm in
 tegral(ultrafinegrid)
 ----------------------------------------------------------------------

 ------------------------------------------------------
 Candidate Structure: Conf:879 Charge calc in gas phase
 ------------------------------------------------------
 Structure from the checkpoint file:  "conf-879.chk"
 Charge =  1 Multiplicity = 1

                          Input orientation:
 ---------------------------------------------------------------------
 Center     Atomic      Atomic             Coordinates (Angstroms)
 Number     Number       Type             X           Y           Z
 ---------------------------------------------------------------------
      1          7           0       -5.448367    0.709345    6.836146
      2          1           0       -4.901366    0.387687    7.640462
      3          1           0       -6.443705    0.649602    7.065905
      4          1           0       -5.149477    1.713501    6.605402
      5          6           0       -5.071578    0.013730    5.544162
      6          1           0       -4.604588   -0.944135    5.779675
      7          6           0       -4.056874    1.020398    4.924372
      8          6           0       -6.327053   -0.168361    4.660982
      9          1           0       -6.938050   -0.990276    5.053537
     10          1           0       -6.916921    0.752775    4.662276
     11          8           0       -4.105811    2.187617    5.346580
     12          6           0       -5.897034   -0.391424    3.198063
     13          7           0       -5.403173   -1.633168    2.925915
     14          1           0       -4.978829   -1.769227    2.014784
     15          1           0       -5.655811   -2.451214    3.462089
     16          8           0       -5.860467    0.543321    2.419933
     17          7           0       -3.254939    0.538467    3.993081
     18          1           0       -3.349474   -0.424652    3.668506
     19          6           0       -2.457702    1.360299    3.080360
     20          1           0       -2.938254    2.340017    3.014859
     21          6           0       -2.545475    0.625513    1.730623
     22          6           0       -0.994280    1.506515    3.601086
     23          1           0       -1.108849    1.935918    4.607353
     24          8           0       -2.824764   -0.578526    1.681851
     25          6           0       -0.139074    2.484274    2.774135
     26          1           0        0.038596    2.069204    1.774046
     27          1           0        0.850041    2.495141    3.241038
     28          6           0       -0.301290    0.144437    3.703717
     29          1           0       -0.177358   -0.295842    2.711670
     30          1           0        0.709404    0.257853    4.103290
     31          1           0       -0.869287   -0.561229    4.322492
     32          6           0       -0.682608    3.914332    2.675120
     33          1           0        0.041486    4.565677    2.174176
     34          1           0       -1.623708    3.991354    2.110337
     35          1           0       -0.876751    4.334641    3.669283
     36          7           0       -2.281582    1.370189    0.636817
     37          1           0       -1.930634    2.310606    0.767289
     38          6           0       -2.054146    0.765439   -0.679706
     39          1           0       -2.734541   -0.086097   -0.753064
     40          6           0       -0.585730    0.299358   -0.707445
     41          6           0       -2.329670    1.780599   -1.783988
     42          1           0       -2.209176    1.310199   -2.764849
     43          1           0       -3.349447    2.167831   -1.704016
     44          1           0       -1.615604    2.607524   -1.719003
     45          8           0        0.325918    1.134230   -0.824657
     46          7           0       -0.380100   -1.017182   -0.559772
     47          1           0       -1.168705   -1.653038   -0.521048
     48          6           0        0.918330   -1.633456   -0.282172
     49          1           0        1.467683   -0.998415    0.432876
     50          6           0        1.853743   -1.764246   -1.492110
     51          6           0        0.683992   -2.996793    0.381506
     52          1           0        1.633913   -3.537510    0.322607
     53          8           0        2.668424   -2.688287   -1.574616
     54          6           0        0.240866   -2.879058    1.835254
     55          1           0        0.997977   -2.330335    2.404721
     56          1           0        0.121813   -3.878559    2.273046
     57          1           0       -0.718603   -2.355448    1.909673
     58          8           0       -0.310312   -3.649828   -0.430127
     59          1           0       -0.455547   -4.535005   -0.064043
     60          7           0        1.816157   -0.748758   -2.399993
     61          1           0        1.377197    0.123332   -2.100529
     62          6           0        2.770485   -0.716168   -3.504599
     63          1           0        2.955110   -1.751057   -3.805537
     64          6           0        4.090754   -0.097244   -3.010101
     65          6           0        2.201092    0.036014   -4.700091
     66          1           0        2.147123    1.109721   -4.466778
     67          1           0        1.181857   -0.334599   -4.886958
     68          8           0        4.430217    1.052289   -3.335136
     69          8           0        3.074639   -0.228798   -5.785340
     70          1           0        2.856574    0.373835   -6.511122
     71          7           0        4.783587   -0.861051   -2.143124
     72          1           0        4.364062   -1.755326   -1.884520
     73          6           0        5.897666   -0.322486   -1.382611
     74          1           0        6.370218   -1.145722   -0.838601
     75          1           0        6.645617    0.103293   -2.056186
     76          6           0        5.512737    0.785669   -0.381046
     77          8           0        6.283330    1.760922   -0.238511
     78          7           0        4.362563    0.637568    0.271286
     79          1           0        3.866912   -0.261028    0.282816
     80          6           0        3.922553    1.447180    1.415317
     81          1           0        4.809396    1.762492    1.974263
     82          6           0        3.039904    0.522353    2.327478
     83          6           0        3.097226    2.691895    1.039791
     84          1           0        2.163482    2.368133    0.560799
     85          1           0        2.823825    3.146380    1.995785
     86          8           0        2.697780    1.028207    3.410812
     87          6           0        3.817634    3.720579    0.146557
     88          1           0        3.514132    4.738765    0.423238
     89          1           0        4.894929    3.657745    0.332591
     90          6           0        3.511032    3.517624   -1.349218
     91          1           0        2.533027    3.954340   -1.583542
     92          1           0        3.420499    2.453458   -1.586411
     93          6           0        4.544694    4.141356   -2.288452
     94          1           0        4.152943    4.271411   -3.300625
     95          1           0        4.897262    5.109284   -1.920238
     96          7           0        5.743891    3.234881   -2.417100
     97          1           0        6.506107    3.662810   -2.946513
     98          1           0        5.433682    2.350102   -2.887482
     99          1           0        6.104067    2.892406   -1.488251
    100          8           0        2.746800   -0.611888    1.836718
 ---------------------------------------------------------------------

 SCF Done:  E(RB3LYP) =  -2418.57111619     A.U. after    3 cycles

 Alpha  occ. eigenvalues --  -19.26191 -19.23116 -19.21641 -19.21117 -19.21080
 Alpha  occ. eigenvalues --  -19.20700 -19.19618 -19.18798 -19.18584 -19.11858
 Alpha  occ. eigenvalues --  -19.10712 -14.60280 -14.50641 -14.48345 -14.47289
 Alpha  occ. eigenvalues --  -14.45595 -14.43793 -14.43773 -14.42649 -14.41356
 Alpha  occ. eigenvalues --  -10.42823 -10.41480 -10.41293 -10.38490 -10.37140
 Alpha  occ. eigenvalues --  -10.36513 -10.35611 -10.35606 -10.34861 -10.32587
 Alpha  occ. eigenvalues --  -10.32586 -10.31890 -10.30317 -10.30289 -10.30227
 Alpha  occ. eigenvalues --  -10.29430 -10.29264 -10.28466 -10.26385 -10.26127
 Alpha  occ. eigenvalues --  -10.26021 -10.25553 -10.24157 -10.23987 -10.23431
 Alpha  occ. eigenvalues --  -10.22577 -10.22078 -10.21497  -1.18865  -1.15195
 Alpha  occ. eigenvalues --   -1.13920  -1.13312  -1.12474  -1.11377  -1.10379
 Alpha  occ. eigenvalues --   -1.09894  -1.08424  -1.07829  -1.05980  -1.05403
 Alpha  occ. eigenvalues --   -1.04550  -1.02185  -1.01977  -1.00655  -0.99955
 Alpha  occ. eigenvalues --   -0.98836  -0.97692  -0.95664  -0.93737  -0.88967
 Alpha  occ. eigenvalues --   -0.86805  -0.85925  -0.84359  -0.83520  -0.82820
 Alpha  occ. eigenvalues --   -0.81906  -0.80742  -0.79779  -0.77657  -0.76637
 Alpha  occ. eigenvalues --   -0.75362  -0.74398  -0.73986  -0.73171  -0.71650
 Alpha  occ. eigenvalues --   -0.71254  -0.70332  -0.69865  -0.69099  -0.68358
 Alpha  occ. eigenvalues --   -0.67731  -0.66525  -0.66450  -0.65963  -0.65888
 Alpha  occ. eigenvalues --   -0.65236  -0.64863  -0.64724  -0.63964  -0.63252
 Alpha  occ. eigenvalues --   -0.62830  -0.62465  -0.61434  -0.61111  -0.59474
 Alpha  occ. eigenvalues --   -0.59360  -0.58420  -0.58314  -0.57966  -0.57761
 Alpha  occ. eigenvalues --   -0.56918  -0.56529  -0.56146  -0.55727  -0.55293
 Alpha  occ. eigenvalues --   -0.54985  -0.54133  -0.53983  -0.53248  -0.52720
 Alpha  occ. eigenvalues --   -0.52351  -0.52059  -0.51943  -0.51866  -0.51360
 Alpha  occ. eigenvalues --   -0.50999  -0.50720  -0.50434  -0.50247  -0.49493
 Alpha  occ. eigenvalues --   -0.49455  -0.49363  -0.49135  -0.49024  -0.48616
 Alpha  occ. eigenvalues --   -0.48306  -0.47812  -0.47602  -0.47045  -0.46992
 Alpha  occ. eigenvalues --   -0.46773  -0.46529  -0.46333  -0.45863  -0.45547
 Alpha  occ. eigenvalues --   -0.44834  -0.44746  -0.44613  -0.44366  -0.43339
 Alpha  occ. eigenvalues --   -0.43131  -0.42890  -0.42743  -0.42579  -0.42143
 Alpha  occ. eigenvalues --   -0.41293  -0.41086  -0.40656  -0.40372  -0.40187
 Alpha  occ. eigenvalues --   -0.39795  -0.39482  -0.39005  -0.38761  -0.38698
 Alpha  occ. eigenvalues --   -0.38487  -0.38325  -0.37622  -0.36940  -0.36751
 Alpha  occ. eigenvalues --   -0.36339  -0.36127  -0.35568  -0.35155  -0.34833
 Alpha  occ. eigenvalues --   -0.33454  -0.32962  -0.32878  -0.32169  -0.31938
 Alpha  occ. eigenvalues --   -0.31503  -0.30936  -0.26830  -0.26499  -0.24803
 Alpha virt. eigenvalues --   -0.12062  -0.11204  -0.10482  -0.07822  -0.07109
 Alpha virt. eigenvalues --   -0.06227  -0.05669  -0.05473  -0.04230  -0.04120
 Alpha virt. eigenvalues --   -0.02723  -0.02309  -0.01108  -0.00546   0.00505

 Mulliken charges:
               1
     1  N   -0.754582
     2  H    0.418766
     3  H    0.414009
     4  H    0.435675
     5  C   -0.117071
     6  H    0.216993
     7  C    0.653381
     8  C   -0.375383
     9  H    0.184412
    10  H    0.209157
    11  O   -0.545166
    12  C    0.571774
    13  N   -0.739016
    14  H    0.386140
    15  H    0.347575
    16  O   -0.458571
    17  N   -0.582924
    18  H    0.382754
    19  C   -0.084860
    20  H    0.193774
    21  C    0.660039
    22  C   -0.079651
    23  H    0.140236
    24  O   -0.572747
    25  C   -0.309920
    26  H    0.150007
    27  H    0.215873
    28  C   -0.483020
    29  H    0.166438
    30  H    0.230896
    31  H    0.100979
    32  C   -0.469708
    33  H    0.160963
    34  H    0.118570
    35  H    0.157890
    36  N   -0.596441
    37  H    0.359996
    38  C   -0.052033
    39  H    0.173991
    40  C    0.647137
    41  C   -0.470677
    42  H    0.169333
    43  H    0.171425
    44  H    0.174396
    45  O   -0.575415
    46  N   -0.593764
    47  H    0.364139
    48  C   -0.105021
    49  H    0.268731
    50  C    0.637588
    51  C    0.098854
    52  H    0.175707
    53  O   -0.546870
    54  C   -0.501974
    55  H    0.216356
    56  H    0.126431
    57  H    0.149573
    58  O   -0.647834
    59  H    0.401074
    60  N   -0.638790
    61  H    0.380235
    62  C   -0.084319
    63  H    0.209178
    64  C    0.666418
    65  C   -0.029315
    66  H    0.132766
    67  H    0.141360
    68  O   -0.582670
    69  O   -0.614298
    70  H    0.404026
    71  N   -0.593153
    72  H    0.391766
    73  C   -0.232747
    74  H    0.203173
    75  H    0.179212
    76  C    0.599061
    77  O   -0.591287
    78  N   -0.572109
    79  H    0.356504
    80  C   -0.064487
    81  H    0.168857
    82  C    0.597699
    83  C   -0.297704
    84  H    0.167382
    85  H    0.168527
    86  O   -0.570567
    87  C   -0.281511
    88  H    0.135970
    89  H    0.159357
    90  C   -0.297678
    91  H    0.161998
    92  H    0.182709
    93  C   -0.177674
    94  H    0.185504
    95  H    0.188829
    96  N   -0.795480
    97  H    0.382584
    98  H    0.434344
    99  H    0.441977
   100  O   -0.604033
 Sum of Mulliken charges =   1.00000

 Dipole moment (field-independent basis, Debye):
    X=            -15.2498    Y=              4.4060    Z=             11.6436  Tot=             19.6861
 Quadrupole moment (field-independent basis, Debye-Ang):
   XX=           -118.3422   YY=           -240.2554   ZZ=           -115.6171
   XY=             48.4810   XZ=           -177.6651   YZ=            -37.0460

 Normal termination of Gaussian 16 at Mon Jun  6 08:11:50 2022.
