 Gaussian 16, Revision C.01,
 Gaussian 16:  ES64L-G16RevC.01  3-Jul-2019

 ----------------------------------------------------------------------
 # B3LYP/6-31G* empiricaldispersion=gd3 guess=read geom=check nosymm in
 tegral(ultrafinegrid)
 ----------------------------------------------------------------------

 ------------------------------------------------------
 Candidate Structure: Conf:102 Charge calc in gas phase
 ------------------------------------------------------
 Structure from the checkpoint file:  "conf-102.chk"
 Charge =  1 Multiplicity = 1

                          Input orientation:
 ---------------------------------------------------------------------
 Center     Atomic      Atomic             Coordinates (Angstroms)
 Number     Number       Type             X           Y           Z
 ---------------------------------------------------------------------
      1          7           0       -2.175220   -3.113987    2.958073
      2          1           0       -3.050660   -2.744580    3.338455
      3          1           0       -2.397820   -3.653784    2.092470
      4          1           0       -1.722479   -3.707974    3.670962
      5          6           0       -1.252171   -2.021666    2.460424
      6          1           0       -1.333868   -1.148143    3.107414
      7          6           0       -1.699119   -1.778302    1.005781
      8          6           0        0.200371   -2.552452    2.486670
      9          1           0        0.258420   -3.442044    1.845977
     10          1           0        0.821527   -1.787654    2.019294
     11          8           0       -2.162639   -2.746460    0.389962
     12          6           0        0.644803   -2.843202    3.886139
     13          6           0        1.202881   -1.944390    4.767209
     14          1           0        1.514257   -0.919482    4.585049
     15          6           0        0.423261   -4.068667    4.614691
     16          6           0        0.867261   -3.840902    5.949731
     17          6           0       -0.096552   -5.336415    4.278726
     18          1           0       -0.379078   -5.568826    3.252538
     19          7           0        1.338417   -2.544767    6.000271
     20          1           0        1.751815   -2.107118    6.809626
     21          6           0        0.251877   -6.059101    6.580408
     22          1           0        0.177173   -6.843251    7.327727
     23          6           0        0.788894   -4.825580    6.937522
     24          1           0        1.135048   -4.636586    7.949893
     25          6           0       -0.182682   -6.314636    5.264583
     26          1           0       -0.572725   -7.296837    5.014158
     27          7           0       -1.489693   -0.520390    0.588618
     28          1           0       -1.012403    0.059714    1.307497
     29          6           0       -1.136695   -0.067291   -0.782126
     30          1           0       -1.536445    0.951723   -0.879061
     31          6           0        0.406854   -0.019024   -0.662927
     32          6           0       -1.664640   -0.911086   -1.947007
     33          1           0       -1.290720   -1.931241   -1.817431
     34          8           0        1.107772   -0.983285   -0.933320
     35          6           0       -1.091724   -0.349781   -3.266817
     36          1           0       -1.429257    0.690674   -3.393345
     37          1           0        0.001292   -0.323832   -3.193992
     38          6           0       -3.199930   -0.926091   -1.946846
     39          1           0       -3.599902    0.080584   -2.127906
     40          1           0       -3.581757   -1.583586   -2.732751
     41          1           0       -3.594666   -1.293128   -0.997246
     42          6           0       -1.476559   -1.166293   -4.505647
     43          1           0       -0.963649   -0.783914   -5.394930
     44          1           0       -2.552083   -1.130540   -4.706397
     45          1           0       -1.191936   -2.218103   -4.382659
     46          7           0        0.884286    1.126170   -0.056280
     47          1           0        0.149509    1.732544    0.294088
     48          6           0        1.965273    0.990274    0.923365
     49          1           0        2.506747    0.078242    0.653591
     50          6           0        1.381932    0.777254    2.372758
     51          6           0        2.943343    2.176036    0.843574
     52          1           0        3.104119    2.395658   -0.220933
     53          1           0        2.463090    3.059664    1.301381
     54          8           0        2.226793    0.675827    3.284205
     55          6           0        4.280584    1.904743    1.542960
     56          1           0        4.765441    1.034679    1.079216
     57          1           0        4.075572    1.629041    2.581540
     58          6           0        5.246656    3.087285    1.527119
     59          1           0        4.802889    3.981906    1.975644
     60          1           0        6.147958    2.859392    2.103746
     61          7           0        5.717049    3.455553    0.169374
     62          1           0        6.412734    2.845390   -0.242519
     63          7           0        4.116709    5.080167   -0.300126
     64          1           0        3.888971    5.962884   -0.734507
     65          1           0        3.422394    4.651852    0.297088
     66          7           0        5.943556    4.815561   -1.694205
     67          1           0        6.904726    4.536377   -1.830663
     68          1           0        5.494862    5.317365   -2.447374
     69          6           0        5.252607    4.434714   -0.602115
     70          8           0        0.119677    0.694905    2.474793
 ---------------------------------------------------------------------

 SCF Done:  E(RB3LYP) =  -1582.21037410     A.U. after    1 cycles

 Alpha  occ. eigenvalues --  -19.21218 -19.18860 -19.15347 -19.14482 -14.54935
 Alpha  occ. eigenvalues --  -14.53320 -14.53221 -14.53053 -14.44702 -14.43528
 Alpha  occ. eigenvalues --  -14.42317 -10.49590 -10.37907 -10.35605 -10.35590
 Alpha  occ. eigenvalues --  -10.34215 -10.33061 -10.30589 -10.29043 -10.28787
 Alpha  occ. eigenvalues --  -10.28499 -10.28185 -10.28036 -10.27858 -10.26009
 Alpha  occ. eigenvalues --  -10.25872 -10.25782 -10.25140 -10.25084 -10.25064
 Alpha  occ. eigenvalues --  -10.24824 -10.23625 -10.22503 -10.22442  -1.17913
 Alpha  occ. eigenvalues --   -1.13380  -1.10715  -1.08825  -1.08100  -1.07031
 Alpha  occ. eigenvalues --   -1.06107  -1.04569  -1.01234  -0.99487  -0.98543
 Alpha  occ. eigenvalues --   -0.90843  -0.90525  -0.89135  -0.87211  -0.84708
 Alpha  occ. eigenvalues --   -0.84108  -0.80804  -0.80378  -0.79795  -0.78380
 Alpha  occ. eigenvalues --   -0.76979  -0.75482  -0.75378  -0.74133  -0.71803
 Alpha  occ. eigenvalues --   -0.69649  -0.69046  -0.68818  -0.68712  -0.68055
 Alpha  occ. eigenvalues --   -0.67067  -0.66386  -0.65910  -0.65278  -0.64784
 Alpha  occ. eigenvalues --   -0.63292  -0.61930  -0.60892  -0.60551  -0.60236
 Alpha  occ. eigenvalues --   -0.59487  -0.58943  -0.57194  -0.57053  -0.55747
 Alpha  occ. eigenvalues --   -0.54899  -0.54467  -0.53724  -0.53417  -0.53277
 Alpha  occ. eigenvalues --   -0.51150  -0.51086  -0.50941  -0.50276  -0.50099
 Alpha  occ. eigenvalues --   -0.49761  -0.49426  -0.48748  -0.48086  -0.47940
 Alpha  occ. eigenvalues --   -0.47342  -0.46634  -0.46301  -0.45889  -0.45390
 Alpha  occ. eigenvalues --   -0.45179  -0.44946  -0.44786  -0.44593  -0.44125
 Alpha  occ. eigenvalues --   -0.43542  -0.43013  -0.42447  -0.42195  -0.41659
 Alpha  occ. eigenvalues --   -0.41185  -0.40710  -0.40374  -0.40123  -0.38799
 Alpha  occ. eigenvalues --   -0.38192  -0.37700  -0.36004  -0.35018  -0.34332
 Alpha  occ. eigenvalues --   -0.34264  -0.31231  -0.30515  -0.29868  -0.29155
 Alpha  occ. eigenvalues --   -0.28034  -0.27092
 Alpha virt. eigenvalues --   -0.13748  -0.09310  -0.08682  -0.08192  -0.05881
 Alpha virt. eigenvalues --   -0.05280  -0.04959  -0.04244  -0.03994  -0.03888
 Alpha virt. eigenvalues --   -0.01244  -0.00669   0.00040   0.01297   0.01430

 Mulliken charges:
               1
     1  N   -0.755440
     2  H    0.404659
     3  H    0.410567
     4  H    0.411588
     5  C   -0.123641
     6  H    0.229563
     7  C    0.638211
     8  C   -0.379494
     9  H    0.177417
    10  H    0.213720
    11  O   -0.546286
    12  C    0.004746
    13  C    0.015972
    14  H    0.236805
    15  C    0.051807
    16  C    0.321673
    17  C   -0.259498
    18  H    0.128164
    19  N   -0.690469
    20  H    0.340425
    21  C   -0.152970
    22  H    0.144093
    23  C   -0.157002
    24  H    0.141967
    25  C   -0.133499
    26  H    0.139974
    27  N   -0.637129
    28  H    0.399010
    29  C   -0.052520
    30  H    0.143534
    31  C    0.584627
    32  C   -0.071414
    33  H    0.170429
    34  O   -0.509750
    35  C   -0.269569
    36  H    0.119300
    37  H    0.154275
    38  C   -0.458896
    39  H    0.131948
    40  H    0.159315
    41  H    0.159865
    42  C   -0.451285
    43  H    0.146277
    44  H    0.152603
    45  H    0.153444
    46  N   -0.579832
    47  H    0.319442
    48  C   -0.088113
    49  H    0.189684
    50  C    0.598232
    51  C   -0.294116
    52  H    0.132099
    53  H    0.124960
    54  O   -0.561346
    55  C   -0.266182
    56  H    0.148158
    57  H    0.231588
    58  C   -0.196794
    59  H    0.183082
    60  H    0.198893
    61  N   -0.577655
    62  H    0.366874
    63  N   -0.753965
    64  H    0.382954
    65  H    0.398158
    66  N   -0.761214
    67  H    0.384780
    68  H    0.384933
    69  C    0.815372
    70  O   -0.617109
 Sum of Mulliken charges =   1.00000

 Dipole moment (field-independent basis, Debye):
    X=             14.7770    Y=             11.9011    Z=              3.7005  Tot=             19.3311
 Quadrupole moment (field-independent basis, Debye-Ang):
   XX=            -66.3944   YY=            -89.2461   ZZ=           -147.1668
   XY=            105.3472   XZ=            -31.2942   YZ=            -56.0712

 Normal termination of Gaussian 16 at Fri Jun  3 03:50:42 2022.
