 Gaussian 16, Revision C.01,
 Gaussian 16:  ES64L-G16RevC.01  3-Jul-2019

 ----------------------------------------------------------------------
 # B3LYP/6-31G* empiricaldispersion=gd3 guess=read geom=check nosymm in
 tegral(ultrafinegrid)
 ----------------------------------------------------------------------

 ------------------------------------------------------
 Candidate Structure: Conf:669 Charge calc in gas phase
 ------------------------------------------------------
 Structure from the checkpoint file:  "conf-669.chk"
 Charge =  1 Multiplicity = 1

                          Input orientation:
 ---------------------------------------------------------------------
 Center     Atomic      Atomic             Coordinates (Angstroms)
 Number     Number       Type             X           Y           Z
 ---------------------------------------------------------------------
      1          7           0       -0.700612   -2.874089    2.792435
      2          1           0       -1.340346   -2.785403    3.585953
      3          1           0       -1.239295   -3.210585    1.950866
      4          1           0        0.038635   -3.555173    3.012708
      5          6           0       -0.173287   -1.539427    2.308055
      6          1           0       -0.203809   -0.809567    3.118106
      7          6           0       -1.125017   -1.185674    1.138528
      8          6           0        1.281795   -1.696924    1.778273
      9          1           0        1.461952   -0.833601    1.143332
     10          1           0        1.962649   -1.605391    2.631919
     11          8           0       -1.689080   -2.130655    0.573190
     12          6           0        1.520765   -2.968633    1.024814
     13          6           0        1.280620   -3.198577   -0.314488
     14          1           0        0.940306   -2.500022   -1.067135
     15          6           0        1.896520   -4.236111    1.605521
     16          6           0        1.860117   -5.199489    0.559560
     17          6           0        2.244029   -4.649631    2.907561
     18          1           0        2.331267   -3.927083    3.717888
     19          7           0        1.495969   -4.529010   -0.593925
     20          1           0        1.355670   -4.958436   -1.496414
     21          6           0        2.481279   -6.929850    2.077745
     22          1           0        2.711273   -7.970806    2.282630
     23          6           0        2.155627   -6.547675    0.780171
     24          1           0        2.126960   -7.272559   -0.028246
     25          6           0        2.526852   -5.993088    3.130669
     26          1           0        2.802504   -6.326443    4.126561
     27          7           0       -1.203104    0.124228    0.856636
     28          1           0       -0.555528    0.705716    1.413285
     29          6           0       -1.374395    0.710296   -0.504999
     30          1           0       -1.760967    1.724030   -0.341676
     31          6           0        0.107751    0.763853   -0.933985
     32          6           0       -2.328009   -0.020300   -1.457536
     33          1           0       -1.899688   -1.004559   -1.671931
     34          8           0        0.693856   -0.245091   -1.325706
     35          6           0       -2.485515    0.757072   -2.785759
     36          1           0       -3.236695    0.216788   -3.374919
     37          1           0       -2.929092    1.740666   -2.570918
     38          6           0       -3.710015   -0.194905   -0.807934
     39          1           0       -4.151045    0.778662   -0.558864
     40          1           0       -4.389861   -0.697113   -1.504112
     41          1           0       -3.660960   -0.797314    0.100782
     42          6           0       -1.227994    0.937979   -3.646356
     43          1           0       -1.502429    1.316860   -4.636640
     44          1           0       -0.694863   -0.009489   -3.777289
     45          1           0       -0.523756    1.655798   -3.212412
     46          7           0        0.748714    1.936530   -0.643198
     47          1           0        0.185120    2.616159   -0.144423
     48          6           0        2.124635    1.864526   -0.153867
     49          1           0        2.538627    0.988399   -0.655193
     50          6           0        2.127300    1.510669    1.377887
     51          6           0        2.963237    3.114490   -0.529867
     52          1           0        2.284377    3.872512   -0.933128
     53          1           0        3.413008    3.547567    0.371621
     54          8           0        3.269114    1.261403    1.875310
     55          6           0        4.064719    2.835097   -1.576168
     56          1           0        4.350443    3.767752   -2.076984
     57          1           0        3.666633    2.169753   -2.353333
     58          6           0        5.350600    2.235198   -0.974835
     59          1           0        6.064421    1.955309   -1.758007
     60          1           0        5.855853    2.982738   -0.356101
     61          7           0        5.087469    1.097143   -0.089224
     62          1           0        4.559855    1.338601    0.784261
     63          7           0        5.172955   -0.614522   -1.697494
     64          1           0        5.213975   -1.610977   -1.857266
     65          1           0        5.739504   -0.048818   -2.311837
     66          7           0        4.309441   -0.997866    0.434429
     67          1           0        3.880291   -0.533397    1.239229
     68          1           0        3.846254   -1.841774    0.117334
     69          6           0        4.863267   -0.157645   -0.464664
     70          8           0        1.028305    1.418325    1.970373
 ---------------------------------------------------------------------

 SCF Done:  E(RB3LYP) =  -1582.24578539     A.U. after    2 cycles

 Alpha  occ. eigenvalues --  -19.24645 -19.21843 -19.19027 -19.18915 -14.57499
 Alpha  occ. eigenvalues --  -14.49991 -14.48588 -14.47795 -14.47317 -14.46710
 Alpha  occ. eigenvalues --  -14.45166 -10.45011 -10.41146 -10.38551 -10.38013
 Alpha  occ. eigenvalues --  -10.36839 -10.33783 -10.33243 -10.32361 -10.32334
 Alpha  occ. eigenvalues --  -10.31577 -10.31350 -10.29341 -10.29192 -10.29177
 Alpha  occ. eigenvalues --  -10.28999 -10.28969 -10.28330 -10.28288 -10.28237
 Alpha  occ. eigenvalues --  -10.27274 -10.25721 -10.24522 -10.24353  -1.16823
 Alpha  occ. eigenvalues --   -1.13886  -1.13628  -1.11926  -1.11470  -1.08444
 Alpha  occ. eigenvalues --   -1.04326  -1.03548  -1.02717  -1.01809  -1.01524
 Alpha  occ. eigenvalues --   -0.94252  -0.92470  -0.89934  -0.89214  -0.87402
 Alpha  occ. eigenvalues --   -0.84318  -0.83773  -0.82515  -0.81414  -0.79491
 Alpha  occ. eigenvalues --   -0.78485  -0.76897  -0.74795  -0.72408  -0.71630
 Alpha  occ. eigenvalues --   -0.70948  -0.70865  -0.70688  -0.70059  -0.69425
 Alpha  occ. eigenvalues --   -0.68754  -0.68099  -0.66729  -0.66505  -0.64308
 Alpha  occ. eigenvalues --   -0.64177  -0.63506  -0.62392  -0.62103  -0.61039
 Alpha  occ. eigenvalues --   -0.60259  -0.59617  -0.58834  -0.58535  -0.57803
 Alpha  occ. eigenvalues --   -0.57056  -0.56685  -0.55307  -0.55029  -0.54516
 Alpha  occ. eigenvalues --   -0.54212  -0.53640  -0.53356  -0.52972  -0.52742
 Alpha  occ. eigenvalues --   -0.52195  -0.52135  -0.51050  -0.50901  -0.50150
 Alpha  occ. eigenvalues --   -0.49561  -0.49393  -0.48823  -0.48749  -0.48146
 Alpha  occ. eigenvalues --   -0.47863  -0.47722  -0.47267  -0.46443  -0.45451
 Alpha  occ. eigenvalues --   -0.45333  -0.44669  -0.44229  -0.43848  -0.43513
 Alpha  occ. eigenvalues --   -0.43022  -0.42648  -0.40746  -0.40710  -0.40482
 Alpha  occ. eigenvalues --   -0.39787  -0.39195  -0.38172  -0.37849  -0.37734
 Alpha  occ. eigenvalues --   -0.37238  -0.34872  -0.34170  -0.32998  -0.32687
 Alpha  occ. eigenvalues --   -0.32142  -0.30977
 Alpha virt. eigenvalues --   -0.11883  -0.11747  -0.09942  -0.08954  -0.07526
 Alpha virt. eigenvalues --   -0.06949  -0.06287  -0.04999  -0.04617  -0.02167
 Alpha virt. eigenvalues --   -0.01776  -0.01379  -0.00989   0.00008   0.00521

 Mulliken charges:
               1
     1  N   -0.764895
     2  H    0.408286
     3  H    0.425778
     4  H    0.411887
     5  C   -0.103199
     6  H    0.224817
     7  C    0.640003
     8  C   -0.396439
     9  H    0.210459
    10  H    0.189493
    11  O   -0.537816
    12  C   -0.032947
    13  C    0.008661
    14  H    0.226137
    15  C    0.055948
    16  C    0.315497
    17  C   -0.253985
    18  H    0.136919
    19  N   -0.683792
    20  H    0.347681
    21  C   -0.150323
    22  H    0.156919
    23  C   -0.155342
    24  H    0.152707
    25  C   -0.132365
    26  H    0.152566
    27  N   -0.622436
    28  H    0.401248
    29  C   -0.053076
    30  H    0.155612
    31  C    0.613566
    32  C   -0.088486
    33  H    0.161464
    34  O   -0.543335
    35  C   -0.263041
    36  H    0.152514
    37  H    0.135759
    38  C   -0.454935
    39  H    0.143032
    40  H    0.158193
    41  H    0.160245
    42  C   -0.461568
    43  H    0.157195
    44  H    0.155339
    45  H    0.145645
    46  N   -0.566858
    47  H    0.335540
    48  C   -0.097327
    49  H    0.177348
    50  C    0.606427
    51  C   -0.295245
    52  H    0.170448
    53  H    0.172280
    54  O   -0.599052
    55  C   -0.276987
    56  H    0.168556
    57  H    0.159329
    58  C   -0.178138
    59  H    0.156750
    60  H    0.196416
    61  N   -0.588641
    62  H    0.408532
    63  N   -0.752128
    64  H    0.370807
    65  H    0.375797
    66  N   -0.774948
    67  H    0.398893
    68  H    0.359295
    69  C    0.750689
    70  O   -0.583370
 Sum of Mulliken charges =   1.00000

 Dipole moment (field-independent basis, Debye):
    X=              9.1586    Y=             -8.9132    Z=              0.3668  Tot=             12.7851
 Quadrupole moment (field-independent basis, Debye-Ang):
   XX=           -134.4146   YY=           -131.4088   ZZ=           -165.6689
   XY=             -5.9774   XZ=            -32.2080   YZ=            -26.1081

 Normal termination of Gaussian 16 at Fri Jun  3 04:02:08 2022.
