 Gaussian 16, Revision C.01,
 Gaussian 16:  ES64L-G16RevC.01  3-Jul-2019

 ----------------------------------------------------------------------
 # B3LYP/6-31G* empiricaldispersion=gd3 guess=read geom=check nosymm in
 tegral(ultrafinegrid)
 ----------------------------------------------------------------------

 ------------------------------------------------------
 Candidate Structure: Conf:472 Charge calc in gas phase
 ------------------------------------------------------
 Structure from the checkpoint file:  "conf-472.chk"
 Charge =  1 Multiplicity = 1

                          Input orientation:
 ---------------------------------------------------------------------
 Center     Atomic      Atomic             Coordinates (Angstroms)
 Number     Number       Type             X           Y           Z
 ---------------------------------------------------------------------
      1          7           0       -1.458088   -2.554422    2.744386
      2          1           0       -2.105210   -2.209160    3.455992
      3          1           0       -2.003525   -2.896762    1.902758
      4          1           0       -0.905429   -3.336359    3.119807
      5          6           0       -0.616391   -1.457828    2.120419
      6          1           0       -0.598904   -0.578411    2.765985
      7          6           0       -1.341062   -1.196798    0.773275
      8          6           0        0.829579   -1.968833    1.874723
      9          1           0        1.316296   -1.218644    1.252477
     10          1           0        1.358997   -1.956978    2.834743
     11          8           0       -2.078106   -2.099880    0.346336
     12          6           0        0.870979   -3.329800    1.253108
     13          6           0        0.817815   -3.632083   -0.087991
     14          1           0        0.819775   -2.957445   -0.934522
     15          6           0        0.833898   -4.583058    1.964446
     16          6           0        0.744445   -5.614909    0.987463
     17          6           0        0.857695   -4.936095    3.328886
     18          1           0        0.994191   -4.176573    4.098558
     19          7           0        0.747494   -4.998629   -0.247802
     20          1           0        0.704238   -5.474055   -1.136222
     21          6           0        0.673408   -7.281994    2.693592
     22          1           0        0.611306   -8.322840    2.996479
     23          6           0        0.666999   -6.965087    1.338150
     24          1           0        0.600920   -7.741523    0.581083
     25          6           0        0.770674   -6.279961    3.679810
     26          1           0        0.796045   -6.565375    4.727428
     27          7           0       -1.051584   -0.017846    0.219017
     28          1           0       -0.347386    0.537872    0.759782
     29          6           0       -0.981309    0.310469   -1.229081
     30          1           0       -1.322658    1.349899   -1.328517
     31          6           0        0.551982    0.243294   -1.429647
     32          6           0       -1.802264   -0.557841   -2.189023
     33          1           0       -1.527448   -1.603807   -2.021540
     34          8           0        1.127139   -0.811037   -1.688363
     35          6           0       -1.427244   -0.186213   -3.640527
     36          1           0       -1.645747    0.879325   -3.808887
     37          1           0       -0.346503   -0.312454   -3.769149
     38          6           0       -3.303602   -0.377952   -1.920197
     39          1           0       -3.621136    0.644385   -2.164756
     40          1           0       -3.893830   -1.066359   -2.531449
     41          1           0       -3.548864   -0.579274   -0.875585
     42          6           0       -2.146848   -1.027897   -4.700277
     43          1           0       -1.766987   -0.795335   -5.701007
     44          1           0       -3.226353   -0.846918   -4.708305
     45          1           0       -1.987648   -2.098767   -4.523304
     46          7           0        1.200409    1.404308   -1.107692
     47          1           0        0.590178    2.129801   -0.747618
     48          6           0        2.470301    1.350144   -0.381051
     49          1           0        2.945684    0.407342   -0.669751
     50          6           0        2.213776    1.298019    1.183479
     51          6           0        3.378400    2.525693   -0.787446
     52          1           0        3.318356    2.663758   -1.874762
     53          1           0        2.995876    3.448444   -0.327402
     54          8           0        3.222457    1.380223    1.903381
     55          6           0        4.832280    2.307605   -0.349344
     56          1           0        5.271837    1.483286   -0.932982
     57          1           0        4.808926    1.986156    0.696829
     58          6           0        5.674697    3.575433   -0.486483
     59          1           0        5.798874    3.905289   -1.524496
     60          1           0        5.204474    4.402729    0.051927
     61          7           0        7.024352    3.425697    0.103174
     62          1           0        7.091099    3.553954    1.105865
     63          7           0        7.959649    2.323805   -1.717549
     64          1           0        8.770534    2.148270   -2.293202
     65          1           0        7.056390    2.053592   -2.079661
     66          7           0        9.291019    2.928669    0.075117
     67          1           0        9.462315    3.509584    0.883616
     68          1           0       10.023165    2.289139   -0.199188
     69          6           0        8.076235    2.885351   -0.504868
     70          8           0        1.004912    1.158592    1.554781
 ---------------------------------------------------------------------

 SCF Done:  E(RB3LYP) =  -1582.20517532     A.U. after    2 cycles

 Alpha  occ. eigenvalues --  -19.21397 -19.18724 -19.14077 -19.12986 -14.53936
 Alpha  occ. eigenvalues --  -14.53098 -14.53060 -14.52855 -14.44894 -14.43123
 Alpha  occ. eigenvalues --  -14.42038 -10.49343 -10.37814 -10.35418 -10.35196
 Alpha  occ. eigenvalues --  -10.34388 -10.31827 -10.30369 -10.28890 -10.28406
 Alpha  occ. eigenvalues --  -10.28090 -10.27764 -10.27698 -10.26726 -10.26063
 Alpha  occ. eigenvalues --  -10.25903 -10.25839 -10.25272 -10.25196 -10.25124
 Alpha  occ. eigenvalues --  -10.24851 -10.23497 -10.22448 -10.22357  -1.17738
 Alpha  occ. eigenvalues --   -1.13492  -1.10391  -1.07951  -1.06808  -1.06746
 Alpha  occ. eigenvalues --   -1.05994  -1.04774  -1.00853  -0.98722  -0.97787
 Alpha  occ. eigenvalues --   -0.90942  -0.89943  -0.88902  -0.87087  -0.84178
 Alpha  occ. eigenvalues --   -0.83865  -0.80679  -0.80393  -0.79456  -0.78486
 Alpha  occ. eigenvalues --   -0.76790  -0.75327  -0.75096  -0.73998  -0.71267
 Alpha  occ. eigenvalues --   -0.69627  -0.69103  -0.68339  -0.68250  -0.67097
 Alpha  occ. eigenvalues --   -0.66633  -0.66148  -0.66035  -0.64984  -0.64676
 Alpha  occ. eigenvalues --   -0.63019  -0.61505  -0.60897  -0.60364  -0.60139
 Alpha  occ. eigenvalues --   -0.58931  -0.58423  -0.57057  -0.56445  -0.55592
 Alpha  occ. eigenvalues --   -0.55112  -0.54539  -0.53856  -0.53251  -0.52138
 Alpha  occ. eigenvalues --   -0.51079  -0.50994  -0.50790  -0.50171  -0.50022
 Alpha  occ. eigenvalues --   -0.49448  -0.48869  -0.48611  -0.48066  -0.47794
 Alpha  occ. eigenvalues --   -0.47037  -0.46355  -0.45743  -0.45592  -0.44865
 Alpha  occ. eigenvalues --   -0.44648  -0.44584  -0.44498  -0.44070  -0.43525
 Alpha  occ. eigenvalues --   -0.42957  -0.42371  -0.42285  -0.42194  -0.41126
 Alpha  occ. eigenvalues --   -0.41037  -0.40601  -0.40254  -0.39775  -0.38743
 Alpha  occ. eigenvalues --   -0.38105  -0.37594  -0.35933  -0.34749  -0.34572
 Alpha  occ. eigenvalues --   -0.33781  -0.31028  -0.29311  -0.29273  -0.28671
 Alpha  occ. eigenvalues --   -0.27258  -0.26566
 Alpha virt. eigenvalues --   -0.13478  -0.09172  -0.08491  -0.08299  -0.05703
 Alpha virt. eigenvalues --   -0.05541  -0.04631  -0.04325  -0.03846  -0.03670
 Alpha virt. eigenvalues --   -0.00719  -0.00017   0.00124   0.01411   0.01683

 Mulliken charges:
               1
     1  N   -0.770383
     2  H    0.399138
     3  H    0.423395
     4  H    0.407347
     5  C   -0.103611
     6  H    0.222034
     7  C    0.641814
     8  C   -0.390049
     9  H    0.221692
    10  H    0.180344
    11  O   -0.554950
    12  C    0.010803
    13  C    0.020839
    14  H    0.219400
    15  C    0.056063
    16  C    0.322574
    17  C   -0.259431
    18  H    0.128833
    19  N   -0.690057
    20  H    0.340390
    21  C   -0.152846
    22  H    0.143971
    23  C   -0.156034
    24  H    0.142516
    25  C   -0.134848
    26  H    0.139172
    27  N   -0.636046
    28  H    0.409037
    29  C   -0.051920
    30  H    0.147581
    31  C    0.588123
    32  C   -0.070533
    33  H    0.157921
    34  O   -0.528388
    35  C   -0.271367
    36  H    0.126116
    37  H    0.155705
    38  C   -0.458562
    39  H    0.135388
    40  H    0.157358
    41  H    0.162425
    42  C   -0.450747
    43  H    0.149551
    44  H    0.154400
    45  H    0.144403
    46  N   -0.564448
    47  H    0.326492
    48  C   -0.097906
    49  H    0.176972
    50  C    0.590618
    51  C   -0.265607
    52  H    0.144153
    53  H    0.143795
    54  O   -0.552587
    55  C   -0.293735
    56  H    0.118172
    57  H    0.224062
    58  C   -0.187316
    59  H    0.176943
    60  H    0.200250
    61  N   -0.579691
    62  H    0.373858
    63  N   -0.754526
    64  H    0.384691
    65  H    0.397262
    66  N   -0.760655
    67  H    0.386058
    68  H    0.384740
    69  C    0.821211
    70  O   -0.621367
 Sum of Mulliken charges =   1.00000

 Dipole moment (field-independent basis, Debye):
    X=             25.2652    Y=              3.4701    Z=              0.1410  Tot=             25.5028
 Quadrupole moment (field-independent basis, Debye-Ang):
   XX=             70.5412   YY=           -126.2457   ZZ=           -168.5154
   XY=             92.0926   XZ=            -35.0650   YZ=            -21.8999

 Normal termination of Gaussian 16 at Fri Jun  3 03:57:10 2022.
