 Gaussian 16, Revision C.01,
 Gaussian 16:  ES64L-G16RevC.01  3-Jul-2019

 ----------------------------------------------------------------------
 # B3LYP/6-31G* empiricaldispersion=gd3 guess=read geom=check nosymm in
 tegral(ultrafinegrid)
 ----------------------------------------------------------------------

 ------------------------------------------------------
 Candidate Structure: Conf:448 Charge calc in gas phase
 ------------------------------------------------------
 Structure from the checkpoint file:  "conf-448.chk"
 Charge =  1 Multiplicity = 1

                          Input orientation:
 ---------------------------------------------------------------------
 Center     Atomic      Atomic             Coordinates (Angstroms)
 Number     Number       Type             X           Y           Z
 ---------------------------------------------------------------------
      1          7           0       -0.915147   -4.989021    0.654899
      2          1           0       -1.854010   -5.287696    0.930785
      3          1           0       -0.988671   -4.366346   -0.213173
      4          1           0       -0.341362   -5.818578    0.480462
      5          6           0       -0.271580   -4.024783    1.631273
      6          1           0       -0.815755   -4.071702    2.575457
      7          6           0       -0.487691   -2.653241    0.930261
      8          6           0        1.214086   -4.414007    1.839236
      9          1           0        1.216968   -5.420826    2.287421
     10          1           0        1.690458   -4.488051    0.852674
     11          8           0       -0.811606   -2.687749   -0.267788
     12          6           0        1.956014   -3.421661    2.673955
     13          6           0        3.073621   -2.716613    2.274630
     14          1           0        3.622598   -2.785280    1.346043
     15          6           0        1.574855   -2.894778    3.962570
     16          6           0        2.508644   -1.858621    4.258987
     17          6           0        0.528972   -3.140916    4.878502
     18          1           0       -0.177445   -3.954735    4.723206
     19          7           0        3.422632   -1.806260    3.228685
     20          1           0        4.165349   -1.088982    3.186887
     21          6           0        1.358725   -1.312254    6.268223
     22          1           0        1.243128   -0.702890    7.159608
     23          6           0        2.411232   -1.052900    5.398892
     24          1           0        3.112336   -0.239404    5.555123
     25          6           0        0.434293   -2.349633    6.017852
     26          1           0       -0.363907   -2.533834    6.731553
     27          7           0       -0.372552   -1.585327    1.719633
     28          1           0       -0.015625   -1.776109    2.655006
     29          6           0       -0.209970   -0.180903    1.298253
     30          1           0       -0.479809    0.406500    2.183820
     31          6           0        1.284303    0.013648    0.965010
     32          6           0       -1.125602    0.263962    0.135573
     33          1           0       -0.864097   -0.339646   -0.737616
     34          8           0        1.825527   -0.697903    0.120630
     35          6           0       -0.870612    1.758905   -0.196898
     36          1           0       -1.817743    2.206364   -0.521928
     37          1           0       -0.584079    2.299531    0.716209
     38          6           0       -2.598451    0.016403    0.487558
     39          1           0       -2.902775    0.609348    1.359578
     40          1           0       -3.240948    0.302647   -0.351893
     41          1           0       -2.790955   -1.037769    0.707773
     42          6           0        0.178147    1.996394   -1.292857
     43          1           0        0.335520    3.070952   -1.450814
     44          1           0       -0.156628    1.565645   -2.243692
     45          1           0        1.141081    1.539301   -1.050436
     46          7           0        1.891234    1.013419    1.642303
     47          1           0        1.464073    1.404284    2.481362
     48          6           0        3.340748    1.159646    1.688568
     49          1           0        3.788433    0.304767    1.178704
     50          6           0        3.746534    1.209807    3.204914
     51          6           0        3.794092    2.468299    1.026489
     52          1           0        3.357704    2.551927    0.021364
     53          1           0        3.377038    3.271205    1.659463
     54          8           0        4.788717    0.569112    3.513761
     55          6           0        5.323668    2.577822    0.977308
     56          1           0        5.722335    1.856637    0.251432
     57          1           0        5.739055    2.289749    1.950126
     58          6           0        5.839725    3.976602    0.644965
     59          1           0        5.474272    4.718315    1.362195
     60          1           0        6.932541    4.010206    0.681475
     61          7           0        5.464719    4.445604   -0.710893
     62          1           0        6.007473    4.074984   -1.481273
     63          7           0        3.463288    5.495272   -0.150712
     64          1           0        2.830165    6.269150   -0.292037
     65          1           0        3.290504    4.873870    0.629783
     66          7           0        4.385631    5.799436   -2.250974
     67          1           0        5.203243    5.852388   -2.841506
     68          1           0        3.516043    6.149659   -2.626551
     69          6           0        4.439078    5.232104   -1.029519
     70          8           0        2.979811    1.891894    3.917010
 ---------------------------------------------------------------------

 SCF Done:  E(RB3LYP) =  -1582.19778784     A.U. after    3 cycles

 Alpha  occ. eigenvalues --  -19.24205 -19.18016 -19.12540 -19.12447 -14.57535
 Alpha  occ. eigenvalues --  -14.52806 -14.52636 -14.52307 -14.46831 -14.42102
 Alpha  occ. eigenvalues --  -14.42067 -10.48982 -10.40822 -10.37723 -10.35262
 Alpha  occ. eigenvalues --  -10.34997 -10.31774 -10.31116 -10.30640 -10.28195
 Alpha  occ. eigenvalues --  -10.28045 -10.27475 -10.27402 -10.27111 -10.26731
 Alpha  occ. eigenvalues --  -10.25702 -10.25227 -10.25088 -10.24909 -10.24675
 Alpha  occ. eigenvalues --  -10.24655 -10.24051 -10.23583 -10.23514  -1.17309
 Alpha  occ. eigenvalues --   -1.16598  -1.11275  -1.09955  -1.06437  -1.05987
 Alpha  occ. eigenvalues --   -1.05486  -1.03592  -1.03134  -0.98744  -0.97087
 Alpha  occ. eigenvalues --   -0.91435  -0.90046  -0.89305  -0.88643  -0.84370
 Alpha  occ. eigenvalues --   -0.84048  -0.81663  -0.79846  -0.79435  -0.78831
 Alpha  occ. eigenvalues --   -0.78358  -0.76090  -0.74867  -0.74688  -0.71631
 Alpha  occ. eigenvalues --   -0.71368  -0.71018  -0.70275  -0.68781  -0.68072
 Alpha  occ. eigenvalues --   -0.67609  -0.66546  -0.65857  -0.65125  -0.64734
 Alpha  occ. eigenvalues --   -0.63611  -0.63431  -0.62025  -0.60314  -0.59857
 Alpha  occ. eigenvalues --   -0.59721  -0.58772  -0.58278  -0.57574  -0.56434
 Alpha  occ. eigenvalues --   -0.54917  -0.54536  -0.54028  -0.53323  -0.52908
 Alpha  occ. eigenvalues --   -0.52571  -0.51846  -0.51589  -0.50171  -0.49980
 Alpha  occ. eigenvalues --   -0.49562  -0.49442  -0.48509  -0.48408  -0.48268
 Alpha  occ. eigenvalues --   -0.47994  -0.47505  -0.47232  -0.46772  -0.46001
 Alpha  occ. eigenvalues --   -0.45433  -0.45094  -0.44544  -0.44316  -0.43877
 Alpha  occ. eigenvalues --   -0.43691  -0.43119  -0.42719  -0.41809  -0.41223
 Alpha  occ. eigenvalues --   -0.40891  -0.40836  -0.40512  -0.39822  -0.39373
 Alpha  occ. eigenvalues --   -0.39011  -0.38710  -0.37852  -0.37380  -0.33512
 Alpha  occ. eigenvalues --   -0.32929  -0.31602  -0.28537  -0.27926  -0.26928
 Alpha  occ. eigenvalues --   -0.26402  -0.26033
 Alpha virt. eigenvalues --   -0.13206  -0.10038  -0.08983  -0.08774  -0.06875
 Alpha virt. eigenvalues --   -0.04799  -0.04698  -0.04264  -0.04012  -0.03321
 Alpha virt. eigenvalues --   -0.03114  -0.01561  -0.00217   0.00423   0.00948

 Mulliken charges:
               1
     1  N   -0.760723
     2  H    0.409902
     3  H    0.429386
     4  H    0.409166
     5  C   -0.126154
     6  H    0.212214
     7  C    0.677321
     8  C   -0.363894
     9  H    0.168204
    10  H    0.173804
    11  O   -0.550034
    12  C    0.027553
    13  C    0.041051
    14  H    0.163613
    15  C    0.026465
    16  C    0.279926
    17  C   -0.248766
    18  H    0.103956
    19  N   -0.682109
    20  H    0.387987
    21  C   -0.163626
    22  H    0.142098
    23  C   -0.146147
    24  H    0.198163
    25  C   -0.130951
    26  H    0.130296
    27  N   -0.603135
    28  H    0.383539
    29  C   -0.069897
    30  H    0.156427
    31  C    0.639582
    32  C   -0.080410
    33  H    0.184542
    34  O   -0.555502
    35  C   -0.272749
    36  H    0.146830
    37  H    0.131938
    38  C   -0.456650
    39  H    0.146915
    40  H    0.157762
    41  H    0.140468
    42  C   -0.460556
    43  H    0.114260
    44  H    0.154527
    45  H    0.178155
    46  N   -0.601003
    47  H    0.345616
    48  C   -0.033059
    49  H    0.155328
    50  C    0.598251
    51  C   -0.312018
    52  H    0.134082
    53  H    0.142285
    54  O   -0.619544
    55  C   -0.267366
    56  H    0.152254
    57  H    0.221505
    58  C   -0.196708
    59  H    0.192071
    60  H    0.198066
    61  N   -0.579595
    62  H    0.365210
    63  N   -0.754507
    64  H    0.381151
    65  H    0.400009
    66  N   -0.762890
    67  H    0.383356
    68  H    0.383348
    69  C    0.814674
    70  O   -0.585265
 Sum of Mulliken charges =   1.00000

 Dipole moment (field-independent basis, Debye):
    X=              7.1060    Y=              5.4406    Z=             -7.8121  Tot=             11.8796
 Quadrupole moment (field-independent basis, Debye-Ang):
   XX=           -132.0193   YY=             -8.1735   ZZ=           -211.4467
   XY=             98.9003   XZ=            -59.1950   YZ=            -49.2296

 Normal termination of Gaussian 16 at Fri Jun  3 03:57:16 2022.
