 Gaussian 16, Revision C.01,
 Gaussian 16:  ES64L-G16RevC.01  3-Jul-2019

 ----------------------------------------------------------------------
 # B3LYP/6-31G* empiricaldispersion=gd3 guess=read geom=check nosymm in
 tegral(ultrafinegrid)
 ----------------------------------------------------------------------

 ------------------------------------------------------
 Candidate Structure: Conf:879 Charge calc in gas phase
 ------------------------------------------------------
 Structure from the checkpoint file:  "conf-879.chk"
 Charge =  1 Multiplicity = 1

                          Input orientation:
 ---------------------------------------------------------------------
 Center     Atomic      Atomic             Coordinates (Angstroms)
 Number     Number       Type             X           Y           Z
 ---------------------------------------------------------------------
      1          7           0       -1.828215   -3.051059    3.227587
      2          1           0       -2.717992   -2.768602    3.645843
      3          1           0       -2.017342   -3.559801    2.332019
      4          1           0       -1.293695   -3.630259    3.898947
      5          6           0       -0.974813   -1.888442    2.785157
      6          1           0       -1.141629   -1.039919    3.449268
      7          6           0       -1.382321   -1.654495    1.316342
      8          6           0        0.506807   -2.346950    2.842577
      9          1           0        0.661267   -3.111251    2.072400
     10          1           0        1.107129   -1.482285    2.556142
     11          8           0       -1.768975   -2.646490    0.688279
     12          6           0        0.869417   -2.861510    4.200690
     13          6           0        1.050928   -4.184767    4.553853
     14          1           0        1.060838   -5.068290    3.928390
     15          6           0        1.041944   -2.083529    5.405552
     16          6           0        1.335317   -3.000376    6.450204
     17          6           0        0.991338   -0.704939    5.686146
     18          1           0        0.796939    0.019389    4.900516
     19          7           0        1.330437   -4.269988    5.900943
     20          1           0        1.560552   -5.119453    6.393926
     21          6           0        1.508416   -1.219279    8.018318
     22          1           0        1.684034   -0.859459    9.028174
     23          6           0        1.569287   -2.584429    7.765421
     24          1           0        1.790660   -3.297483    8.554463
     25          6           0        1.226682   -0.292554    6.991350
     26          1           0        1.194760    0.767320    7.227765
     27          7           0       -1.237701   -0.388260    0.889340
     28          1           0       -0.801328    0.217216    1.600673
     29          6           0       -0.767178    0.019004   -0.466453
     30          1           0       -1.128666    1.045736   -0.610837
     31          6           0        0.757328    0.011365   -0.202994
     32          6           0       -1.249402   -0.829866   -1.647979
     33          1           0       -0.840200   -1.837586   -1.524281
     34          8           0        1.387269   -1.036370   -0.156030
     35          6           0       -0.748676   -0.248600   -2.991512
     36          1           0       -1.203773   -0.858776   -3.781486
     37          1           0       -1.167737    0.761100   -3.119367
     38          6           0       -2.785036   -0.897758   -1.672088
     39          1           0       -3.218746    0.105060   -1.778964
     40          1           0       -3.119863   -1.495156   -2.526679
     41          1           0       -3.187520   -1.357378   -0.767960
     42          6           0        0.768353   -0.208947   -3.219778
     43          1           0        0.983448    0.019072   -4.269426
     44          1           0        1.233790   -1.168755   -2.974202
     45          1           0        1.261909    0.559930   -2.616075
     46          7           0        1.274326    1.229720    0.166528
     47          1           0        0.588177    1.970267    0.248152
     48          6           0        2.320104    1.277853    1.185508
     49          1           0        2.871236    0.337037    1.084727
     50          6           0        1.679700    1.255042    2.619843
     51          6           0        3.306310    2.433389    0.959725
     52          1           0        4.151228    2.264473    1.634466
     53          1           0        3.697778    2.350556   -0.058789
     54          8           0        2.431926    1.578172    3.586807
     55          6           0        2.721636    3.851373    1.193053
     56          1           0        1.704051    3.789280    1.604435
     57          1           0        2.632076    4.403060    0.251308
     58          6           0        3.566470    4.697800    2.161497
     59          1           0        4.576935    4.839750    1.761943
     60          1           0        3.115744    5.685234    2.306664
     61          7           0        3.654630    3.993372    3.452928
     62          1           0        2.914618    3.286090    3.593435
     63          7           0        5.886492    4.402762    3.995389
     64          1           0        6.781113    4.072544    4.325613
     65          1           0        5.799248    5.384879    3.780307
     66          7           0        4.827258    2.436537    4.670707
     67          1           0        4.054669    1.786073    4.484846
     68          1           0        5.515095    2.228544    5.379186
     69          6           0        4.791644    3.617410    4.043445
     70          8           0        0.483584    0.890587    2.724820
 ---------------------------------------------------------------------

 SCF Done:  E(RB3LYP) =  -1582.24340870     A.U. after    1 cycles

 Alpha  occ. eigenvalues --  -19.22878 -19.19664 -19.18752 -19.18568 -14.56415
 Alpha  occ. eigenvalues --  -14.50060 -14.48221 -14.47405 -14.46823 -14.45146
 Alpha  occ. eigenvalues --  -14.43772 -10.45139 -10.39599 -10.36656 -10.36584
 Alpha  occ. eigenvalues --  -10.36185 -10.33609 -10.31748 -10.31518 -10.30504
 Alpha  occ. eigenvalues --  -10.30209 -10.29657 -10.29059 -10.27970 -10.27699
 Alpha  occ. eigenvalues --  -10.26648 -10.26646 -10.26180 -10.25834 -10.25615
 Alpha  occ. eigenvalues --  -10.25482 -10.24415 -10.23267 -10.22868  -1.15171
 Alpha  occ. eigenvalues --   -1.13807  -1.12172  -1.11287  -1.10393  -1.06686
 Alpha  occ. eigenvalues --   -1.03619  -1.02745  -1.02123  -1.01846  -1.00218
 Alpha  occ. eigenvalues --   -0.91876  -0.90667  -0.89188  -0.88179  -0.85591
 Alpha  occ. eigenvalues --   -0.83674  -0.81363  -0.80992  -0.79851  -0.78154
 Alpha  occ. eigenvalues --   -0.76791  -0.75870  -0.74781  -0.70835  -0.70532
 Alpha  occ. eigenvalues --   -0.70264  -0.69920  -0.69719  -0.69309  -0.67773
 Alpha  occ. eigenvalues --   -0.67441  -0.67098  -0.66342  -0.65055  -0.63429
 Alpha  occ. eigenvalues --   -0.62527  -0.62461  -0.62173  -0.61662  -0.60815
 Alpha  occ. eigenvalues --   -0.59040  -0.58703  -0.57679  -0.57048  -0.56687
 Alpha  occ. eigenvalues --   -0.55931  -0.55016  -0.54430  -0.53522  -0.53351
 Alpha  occ. eigenvalues --   -0.52661  -0.51926  -0.51735  -0.51126  -0.50731
 Alpha  occ. eigenvalues --   -0.50513  -0.50316  -0.49916  -0.49305  -0.49138
 Alpha  occ. eigenvalues --   -0.48853  -0.48519  -0.48224  -0.47300  -0.46709
 Alpha  occ. eigenvalues --   -0.46467  -0.46158  -0.46065  -0.45763  -0.44450
 Alpha  occ. eigenvalues --   -0.43997  -0.42980  -0.42897  -0.42572  -0.41283
 Alpha  occ. eigenvalues --   -0.41269  -0.41172  -0.40628  -0.39299  -0.39026
 Alpha  occ. eigenvalues --   -0.38371  -0.38009  -0.37471  -0.36568  -0.35921
 Alpha  occ. eigenvalues --   -0.35473  -0.34573  -0.32726  -0.32362  -0.31330
 Alpha  occ. eigenvalues --   -0.30527  -0.29015
 Alpha virt. eigenvalues --   -0.10393  -0.10102  -0.09438  -0.06975  -0.05505
 Alpha virt. eigenvalues --   -0.05416  -0.05146  -0.04529  -0.02620  -0.01800
 Alpha virt. eigenvalues --   -0.00856  -0.00787  -0.00137   0.00717   0.01222

 Mulliken charges:
               1
     1  N   -0.741454
     2  H    0.407809
     3  H    0.414068
     4  H    0.388411
     5  C   -0.124636
     6  H    0.223800
     7  C    0.646083
     8  C   -0.369351
     9  H    0.187313
    10  H    0.221713
    11  O   -0.537420
    12  C    0.000502
    13  C   -0.022624
    14  H    0.172025
    15  C    0.068544
    16  C    0.311231
    17  C   -0.216519
    18  H    0.194869
    19  N   -0.679828
    20  H    0.343197
    21  C   -0.147131
    22  H    0.140571
    23  C   -0.163328
    24  H    0.140395
    25  C   -0.158679
    26  H    0.132862
    27  N   -0.620845
    28  H    0.392169
    29  C   -0.054483
    30  H    0.143813
    31  C    0.610035
    32  C   -0.088196
    33  H    0.170777
    34  O   -0.522244
    35  C   -0.262216
    36  H    0.150879
    37  H    0.128084
    38  C   -0.454561
    39  H    0.136389
    40  H    0.156272
    41  H    0.161454
    42  C   -0.461607
    43  H    0.151638
    44  H    0.167566
    45  H    0.142871
    46  N   -0.567377
    47  H    0.324774
    48  C   -0.102803
    49  H    0.200482
    50  C    0.625535
    51  C   -0.269122
    52  H    0.145635
    53  H    0.171033
    54  O   -0.624551
    55  C   -0.311946
    56  H    0.159112
    57  H    0.173951
    58  C   -0.163605
    59  H    0.168751
    60  H    0.180972
    61  N   -0.586784
    62  H    0.400289
    63  N   -0.749228
    64  H    0.373252
    65  H    0.380004
    66  N   -0.772048
    67  H    0.426897
    68  H    0.360447
    69  C    0.761728
    70  O   -0.585619
 Sum of Mulliken charges =   1.00000

 Dipole moment (field-independent basis, Debye):
    X=             10.3614    Y=              3.0298    Z=             19.0727  Tot=             21.9159
 Quadrupole moment (field-independent basis, Debye-Ang):
   XX=           -102.7257   YY=           -100.1841   ZZ=           -102.1618
   XY=             69.0178   XZ=             53.4847   YZ=            -13.7364

 Normal termination of Gaussian 16 at Fri Jun  3 04:09:29 2022.
