 Gaussian 16, Revision C.01,
 Gaussian 16:  ES64L-G16RevC.01  3-Jul-2019

 ----------------------------------------------------------------------
 # B3LYP/6-31G* empiricaldispersion=gd3 guess=read geom=check nosymm in
 tegral(ultrafinegrid)
 ----------------------------------------------------------------------

 ------------------------------------------------------
 Candidate Structure: Conf:156 Charge calc in gas phase
 ------------------------------------------------------
 Structure from the checkpoint file:  "conf-156.chk"
 Charge =  1 Multiplicity = 1

                          Input orientation:
 ---------------------------------------------------------------------
 Center     Atomic      Atomic             Coordinates (Angstroms)
 Number     Number       Type             X           Y           Z
 ---------------------------------------------------------------------
      1          7           0       -2.378032   -2.860110    2.390581
      2          1           0       -3.254135   -2.423101    2.690028
      3          1           0       -2.562542   -3.392898    1.516371
      4          1           0       -2.039056   -3.485786    3.141352
      5          6           0       -1.326587   -1.843757    1.995198
      6          1           0       -1.391402   -0.978737    2.656615
      7          6           0       -1.638905   -1.527288    0.518576
      8          6           0        0.065894   -2.504628    2.138908
      9          1           0        0.119915   -3.356615    1.448498
     10          1           0        0.804761   -1.772452    1.810109
     11          8           0       -2.087853   -2.443515   -0.179825
     12          6           0        0.328884   -2.914209    3.554358
     13          6           0        0.884571   -2.122490    4.534533
     14          1           0        1.309859   -1.129335    4.431131
     15          6           0       -0.078742   -4.146953    4.185045
     16          6           0        0.256166   -4.030960    5.565685
     17          6           0       -0.680049   -5.339629    3.729662
     18          1           0       -0.886404   -5.491218    2.670709
     19          7           0        0.841181   -2.792264    5.735789
     20          1           0        1.223807   -2.443581    6.601932
     21          6           0       -0.618065   -6.207199    6.006670
     22          1           0       -0.834542   -7.017158    6.696483
     23          6           0       -0.005943   -5.051580    6.482751
     24          1           0        0.259906   -4.948611    7.530996
     25          6           0       -0.948222   -6.352881    4.644506
     26          1           0       -1.401534   -7.278767    4.302953
     27          7           0       -1.362499   -0.258876    0.177937
     28          1           0       -0.904193    0.283916    0.943886
     29          6           0       -1.038535    0.281126   -1.161817
     30          1           0       -1.362790    1.331855   -1.142418
     31          6           0        0.509019    0.237251   -1.148347
     32          6           0       -1.702915   -0.403015   -2.363847
     33          1           0       -1.377433   -1.447239   -2.380389
     34          8           0        1.154462   -0.643508   -1.716144
     35          6           0       -1.215324    0.274496   -3.664892
     36          1           0       -1.506888    1.338999   -3.641877
     37          1           0       -0.119243    0.226852   -3.680675
     38          6           0       -3.231958   -0.347564   -2.237145
     39          1           0       -3.590262    0.690299   -2.252059
     40          1           0       -3.710955   -0.880641   -3.062637
     41          1           0       -3.567740   -0.818767   -1.312009
     42          6           0       -1.746748   -0.371555   -4.949619
     43          1           0       -1.287009    0.080095   -5.836006
     44          1           0       -2.829433   -0.254073   -5.048725
     45          1           0       -1.520744   -1.443669   -4.965209
     46          7           0        1.088184    1.184688   -0.339031
     47          1           0        0.405111    1.758300    0.154568
     48          6           0        2.093327    0.745453    0.655416
     49          1           0        2.366178   -0.282367    0.393450
     50          6           0        1.399927    0.659531    2.073463
     51          6           0        3.378018    1.578463    0.681827
     52          1           0        3.129281    2.644181    0.789388
     53          1           0        3.892565    1.291524    1.602248
     54          8           0        2.143692    0.285613    2.990146
     55          6           0        4.303792    1.341516   -0.533262
     56          1           0        4.043351    0.388983   -1.011785
     57          1           0        5.341650    1.221264   -0.199573
     58          6           0        4.340154    2.461001   -1.581852
     59          1           0        4.818254    3.350680   -1.162605
     60          1           0        4.924137    2.153868   -2.454873
     61          7           0        3.029175    2.923584   -2.075081
     62          1           0        2.575906    3.660406   -1.551574
     63          7           0        2.624843    1.090610   -3.442799
     64          1           0        2.120852    0.733640   -4.244905
     65          1           0        2.784697    0.380044   -2.729838
     66          7           0        1.266784    2.976222   -3.576851
     67          1           0        1.159947    3.975858   -3.475766
     68          1           0        0.511013    2.463318   -4.011028
     69          6           0        2.296137    2.322076   -3.008921
     70          8           0        0.151405    0.919216    2.115959
 ---------------------------------------------------------------------

 SCF Done:  E(RB3LYP) =  -1582.22081667     A.U. after    1 cycles

 Alpha  occ. eigenvalues --  -19.23189 -19.23041 -19.16869 -19.15691 -14.56615
 Alpha  occ. eigenvalues --  -14.52196 -14.51783 -14.50476 -14.45933 -14.45706
 Alpha  occ. eigenvalues --  -14.45006 -10.47775 -10.40043 -10.39263 -10.36061
 Alpha  occ. eigenvalues --  -10.34914 -10.34349 -10.33891 -10.30466 -10.29772
 Alpha  occ. eigenvalues --  -10.29722 -10.29279 -10.28990 -10.28641 -10.28487
 Alpha  occ. eigenvalues --  -10.27505 -10.27025 -10.26954 -10.26651 -10.26470
 Alpha  occ. eigenvalues --  -10.26257 -10.26057 -10.25968 -10.25605  -1.16401
 Alpha  occ. eigenvalues --   -1.15360  -1.14292  -1.10657  -1.09577  -1.05785
 Alpha  occ. eigenvalues --   -1.05611  -1.04334  -1.03787  -1.01509  -1.00499
 Alpha  occ. eigenvalues --   -0.91891  -0.91426  -0.90093  -0.89951  -0.86026
 Alpha  occ. eigenvalues --   -0.84664  -0.83131  -0.81342  -0.80317  -0.79652
 Alpha  occ. eigenvalues --   -0.78780  -0.76412  -0.75550  -0.73484  -0.73111
 Alpha  occ. eigenvalues --   -0.71172  -0.70472  -0.69950  -0.69578  -0.68796
 Alpha  occ. eigenvalues --   -0.68248  -0.67478  -0.66909  -0.65144  -0.64892
 Alpha  occ. eigenvalues --   -0.64544  -0.64126  -0.63178  -0.61922  -0.61479
 Alpha  occ. eigenvalues --   -0.60015  -0.59100  -0.58719  -0.57554  -0.57281
 Alpha  occ. eigenvalues --   -0.56124  -0.55734  -0.55106  -0.54681  -0.54432
 Alpha  occ. eigenvalues --   -0.53441  -0.52969  -0.52386  -0.52120  -0.51812
 Alpha  occ. eigenvalues --   -0.51482  -0.51104  -0.50445  -0.50025  -0.49882
 Alpha  occ. eigenvalues --   -0.49077  -0.48961  -0.48115  -0.47664  -0.47276
 Alpha  occ. eigenvalues --   -0.47102  -0.46625  -0.46462  -0.45940  -0.45494
 Alpha  occ. eigenvalues --   -0.44981  -0.44247  -0.43874  -0.43506  -0.43127
 Alpha  occ. eigenvalues --   -0.42418  -0.42253  -0.42216  -0.41689  -0.41448
 Alpha  occ. eigenvalues --   -0.41115  -0.40410  -0.38791  -0.37124  -0.36960
 Alpha  occ. eigenvalues --   -0.35612  -0.34557  -0.31970  -0.31439  -0.30146
 Alpha  occ. eigenvalues --   -0.29449  -0.28176
 Alpha virt. eigenvalues --   -0.13625  -0.11201  -0.09162  -0.08250  -0.08020
 Alpha virt. eigenvalues --   -0.06892  -0.05361  -0.04671  -0.03628  -0.02849
 Alpha virt. eigenvalues --   -0.02303  -0.01872  -0.00748  -0.00152   0.00623

 Mulliken charges:
               1
     1  N   -0.753154
     2  H    0.407683
     3  H    0.411402
     4  H    0.414493
     5  C   -0.124887
     6  H    0.232526
     7  C    0.634319
     8  C   -0.383838
     9  H    0.177747
    10  H    0.212560
    11  O   -0.544488
    12  C    0.002847
    13  C    0.021809
    14  H    0.236586
    15  C    0.046168
    16  C    0.322563
    17  C   -0.258072
    18  H    0.125407
    19  N   -0.686178
    20  H    0.345496
    21  C   -0.152501
    22  H    0.148147
    23  C   -0.155096
    24  H    0.147242
    25  C   -0.131616
    26  H    0.142344
    27  N   -0.644862
    28  H    0.406326
    29  C   -0.046211
    30  H    0.147640
    31  C    0.571857
    32  C   -0.071017
    33  H    0.180840
    34  O   -0.536248
    35  C   -0.287358
    36  H    0.114282
    37  H    0.114369
    38  C   -0.460605
    39  H    0.136517
    40  H    0.165624
    41  H    0.167149
    42  C   -0.451508
    43  H    0.142012
    44  H    0.169882
    45  H    0.167525
    46  N   -0.594551
    47  H    0.329293
    48  C   -0.108469
    49  H    0.179505
    50  C    0.600722
    51  C   -0.269275
    52  H    0.122623
    53  H    0.204496
    54  O   -0.542999
    55  C   -0.286848
    56  H    0.153190
    57  H    0.179333
    58  C   -0.171862
    59  H    0.189096
    60  H    0.197185
    61  N   -0.563418
    62  H    0.361158
    63  N   -0.731244
    64  H    0.372029
    65  H    0.407008
    66  N   -0.760652
    67  H    0.377067
    68  H    0.383982
    69  C    0.772294
    70  O   -0.625385
 Sum of Mulliken charges =   1.00000

 Dipole moment (field-independent basis, Debye):
    X=              0.4597    Y=              2.3696    Z=             -3.5909  Tot=              4.3268
 Quadrupole moment (field-independent basis, Debye-Ang):
   XX=           -158.4653   YY=           -142.7663   ZZ=           -123.8769
   XY=             35.5489   XZ=            -28.6748   YZ=            -60.5829

 Normal termination of Gaussian 16 at Fri Jun  3 03:56:49 2022.
