 Gaussian 16, Revision C.01,
 Gaussian 16:  ES64L-G16RevC.01  3-Jul-2019

 ----------------------------------------------------------------------
 # B3LYP/6-31G* empiricaldispersion=gd3 guess=read geom=check nosymm in
 tegral(ultrafinegrid)
 ----------------------------------------------------------------------

 ------------------------------------------------------
 Candidate Structure: Conf:962 Charge calc in gas phase
 ------------------------------------------------------
 Structure from the checkpoint file:  "conf-962.chk"
 Charge =  1 Multiplicity = 1

                          Input orientation:
 ---------------------------------------------------------------------
 Center     Atomic      Atomic             Coordinates (Angstroms)
 Number     Number       Type             X           Y           Z
 ---------------------------------------------------------------------
      1          7           0        1.190491    0.023021    2.441278
      2          1           0        1.903154   -0.658166    2.137690
      3          1           0        1.441140    0.948517    1.925138
      4          1           0        1.182387    0.126487    3.456979
      5          6           0       -0.128247   -0.448593    1.882381
      6          1           0       -0.410629   -1.354381    2.427601
      7          6           0        0.252335   -0.876073    0.443514
      8          6           0       -1.191117    0.649987    2.073866
      9          1           0       -1.186815    0.928888    3.138470
     10          1           0       -0.878140    1.535470    1.511199
     11          8           0        1.384020   -1.329866    0.263232
     12          6           0       -2.573411    0.224510    1.671029
     13          6           0       -3.366743    0.839478    0.725461
     14          1           0       -3.169403    1.724736    0.135339
     15          6           0       -3.332753   -0.890073    2.185889
     16          6           0       -4.574993   -0.897627    1.495347
     17          6           0       -3.096835   -1.872785    3.165366
     18          1           0       -2.173701   -1.879996    3.739548
     19          7           0       -4.562970    0.166738    0.614096
     20          1           0       -5.329943    0.437639    0.017440
     21          6           0       -5.294496   -2.819553    2.702956
     22          1           0       -6.039480   -3.579166    2.919219
     23          6           0       -5.563515   -1.856769    1.738957
     24          1           0       -6.505659   -1.846310    1.198642
     25          6           0       -4.074976   -2.825551    3.412864
     26          1           0       -3.905043   -3.586830    4.168214
     27          7           0       -0.652937   -0.689123   -0.529636
     28          1           0       -1.592623   -0.413203   -0.265901
     29          6           0       -0.346827   -0.947667   -1.947644
     30          1           0       -1.149812   -0.436180   -2.493128
     31          6           0        0.984454   -0.220879   -2.302879
     32          6           0       -0.334489   -2.446435   -2.361517
     33          1           0        0.713265   -2.760662   -2.392243
     34          8           0        1.859940   -0.738287   -2.974127
     35          6           0       -0.942074   -2.628583   -3.770332
     36          1           0       -0.899098   -3.698102   -4.012476
     37          1           0       -2.012942   -2.374147   -3.722438
     38          6           0       -1.084582   -3.331753   -1.355608
     39          1           0       -2.124461   -3.007158   -1.219819
     40          1           0       -1.106766   -4.364918   -1.717563
     41          1           0       -0.598596   -3.339021   -0.375504
     42          6           0       -0.277422   -1.840214   -4.904447
     43          1           0       -0.740577   -2.095485   -5.863930
     44          1           0        0.792327   -2.056932   -4.961530
     45          1           0       -0.378154   -0.756553   -4.771294
     46          7           0        1.069286    1.062487   -1.814239
     47          1           0        0.383607    1.319209   -1.113705
     48          6           0        2.380059    1.643461   -1.539763
     49          1           0        3.119520    0.906730   -1.865013
     50          6           0        2.531300    1.802842   -0.007221
     51          6           0        2.603037    2.962900   -2.343141
     52          1           0        1.920903    2.891665   -3.194281
     53          1           0        2.266932    3.829398   -1.757250
     54          8           0        3.699369    1.821839    0.469425
     55          6           0        4.032079    3.200646   -2.897911
     56          1           0        3.960948    3.585944   -3.920868
     57          1           0        4.568876    2.246831   -2.976156
     58          6           0        4.898778    4.201650   -2.125067
     59          1           0        5.868590    4.312450   -2.627372
     60          1           0        4.413313    5.186312   -2.106726
     61          7           0        5.093922    3.742223   -0.747297
     62          1           0        4.730737    2.803833   -0.500664
     63          7           0        5.813067    5.759408    0.165590
     64          1           0        5.833464    6.409388    0.936860
     65          1           0        6.266151    6.034189   -0.692853
     66          7           0        4.952658    4.072762    1.525883
     67          1           0        4.434825    3.186423    1.563132
     68          1           0        5.392098    4.437879    2.357811
     69          6           0        5.297799    4.521796    0.307987
     70          8           0        1.468425    1.887338    0.682735
 ---------------------------------------------------------------------

 SCF Done:  E(RB3LYP) =  -1582.25804063     A.U. after    2 cycles

 Alpha  occ. eigenvalues --  -19.22416 -19.21109 -19.20897 -19.18903 -14.53803
 Alpha  occ. eigenvalues --  -14.50192 -14.48230 -14.47696 -14.47221 -14.46182
 Alpha  occ. eigenvalues --  -14.42422 -10.45279 -10.39724 -10.38414 -10.36651
 Alpha  occ. eigenvalues --  -10.36068 -10.33717 -10.31761 -10.31668 -10.31083
 Alpha  occ. eigenvalues --  -10.30724 -10.30669 -10.28856 -10.28480 -10.27920
 Alpha  occ. eigenvalues --  -10.27465 -10.27254 -10.27095 -10.26513 -10.26270
 Alpha  occ. eigenvalues --  -10.25494 -10.24064 -10.23931 -10.22361  -1.15133
 Alpha  occ. eigenvalues --   -1.14340  -1.13655  -1.10814  -1.08690  -1.07177
 Alpha  occ. eigenvalues --   -1.05284  -1.03045  -1.02897  -1.02049  -0.99244
 Alpha  occ. eigenvalues --   -0.92589  -0.91210  -0.89163  -0.87761  -0.85691
 Alpha  occ. eigenvalues --   -0.83663  -0.82063  -0.81232  -0.80072  -0.78213
 Alpha  occ. eigenvalues --   -0.77225  -0.76414  -0.75377  -0.71215  -0.70969
 Alpha  occ. eigenvalues --   -0.70165  -0.69747  -0.69547  -0.68648  -0.68266
 Alpha  occ. eigenvalues --   -0.67564  -0.67433  -0.65441  -0.64470  -0.63465
 Alpha  occ. eigenvalues --   -0.63107  -0.62748  -0.62409  -0.62043  -0.60960
 Alpha  occ. eigenvalues --   -0.59096  -0.58515  -0.58062  -0.57478  -0.57028
 Alpha  occ. eigenvalues --   -0.55875  -0.55527  -0.54840  -0.54143  -0.53437
 Alpha  occ. eigenvalues --   -0.53300  -0.52533  -0.52420  -0.51682  -0.51533
 Alpha  occ. eigenvalues --   -0.51306  -0.51177  -0.50498  -0.50078  -0.49572
 Alpha  occ. eigenvalues --   -0.49151  -0.48816  -0.48045  -0.47450  -0.47115
 Alpha  occ. eigenvalues --   -0.46815  -0.46684  -0.46150  -0.45485  -0.44147
 Alpha  occ. eigenvalues --   -0.44010  -0.43761  -0.42853  -0.42292  -0.42028
 Alpha  occ. eigenvalues --   -0.41776  -0.41440  -0.40747  -0.39726  -0.38815
 Alpha  occ. eigenvalues --   -0.38258  -0.38080  -0.36814  -0.36560  -0.36242
 Alpha  occ. eigenvalues --   -0.36178  -0.36035  -0.35324  -0.32163  -0.32115
 Alpha  occ. eigenvalues --   -0.30952  -0.29490
 Alpha virt. eigenvalues --   -0.10220  -0.09808  -0.09282  -0.06594  -0.06075
 Alpha virt. eigenvalues --   -0.05767  -0.05233  -0.04982  -0.03414  -0.02117
 Alpha virt. eigenvalues --   -0.00795  -0.00301   0.00041   0.00640   0.00891

 Mulliken charges:
               1
     1  N   -0.764368
     2  H    0.412598
     3  H    0.436553
     4  H    0.383766
     5  C   -0.122923
     6  H    0.215017
     7  C    0.664068
     8  C   -0.368168
     9  H    0.165688
    10  H    0.197724
    11  O   -0.536949
    12  C    0.004721
    13  C   -0.014323
    14  H    0.170166
    15  C    0.107644
    16  C    0.309217
    17  C   -0.211680
    18  H    0.115483
    19  N   -0.677730
    20  H    0.345263
    21  C   -0.147275
    22  H    0.151339
    23  C   -0.153883
    24  H    0.146983
    25  C   -0.134450
    26  H    0.144336
    27  N   -0.649360
    28  H    0.365848
    29  C   -0.046126
    30  H    0.164668
    31  C    0.612924
    32  C   -0.075019
    33  H    0.179270
    34  O   -0.497319
    35  C   -0.264564
    36  H    0.146962
    37  H    0.120944
    38  C   -0.457089
    39  H    0.132455
    40  H    0.161355
    41  H    0.145717
    42  C   -0.448627
    43  H    0.146883
    44  H    0.177883
    45  H    0.130372
    46  N   -0.600552
    47  H    0.331884
    48  C   -0.059971
    49  H    0.199714
    50  C    0.622199
    51  C   -0.285897
    52  H    0.184276
    53  H    0.143800
    54  O   -0.597904
    55  C   -0.309796
    56  H    0.174894
    57  H    0.178353
    58  C   -0.152544
    59  H    0.174147
    60  H    0.168920
    61  N   -0.610814
    62  H    0.409265
    63  N   -0.758526
    64  H    0.373741
    65  H    0.381380
    66  N   -0.781286
    67  H    0.404993
    68  H    0.358312
    69  C    0.786136
    70  O   -0.620720
 Sum of Mulliken charges =   1.00000

 Dipole moment (field-independent basis, Debye):
    X=              7.5608    Y=             14.0701    Z=              5.6945  Tot=             16.9576
 Quadrupole moment (field-independent basis, Debye-Ang):
   XX=            -85.8860   YY=           -114.2638   ZZ=           -166.8495
   XY=             89.9270   XZ=             13.0679   YZ=             -7.7545

 Normal termination of Gaussian 16 at Fri Jun  3 04:09:42 2022.
