 Gaussian 16, Revision C.01,
 Gaussian 16:  ES64L-G16RevC.01  3-Jul-2019

 ----------------------------------------------------------------------
 # B3LYP/6-31G* empiricaldispersion=gd3 guess=read geom=check nosymm in
 tegral(ultrafinegrid)
 ----------------------------------------------------------------------

 ------------------------------------------------------
 Candidate Structure: Conf:727 Charge calc in gas phase
 ------------------------------------------------------
 Structure from the checkpoint file:  "conf-727.chk"
 Charge =  1 Multiplicity = 1

                          Input orientation:
 ---------------------------------------------------------------------
 Center     Atomic      Atomic             Coordinates (Angstroms)
 Number     Number       Type             X           Y           Z
 ---------------------------------------------------------------------
      1          7           0       -1.392534   -4.634703    1.368474
      2          1           0       -2.099137   -4.879735    2.065944
      3          1           0       -1.864660   -4.173730    0.519052
      4          1           0       -0.892236   -5.484563    1.093636
      5          6           0       -0.461308   -3.521942    1.804802
      6          1           0       -0.666351   -3.289659    2.851824
      7          6           0       -0.900216   -2.344916    0.882171
      8          6           0        1.019857   -3.949847    1.636190
      9          1           0        1.164982   -4.870657    2.220752
     10          1           0        1.199109   -4.191573    0.580846
     11          8           0       -1.724721   -2.608658   -0.005269
     12          6           0        1.945554   -2.864488    2.082746
     13          6           0        2.756710   -2.100698    1.269788
     14          1           0        2.943745   -2.198372    0.209544
     15          6           0        2.008596   -2.274647    3.398252
     16          6           0        2.876900   -1.148995    3.293182
     17          6           0        1.414673   -2.565517    4.642134
     18          1           0        0.776452   -3.438227    4.766494
     19          7           0        3.323616   -1.084532    1.990019
     20          1           0        3.853947   -0.318659    1.557930
     21          6           0        2.541273   -0.624243    5.595079
     22          1           0        2.733065    0.000563    6.462202
     23          6           0        3.151180   -0.317342    4.385373
     24          1           0        3.819048    0.533077    4.286070
     25          6           0        1.684097   -1.738789    5.724416
     26          1           0        1.237466   -1.954794    6.690458
     27          7           0       -0.372756   -1.153835    1.169572
     28          1           0        0.330706   -1.155049    1.901156
     29          6           0       -0.356838    0.035586    0.283572
     30          1           0       -0.025188    0.856131    0.930783
     31          6           0        0.701843   -0.261080   -0.806551
     32          6           0       -1.742415    0.399213   -0.297479
     33          1           0       -1.984145   -0.359429   -1.047992
     34          8           0        0.484047   -1.102971   -1.672390
     35          6           0       -1.734330    1.786837   -0.978893
     36          1           0       -2.778415    2.020141   -1.220857
     37          1           0       -1.422351    2.547102   -0.246868
     38          6           0       -2.815357    0.380973    0.802853
     39          1           0       -2.572023    1.085937    1.608162
     40          1           0       -3.783440    0.676119    0.385511
     41          1           0       -2.938924   -0.611889    1.242408
     42          6           0       -0.902594    1.925394   -2.260952
     43          1           0       -1.147404    2.864632   -2.769180
     44          1           0       -1.102644    1.100602   -2.953267
     45          1           0        0.170084    1.934250   -2.053987
     46          7           0        1.861079    0.433407   -0.711555
     47          1           0        2.102770    0.960933    0.121405
     48          6           0        2.992386    0.167218   -1.592874
     49          1           0        3.011243   -0.906821   -1.813710
     50          6           0        4.302710    0.529738   -0.847011
     51          6           0        2.849866    0.900837   -2.945150
     52          1           0        3.630257    0.516716   -3.612327
     53          1           0        1.896808    0.584040   -3.378478
     54          8           0        5.370202    0.370974   -1.510498
     55          6           0        2.911162    2.449148   -2.852549
     56          1           0        2.940663    2.766824   -1.802151
     57          1           0        2.002941    2.888432   -3.279947
     58          6           0        4.107154    3.079829   -3.587870
     59          1           0        4.087294    2.811799   -4.649605
     60          1           0        4.053522    4.169929   -3.522360
     61          7           0        5.387274    2.619671   -3.027663
     62          1           0        5.414732    1.609336   -2.824392
     63          7           0        6.245817    4.657761   -2.270552
     64          1           0        6.808391    5.173920   -1.610331
     65          1           0        6.074323    5.102751   -3.160274
     66          7           0        6.819314    2.646209   -1.229725
     67          1           0        6.505448    1.675919   -1.026426
     68          1           0        7.551339    3.082287   -0.689321
     69          6           0        6.152799    3.310385   -2.172569
     70          8           0        4.213048    0.975178    0.324947
 ---------------------------------------------------------------------

 SCF Done:  E(RB3LYP) =  -1582.24560316     A.U. after    3 cycles

 Alpha  occ. eigenvalues --  -19.25412 -19.19344 -19.18023 -19.17977 -14.58309
 Alpha  occ. eigenvalues --  -14.48597 -14.48201 -14.46409 -14.46170 -14.45134
 Alpha  occ. eigenvalues --  -14.43624 -10.43737 -10.41996 -10.39031 -10.36712
 Alpha  occ. eigenvalues --  -10.35883 -10.33028 -10.32731 -10.32416 -10.30706
 Alpha  occ. eigenvalues --  -10.30080 -10.30003 -10.27740 -10.27574 -10.27316
 Alpha  occ. eigenvalues --  -10.27260 -10.27081 -10.26836 -10.26632 -10.26350
 Alpha  occ. eigenvalues --  -10.26285 -10.25633 -10.25004 -10.24103  -1.17855
 Alpha  occ. eigenvalues --   -1.12463  -1.12209  -1.11590  -1.10943  -1.06135
 Alpha  occ. eigenvalues --   -1.04769  -1.02848  -1.01491  -1.00269  -0.99815
 Alpha  occ. eigenvalues --   -0.93107  -0.91743  -0.89360  -0.87819  -0.86226
 Alpha  occ. eigenvalues --   -0.83365  -0.81951  -0.81512  -0.80699  -0.79239
 Alpha  occ. eigenvalues --   -0.77874  -0.75858  -0.74050  -0.72643  -0.71807
 Alpha  occ. eigenvalues --   -0.70963  -0.70352  -0.69968  -0.69091  -0.69023
 Alpha  occ. eigenvalues --   -0.67487  -0.66445  -0.65510  -0.65077  -0.64232
 Alpha  occ. eigenvalues --   -0.63948  -0.62205  -0.61663  -0.60993  -0.60874
 Alpha  occ. eigenvalues --   -0.60432  -0.58821  -0.57562  -0.57118  -0.56922
 Alpha  occ. eigenvalues --   -0.56010  -0.55781  -0.55311  -0.53787  -0.53669
 Alpha  occ. eigenvalues --   -0.52809  -0.52436  -0.51920  -0.51524  -0.51314
 Alpha  occ. eigenvalues --   -0.51205  -0.50341  -0.50278  -0.50232  -0.49643
 Alpha  occ. eigenvalues --   -0.49401  -0.49013  -0.48781  -0.48118  -0.47511
 Alpha  occ. eigenvalues --   -0.47342  -0.46749  -0.46498  -0.45690  -0.44662
 Alpha  occ. eigenvalues --   -0.43704  -0.43568  -0.42952  -0.42591  -0.42112
 Alpha  occ. eigenvalues --   -0.41843  -0.41382  -0.40953  -0.40303  -0.40172
 Alpha  occ. eigenvalues --   -0.39208  -0.38843  -0.38593  -0.36292  -0.36001
 Alpha  occ. eigenvalues --   -0.34359  -0.33473  -0.32783  -0.32451  -0.31762
 Alpha  occ. eigenvalues --   -0.30577  -0.28948
 Alpha virt. eigenvalues --   -0.11298  -0.09840  -0.09566  -0.08642  -0.06231
 Alpha virt. eigenvalues --   -0.05801  -0.05046  -0.04613  -0.04070  -0.03516
 Alpha virt. eigenvalues --   -0.01718  -0.00590   0.00012   0.00571   0.00859

 Mulliken charges:
               1
     1  N   -0.765170
     2  H    0.411752
     3  H    0.435377
     4  H    0.411516
     5  C   -0.120557
     6  H    0.218973
     7  C    0.666104
     8  C   -0.371486
     9  H    0.175328
    10  H    0.185664
    11  O   -0.534547
    12  C    0.002956
    13  C    0.006012
    14  H    0.178823
    15  C    0.059401
    16  C    0.293610
    17  C   -0.219639
    18  H    0.110319
    19  N   -0.690505
    20  H    0.395707
    21  C   -0.151120
    22  H    0.147107
    23  C   -0.158597
    24  H    0.152766
    25  C   -0.135744
    26  H    0.141275
    27  N   -0.601951
    28  H    0.379703
    29  C   -0.056097
    30  H    0.151173
    31  C    0.634055
    32  C   -0.095308
    33  H    0.185872
    34  O   -0.531667
    35  C   -0.261618
    36  H    0.152230
    37  H    0.129759
    38  C   -0.453618
    39  H    0.142956
    40  H    0.162563
    41  H    0.139367
    42  C   -0.476291
    43  H    0.150313
    44  H    0.167676
    45  H    0.155597
    46  N   -0.607856
    47  H    0.343014
    48  C   -0.059874
    49  H    0.179210
    50  C    0.601693
    51  C   -0.292535
    52  H    0.159178
    53  H    0.183806
    54  O   -0.614688
    55  C   -0.275166
    56  H    0.157275
    57  H    0.165798
    58  C   -0.175976
    59  H    0.183385
    60  H    0.157795
    61  N   -0.603268
    62  H    0.403912
    63  N   -0.750700
    64  H    0.367105
    65  H    0.373541
    66  N   -0.764294
    67  H    0.420600
    68  H    0.353862
    69  C    0.768797
    70  O   -0.594652
 Sum of Mulliken charges =   1.00000

 Dipole moment (field-independent basis, Debye):
    X=              8.2765    Y=             -1.2986    Z=              1.9962  Tot=              8.6123
 Quadrupole moment (field-independent basis, Debye-Ang):
   XX=           -112.8468   YY=            -79.6009   ZZ=           -165.6511
   XY=             86.7868   XZ=            -34.7367   YZ=            -51.2105

 Normal termination of Gaussian 16 at Fri Jun  3 04:10:04 2022.
