 Gaussian 16, Revision C.01,
 Gaussian 16:  ES64L-G16RevC.01  3-Jul-2019

 ----------------------------------------------------------------------
 # B3LYP/6-31G* empiricaldispersion=gd3 guess=read geom=check nosymm in
 tegral(ultrafinegrid)
 ----------------------------------------------------------------------

 ------------------------------------------------------
 Candidate Structure: Conf:474 Charge calc in gas phase
 ------------------------------------------------------
 Structure from the checkpoint file:  "conf-474.chk"
 Charge =  1 Multiplicity = 1

                          Input orientation:
 ---------------------------------------------------------------------
 Center     Atomic      Atomic             Coordinates (Angstroms)
 Number     Number       Type             X           Y           Z
 ---------------------------------------------------------------------
      1          7           0       -1.949892   -1.910054    2.800257
      2          1           0       -2.707687   -1.383147    3.243163
      3          1           0       -2.368056   -2.534897    2.075756
      4          1           0       -1.448615   -2.451851    3.521807
      5          6           0       -1.015343   -1.026540    1.999522
      6          1           0       -0.890280   -0.072072    2.510968
      7          6           0       -1.681183   -0.928920    0.614390
      8          6           0        0.352841   -1.738918    1.875008
      9          1           0        0.195406   -2.705338    1.379277
     10          1           0        0.964418   -1.139363    1.199580
     11          8           0       -2.324503   -1.913325    0.234844
     12          6           0        0.996358   -1.900301    3.217456
     13          6           0        1.782760   -0.972565    3.860840
     14          1           0        2.164466   -0.033991    3.475307
     15          6           0        0.771938   -2.980121    4.148779
     16          6           0        1.450388   -2.636242    5.353330
     17          6           0        0.073555   -4.204533    4.087647
     18          1           0       -0.398263   -4.531193    3.161899
     19          7           0        2.060785   -1.416877    5.136892
     20          1           0        2.617539   -0.918869    5.814524
     21          6           0        0.715840   -4.652801    6.395978
     22          1           0        0.680943   -5.314311    7.256193
     23          6           0        1.431121   -3.462148    6.480265
     24          1           0        1.954826   -3.185819    7.391187
     25          6           0        0.047592   -5.023601    5.211665
     26          1           0       -0.479803   -5.972096    5.173202
     27          7           0       -1.445061    0.229403   -0.026165
     28          1           0       -0.822218    0.853398    0.507784
     29          6           0       -1.214680    0.405583   -1.486713
     30          1           0       -1.567792    1.415116   -1.735852
     31          6           0        0.330908    0.356691   -1.510300
     32          6           0       -1.898366   -0.595932   -2.423428
     33          1           0       -1.589319   -1.601748   -2.122873
     34          8           0        0.938422   -0.706066   -1.489001
     35          6           0       -1.393612   -0.347269   -3.861927
     36          1           0       -1.650852    0.679391   -4.163893
     37          1           0       -0.299276   -0.414670   -3.870075
     38          6           0       -3.425102   -0.475398   -2.317106
     39          1           0       -3.764478    0.503539   -2.680644
     40          1           0       -3.917648   -1.244157   -2.918671
     41          1           0       -3.764168   -0.602457   -1.286780
     42          6           0       -1.948786   -1.337868   -4.891235
     43          1           0       -1.480708   -1.179793   -5.868624
     44          1           0       -3.030182   -1.231886   -5.023808
     45          1           0       -1.746192   -2.371783   -4.586942
     46          7           0        0.939643    1.577506   -1.361870
     47          1           0        0.311764    2.351298   -1.176637
     48          6           0        2.188203    1.642064   -0.604522
     49          1           0        2.822581    0.834778   -0.979201
     50          6           0        1.909203    1.351544    0.906050
     51          6           0        2.875749    3.000634   -0.868018
     52          1           0        2.715011    3.229349   -1.926901
     53          1           0        2.370545    3.794312   -0.299058
     54          8           0        2.913203    1.042410    1.622991
     55          6           0        4.392330    3.024440   -0.598519
     56          1           0        4.866742    3.768999   -1.248642
     57          1           0        4.813764    2.054440   -0.888187
     58          6           0        4.780852    3.328198    0.860933
     59          1           0        4.765779    4.402990    1.058923
     60          1           0        4.090150    2.858812    1.561451
     61          7           0        6.141714    2.860761    1.183484
     62          1           0        6.905243    3.476081    0.934551
     63          7           0        5.514998    0.628681    1.392981
     64          1           0        5.781119   -0.322340    1.608139
     65          1           0        4.470144    0.823058    1.350833
     66          7           0        7.765753    1.224972    1.431926
     67          1           0        8.455958    1.932267    1.640933
     68          1           0        8.024883    0.280455    1.677714
     69          6           0        6.453518    1.563157    1.345336
     70          8           0        0.731224    1.431710    1.321809
 ---------------------------------------------------------------------

 SCF Done:  E(RB3LYP) =  -1582.24175233     A.U. after    1 cycles

 Alpha  occ. eigenvalues --  -19.22507 -19.19582 -19.18877 -19.18300 -14.56218
 Alpha  occ. eigenvalues --  -14.50461 -14.50116 -14.48012 -14.46470 -14.44981
 Alpha  occ. eigenvalues --  -14.43535 -10.46118 -10.39225 -10.36430 -10.36262
 Alpha  occ. eigenvalues --  -10.35710 -10.33076 -10.31456 -10.30502 -10.30381
 Alpha  occ. eigenvalues --  -10.29719 -10.29219 -10.28862 -10.28214 -10.27439
 Alpha  occ. eigenvalues --  -10.27382 -10.27255 -10.26753 -10.26553 -10.26498
 Alpha  occ. eigenvalues --  -10.25510 -10.24039 -10.23013 -10.22670  -1.14739
 Alpha  occ. eigenvalues --   -1.14566  -1.12114  -1.11114  -1.10109  -1.06270
 Alpha  occ. eigenvalues --   -1.04092  -1.03345  -1.02176  -1.01781  -1.00055
 Alpha  occ. eigenvalues --   -0.92343  -0.90484  -0.89418  -0.88032  -0.85514
 Alpha  occ. eigenvalues --   -0.83804  -0.81918  -0.80991  -0.79778  -0.78097
 Alpha  occ. eigenvalues --   -0.76937  -0.75848  -0.74571  -0.71975  -0.70540
 Alpha  occ. eigenvalues --   -0.70284  -0.70004  -0.69808  -0.69341  -0.68430
 Alpha  occ. eigenvalues --   -0.67472  -0.66424  -0.65874  -0.64785  -0.63633
 Alpha  occ. eigenvalues --   -0.62904  -0.62384  -0.61818  -0.61453  -0.60710
 Alpha  occ. eigenvalues --   -0.58964  -0.58463  -0.57654  -0.57047  -0.56499
 Alpha  occ. eigenvalues --   -0.56443  -0.55426  -0.54972  -0.53875  -0.53165
 Alpha  occ. eigenvalues --   -0.52420  -0.51880  -0.51717  -0.51519  -0.51282
 Alpha  occ. eigenvalues --   -0.50835  -0.50234  -0.50047  -0.49424  -0.49114
 Alpha  occ. eigenvalues --   -0.48229  -0.48079  -0.47331  -0.47065  -0.46858
 Alpha  occ. eigenvalues --   -0.46343  -0.46051  -0.45828  -0.45615  -0.44336
 Alpha  occ. eigenvalues --   -0.43561  -0.43507  -0.43079  -0.42294  -0.41933
 Alpha  occ. eigenvalues --   -0.41629  -0.41515  -0.40596  -0.39438  -0.38598
 Alpha  occ. eigenvalues --   -0.38513  -0.38170  -0.37171  -0.36384  -0.36076
 Alpha  occ. eigenvalues --   -0.35503  -0.34240  -0.32594  -0.32266  -0.31506
 Alpha  occ. eigenvalues --   -0.30717  -0.28719
 Alpha virt. eigenvalues --   -0.10126  -0.10052  -0.09667  -0.07326  -0.07189
 Alpha virt. eigenvalues --   -0.05643  -0.05034  -0.04180  -0.03055  -0.02249
 Alpha virt. eigenvalues --   -0.02031  -0.00150  -0.00126   0.00462   0.00854

 Mulliken charges:
               1
     1  N   -0.754661
     2  H    0.406364
     3  H    0.412976
     4  H    0.412155
     5  C   -0.122787
     6  H    0.222451
     7  C    0.642436
     8  C   -0.382276
     9  H    0.179786
    10  H    0.227603
    11  O   -0.538823
    12  C    0.011014
    13  C    0.010181
    14  H    0.215899
    15  C    0.047690
    16  C    0.320388
    17  C   -0.258064
    18  H    0.132875
    19  N   -0.689216
    20  H    0.337650
    21  C   -0.152002
    22  H    0.148727
    23  C   -0.157372
    24  H    0.143301
    25  C   -0.132767
    26  H    0.145279
    27  N   -0.626861
    28  H    0.391574
    29  C   -0.054279
    30  H    0.147682
    31  C    0.595350
    32  C   -0.072592
    33  H    0.168401
    34  O   -0.521079
    35  C   -0.272650
    36  H    0.126943
    37  H    0.156625
    38  C   -0.459412
    39  H    0.136299
    40  H    0.162025
    41  H    0.158967
    42  C   -0.452074
    43  H    0.152987
    44  H    0.154020
    45  H    0.151579
    46  N   -0.576428
    47  H    0.327762
    48  C   -0.064439
    49  H    0.181334
    50  C    0.633107
    51  C   -0.297578
    52  H    0.175107
    53  H    0.151635
    54  O   -0.614388
    55  C   -0.275515
    56  H    0.157246
    57  H    0.157432
    58  C   -0.197651
    59  H    0.179808
    60  H    0.222294
    61  N   -0.591227
    62  H    0.353067
    63  N   -0.787314
    64  H    0.356100
    65  H    0.450136
    66  N   -0.765593
    67  H    0.371035
    68  H    0.370932
    69  C    0.799255
    70  O   -0.588426
 Sum of Mulliken charges =   1.00000

 Dipole moment (field-independent basis, Debye):
    X=             16.0657    Y=              3.2161    Z=             11.8993  Tot=             20.2495
 Quadrupole moment (field-independent basis, Debye-Ang):
   XX=            -32.3936   YY=           -163.5406   ZZ=           -142.9512
   XY=             45.2175   XZ=             25.8970   YZ=            -23.0727

 Normal termination of Gaussian 16 at Fri Jun  3 03:56:55 2022.
