 Gaussian 16, Revision C.01,
 Gaussian 16:  ES64L-G16RevC.01  3-Jul-2019

 ----------------------------------------------------------------------
 # B3LYP/6-31G* empiricaldispersion=gd3 guess=read geom=check nosymm in
 tegral(ultrafinegrid)
 ----------------------------------------------------------------------

 ------------------------------------------------------
 Candidate Structure: Conf:197 Charge calc in gas phase
 ------------------------------------------------------
 Structure from the checkpoint file:  "conf-197.chk"
 Charge =  1 Multiplicity = 1

                          Input orientation:
 ---------------------------------------------------------------------
 Center     Atomic      Atomic             Coordinates (Angstroms)
 Number     Number       Type             X           Y           Z
 ---------------------------------------------------------------------
      1          7           0        1.053221   -0.090325    3.829142
      2          1           0        2.211895   -0.142673    2.563989
      3          1           0        1.012526    0.909251    4.037059
      4          1           0        1.202288   -0.582612    4.708673
      5          6           0       -0.232614   -0.494653    3.222356
      6          1           0       -0.132704   -1.536734    2.897631
      7          6           0       -0.438836    0.418727    2.008930
      8          6           0       -1.443269   -0.387199    4.182719
      9          1           0       -1.221825   -0.997103    5.068064
     10          1           0       -1.512721    0.654763    4.518947
     11          8           0       -0.310764    1.643983    2.139070
     12          6           0       -2.737337   -0.818401    3.558805
     13          6           0       -3.272763   -2.084041    3.561500
     14          1           0       -2.905240   -2.987295    4.030140
     15          6           0       -3.648249    0.010287    2.806838
     16          6           0       -4.723437   -0.820825    2.389622
     17          6           0       -3.663936    1.373247    2.459063
     18          1           0       -2.839237    2.021117    2.740695
     19          7           0       -4.457502   -2.094694    2.851770
     20          1           0       -5.076333   -2.886063    2.766188
     21          6           0       -5.803508    1.025154    1.339670
     22          1           0       -6.632826    1.442651    0.775879
     23          6           0       -5.807512   -0.328557    1.654650
     24          1           0       -6.622808   -0.977460    1.346935
     25          6           0       -4.741828    1.866437    1.735784
     26          1           0       -4.770039    2.917687    1.463999
     27          7           0       -0.754291   -0.180498    0.843288
     28          1           0       -0.719779   -1.189263    0.805317
     29          6           0       -0.849582    0.530224   -0.439756
     30          1           0       -1.277464    1.510635   -0.211658
     31          6           0        0.602345    0.728408   -0.938543
     32          6           0       -1.749126   -0.212269   -1.449654
     33          1           0       -1.486668    0.203879   -2.431058
     34          8           0        1.126150    0.035142   -1.797551
     35          6           0       -3.241748    0.063889   -1.180382
     36          1           0       -3.831667   -0.656777   -1.761544
     37          1           0       -3.465733   -0.135357   -0.125367
     38          6           0       -1.466691   -1.723559   -1.506916
     39          1           0       -1.860387   -2.241051   -0.620954
     40          1           0       -1.975324   -2.162341   -2.371242
     41          1           0       -0.397087   -1.927340   -1.605272
     42          6           0       -3.693899    1.480373   -1.547945
     43          1           0       -4.766214    1.600212   -1.367811
     44          1           0       -3.497656    1.695193   -2.605965
     45          1           0       -3.186200    2.243602   -0.946819
     46          7           0        1.266129    1.732258   -0.265408
     47          1           0        0.752461    2.121156    0.526272
     48          6           0        2.713374    1.645605   -0.073690
     49          1           0        3.070023    0.859308   -0.746298
     50          6           0        2.923754    1.208772    1.388257
     51          6           0        3.401607    2.977845   -0.378469
     52          1           0        3.065181    3.285652   -1.378963
     53          1           0        3.045358    3.731953    0.333151
     54          8           0        2.486015   -0.030495    1.586917
     55          6           0        4.930630    2.879542   -0.289700
     56          1           0        5.314159    2.119976   -0.984126
     57          1           0        5.200878    2.562362    0.721426
     58          6           0        5.646249    4.205157   -0.547582
     59          1           0        5.278589    4.968665    0.150892
     60          1           0        6.727105    4.089595   -0.409824
     61          7           0        5.411782    4.660394   -1.934460
     62          1           0        4.627345    4.243823   -2.421115
     63          7           0        6.924439    6.417624   -1.869841
     64          1           0        7.595287    7.002913   -2.346932
     65          1           0        6.952770    6.406187   -0.860626
     66          7           0        5.910919    5.840208   -3.869907
     67          1           0        5.429699    5.166852   -4.449267
     68          1           0        6.193419    6.706419   -4.306089
     69          6           0        6.073477    5.635193   -2.550164
     70          8           0        3.350495    1.953543    2.252864
 ---------------------------------------------------------------------

 SCF Done:  E(RB3LYP) =  -1582.24851839     A.U. after    1 cycles

 Alpha  occ. eigenvalues --  -19.23628 -19.20247 -19.19694 -19.18845 -14.54347
 Alpha  occ. eigenvalues --  -14.54132 -14.53979 -14.44192 -14.43741 -14.42333
 Alpha  occ. eigenvalues --  -14.41873 -10.50544 -10.38184 -10.37035 -10.36561
 Alpha  occ. eigenvalues --  -10.35502 -10.31101 -10.30638 -10.30420 -10.29971
 Alpha  occ. eigenvalues --  -10.28914 -10.27887 -10.27371 -10.26321 -10.25247
 Alpha  occ. eigenvalues --  -10.24257 -10.24232 -10.23868 -10.23704 -10.23649
 Alpha  occ. eigenvalues --  -10.23248 -10.23156 -10.22971 -10.22314  -1.18954
 Alpha  occ. eigenvalues --   -1.15637  -1.11616  -1.10359  -1.08066  -1.07172
 Alpha  occ. eigenvalues --   -1.07088  -1.03571  -1.00559  -0.99412  -0.97936
 Alpha  occ. eigenvalues --   -0.92036  -0.89192  -0.87404  -0.86184  -0.85744
 Alpha  occ. eigenvalues --   -0.81770  -0.81181  -0.79616  -0.78795  -0.78257
 Alpha  occ. eigenvalues --   -0.77266  -0.76438  -0.75788  -0.73749  -0.72076
 Alpha  occ. eigenvalues --   -0.70959  -0.68464  -0.67807  -0.67639  -0.67252
 Alpha  occ. eigenvalues --   -0.66736  -0.65554  -0.65063  -0.64732  -0.63092
 Alpha  occ. eigenvalues --   -0.62923  -0.61766  -0.60858  -0.60226  -0.59942
 Alpha  occ. eigenvalues --   -0.59243  -0.57635  -0.56081  -0.55421  -0.55401
 Alpha  occ. eigenvalues --   -0.54451  -0.54037  -0.53444  -0.52818  -0.52651
 Alpha  occ. eigenvalues --   -0.52416  -0.51099  -0.50505  -0.50391  -0.49961
 Alpha  occ. eigenvalues --   -0.48819  -0.48508  -0.48225  -0.48027  -0.47636
 Alpha  occ. eigenvalues --   -0.47392  -0.47017  -0.46727  -0.46350  -0.45880
 Alpha  occ. eigenvalues --   -0.45603  -0.45410  -0.45298  -0.44619  -0.44231
 Alpha  occ. eigenvalues --   -0.43395  -0.43091  -0.42650  -0.42586  -0.42232
 Alpha  occ. eigenvalues --   -0.41050  -0.40514  -0.39109  -0.38916  -0.38295
 Alpha  occ. eigenvalues --   -0.37924  -0.37435  -0.37353  -0.35436  -0.35121
 Alpha  occ. eigenvalues --   -0.34982  -0.33622  -0.32673  -0.31701  -0.30727
 Alpha  occ. eigenvalues --   -0.27671  -0.25893
 Alpha virt. eigenvalues --   -0.14320  -0.10188  -0.07468  -0.06585  -0.06549
 Alpha virt. eigenvalues --   -0.06316  -0.05674  -0.04890  -0.02978  -0.02697
 Alpha virt. eigenvalues --   -0.01640  -0.00320  -0.00192   0.00584   0.01491

 Mulliken charges:
               1
     1  N   -0.776324
     2  H    0.456672
     3  H    0.350815
     4  H    0.331028
     5  C   -0.046212
     6  H    0.147991
     7  C    0.665909
     8  C   -0.362081
     9  H    0.149795
    10  H    0.169960
    11  O   -0.578888
    12  C    0.054568
    13  C   -0.007038
    14  H    0.155277
    15  C    0.076956
    16  C    0.310684
    17  C   -0.215693
    18  H    0.149183
    19  N   -0.686945
    20  H    0.335829
    21  C   -0.149378
    22  H    0.134242
    23  C   -0.165462
    24  H    0.133374
    25  C   -0.143315
    26  H    0.128396
    27  N   -0.587491
    28  H    0.350864
    29  C   -0.086018
    30  H    0.182687
    31  C    0.612033
    32  C   -0.074012
    33  H    0.146552
    34  O   -0.504897
    35  C   -0.272708
    36  H    0.136072
    37  H    0.168138
    38  C   -0.494053
    39  H    0.134387
    40  H    0.161393
    41  H    0.181377
    42  C   -0.450340
    43  H    0.154844
    44  H    0.137655
    45  H    0.141766
    46  N   -0.627225
    47  H    0.372161
    48  C   -0.032026
    49  H    0.192575
    50  C    0.579348
    51  C   -0.272532
    52  H    0.127367
    53  H    0.169888
    54  O   -0.603760
    55  C   -0.320617
    56  H    0.163588
    57  H    0.212578
    58  C   -0.159271
    59  H    0.190390
    60  H    0.188366
    61  N   -0.600885
    62  H    0.371185
    63  N   -0.755904
    64  H    0.388462
    65  H    0.397409
    66  N   -0.763593
    67  H    0.389314
    68  H    0.387503
    69  C    0.836734
    70  O   -0.488646
 Sum of Mulliken charges =   1.00000

 Dipole moment (field-independent basis, Debye):
    X=             20.3588    Y=             19.3184    Z=             -6.6170  Tot=             28.8352
 Quadrupole moment (field-independent basis, Debye-Ang):
   XX=            -21.7929   YY=            -45.8420   ZZ=           -146.4749
   XY=            165.2928   XZ=            -67.1305   YZ=            -81.7241

 Normal termination of Gaussian 16 at Fri Jun  3 03:56:48 2022.
