 Gaussian 16, Revision C.01,
 Gaussian 16:  ES64L-G16RevC.01  3-Jul-2019

 ----------------------------------------------------------------------
 # B3LYP/6-31G* empiricaldispersion=gd3 guess=read geom=check nosymm in
 tegral(ultrafinegrid)
 ----------------------------------------------------------------------

 ------------------------------------------------------
 Candidate Structure: Conf:123 Charge calc in gas phase
 ------------------------------------------------------
 Structure from the checkpoint file:  "conf-123.chk"
 Charge =  1 Multiplicity = 1

                          Input orientation:
 ---------------------------------------------------------------------
 Center     Atomic      Atomic             Coordinates (Angstroms)
 Number     Number       Type             X           Y           Z
 ---------------------------------------------------------------------
      1          7           0       -1.563575   -0.885748    3.572646
      2          1           0       -2.265348   -0.139533    3.570823
      3          1           0       -1.954665   -1.714501    3.053690
      4          1           0       -1.333560   -1.129782    4.540174
      5          6           0       -0.332639   -0.563161    2.730273
      6          1           0       -0.088628    0.496778    2.823770
      7          6           0       -0.817461   -0.971159    1.314202
      8          6           0        0.813483   -1.463312    3.237111
      9          1           0        1.049843   -1.159135    4.266749
     10          1           0        0.438469   -2.494891    3.275994
     11          8           0       -1.514039   -1.998644    1.274674
     12          6           0        2.028023   -1.404927    2.370032
     13          6           0        3.022385   -0.458671    2.415227
     14          1           0        3.118014    0.426566    3.025872
     15          6           0        2.353134   -2.309068    1.294744
     16          6           0        3.579048   -1.856420    0.738822
     17          6           0        1.727744   -3.441718    0.747499
     18          1           0        0.774786   -3.791332    1.136609
     19          7           0        3.963471   -0.733184    1.453289
     20          1           0        4.676780   -0.071252    1.183972
     21          6           0        3.558842   -3.627367   -0.850687
     22          1           0        4.006515   -4.154040   -1.688198
     23          6           0        4.198129   -2.509745   -0.329840
     24          1           0        5.138201   -2.153150   -0.741434
     25          6           0        2.335985   -4.087023   -0.320316
     26          1           0        1.862114   -4.959525   -0.760581
     27          7           0       -0.477846   -0.130349    0.341825
     28          1           0        0.162814    0.633051    0.623756
     29          6           0       -0.581857   -0.272822   -1.140929
     30          1           0       -1.120088    0.620359   -1.491506
     31          6           0        0.905552   -0.153386   -1.551595
     32          6           0       -1.324806   -1.509766   -1.668756
     33          1           0       -0.917317   -2.392186   -1.165918
     34          8           0        1.623517   -1.118606   -1.734450
     35          6           0       -1.070606   -1.656172   -3.187164
     36          1           0       -1.385092   -0.731417   -3.695778
     37          1           0        0.002943   -1.765472   -3.356977
     38          6           0       -2.830175   -1.386005   -1.376140
     39          1           0       -3.277788   -0.603687   -2.003747
     40          1           0       -3.345850   -2.324627   -1.595080
     41          1           0       -3.029931   -1.148003   -0.329781
     42          6           0       -1.790864   -2.854118   -3.816844
     43          1           0       -1.482831   -2.978393   -4.860380
     44          1           0       -2.879617   -2.740262   -3.807054
     45          1           0       -1.544134   -3.781179   -3.284943
     46          7           0        1.360662    1.149385   -1.537251
     47          1           0        0.674156    1.835372   -1.245305
     48          6           0        2.689909    1.430403   -1.001899
     49          1           0        3.234058    0.482750   -1.033936
     50          6           0        2.565314    1.877551    0.485321
     51          6           0        3.455151    2.476474   -1.844201
     52          1           0        4.529810    2.313458   -1.706556
     53          1           0        3.240253    2.269665   -2.896131
     54          8           0        3.656850    2.244194    1.028333
     55          6           0        3.111335    3.946831   -1.490902
     56          1           0        2.202390    3.988041   -0.876988
     57          1           0        2.896212    4.528560   -2.394485
     58          6           0        4.261238    4.615058   -0.712432
     59          1           0        4.706502    3.896179   -0.026232
     60          1           0        5.047156    4.952257   -1.395659
     61          7           0        3.840826    5.785521    0.071186
     62          1           0        3.585927    6.616146   -0.447838
     63          7           0        3.481828    4.672321    2.098497
     64          1           0        3.374419    4.757458    3.099523
     65          1           0        3.517294    3.680356    1.709186
     66          7           0        3.178725    6.976096    1.931939
     67          1           0        3.576401    7.825849    1.556253
     68          1           0        2.918430    7.013138    2.906745
     69          6           0        3.508236    5.779502    1.371150
     70          8           0        1.432959    1.898325    1.028763
 ---------------------------------------------------------------------

 SCF Done:  E(RB3LYP) =  -1582.22732881     A.U. after    1 cycles

 Alpha  occ. eigenvalues --  -19.23143 -19.19047 -19.18870 -19.18590 -14.58522
 Alpha  occ. eigenvalues --  -14.50097 -14.49934 -14.47838 -14.46347 -14.44143
 Alpha  occ. eigenvalues --  -14.42697 -10.45904 -10.40276 -10.37543 -10.36331
 Alpha  occ. eigenvalues --  -10.35957 -10.32752 -10.31798 -10.31048 -10.29734
 Alpha  occ. eigenvalues --  -10.28703 -10.28259 -10.27699 -10.26942 -10.25714
 Alpha  occ. eigenvalues --  -10.25583 -10.24558 -10.24320 -10.24119 -10.23684
 Alpha  occ. eigenvalues --  -10.23539 -10.23453 -10.23427 -10.22492  -1.15941
 Alpha  occ. eigenvalues --   -1.14235  -1.12052  -1.11634  -1.10872  -1.04291
 Alpha  occ. eigenvalues --   -1.03781  -1.03543  -1.02676  -1.01675  -0.99421
 Alpha  occ. eigenvalues --   -0.91485  -0.89324  -0.88843  -0.87937  -0.84556
 Alpha  occ. eigenvalues --   -0.83409  -0.80946  -0.79222  -0.78565  -0.77714
 Alpha  occ. eigenvalues --   -0.76852  -0.76008  -0.74335  -0.71839  -0.71500
 Alpha  occ. eigenvalues --   -0.71439  -0.70653  -0.69055  -0.68148  -0.68073
 Alpha  occ. eigenvalues --   -0.66720  -0.65825  -0.65218  -0.63893  -0.63305
 Alpha  occ. eigenvalues --   -0.62835  -0.62016  -0.61895  -0.60571  -0.60134
 Alpha  occ. eigenvalues --   -0.59315  -0.58431  -0.57931  -0.56675  -0.56091
 Alpha  occ. eigenvalues --   -0.55421  -0.54928  -0.54313  -0.53825  -0.52865
 Alpha  occ. eigenvalues --   -0.52319  -0.51785  -0.51393  -0.51059  -0.50178
 Alpha  occ. eigenvalues --   -0.49744  -0.49519  -0.49078  -0.48873  -0.48081
 Alpha  occ. eigenvalues --   -0.47841  -0.47643  -0.47232  -0.47011  -0.46676
 Alpha  occ. eigenvalues --   -0.46349  -0.45931  -0.45017  -0.44604  -0.44122
 Alpha  occ. eigenvalues --   -0.43593  -0.42513  -0.41774  -0.41384  -0.41091
 Alpha  occ. eigenvalues --   -0.40644  -0.39764  -0.39401  -0.38741  -0.38510
 Alpha  occ. eigenvalues --   -0.38153  -0.38026  -0.37241  -0.36573  -0.35445
 Alpha  occ. eigenvalues --   -0.34825  -0.33591  -0.32856  -0.31802  -0.31254
 Alpha  occ. eigenvalues --   -0.27896  -0.26523
 Alpha virt. eigenvalues --   -0.10525  -0.10079  -0.08857  -0.07142  -0.06897
 Alpha virt. eigenvalues --   -0.05513  -0.04868  -0.04406  -0.03051  -0.02671
 Alpha virt. eigenvalues --   -0.01837  -0.01248  -0.00084   0.00192   0.01218

 Mulliken charges:
               1
     1  N   -0.746890
     2  H    0.410284
     3  H    0.422445
     4  H    0.407514
     5  C   -0.123273
     6  H    0.217070
     7  C    0.673905
     8  C   -0.378636
     9  H    0.162232
    10  H    0.179089
    11  O   -0.560592
    12  C    0.046190
    13  C    0.011047
    14  H    0.152915
    15  C    0.093489
    16  C    0.310261
    17  C   -0.211837
    18  H    0.127477
    19  N   -0.680751
    20  H    0.342009
    21  C   -0.134126
    22  H    0.135236
    23  C   -0.151303
    24  H    0.129547
    25  C   -0.127900
    26  H    0.130776
    27  N   -0.654731
    28  H    0.409787
    29  C   -0.050656
    30  H    0.152362
    31  C    0.589098
    32  C   -0.071519
    33  H    0.170269
    34  O   -0.476605
    35  C   -0.277664
    36  H    0.121750
    37  H    0.178449
    38  C   -0.455607
    39  H    0.135772
    40  H    0.164726
    41  H    0.139145
    42  C   -0.454267
    43  H    0.154121
    44  H    0.149435
    45  H    0.149620
    46  N   -0.569204
    47  H    0.318361
    48  C   -0.101937
    49  H    0.200249
    50  C    0.651007
    51  C   -0.262935
    52  H    0.155306
    53  H    0.172527
    54  O   -0.640635
    55  C   -0.284137
    56  H    0.150478
    57  H    0.153715
    58  C   -0.182896
    59  H    0.217421
    60  H    0.180323
    61  N   -0.597900
    62  H    0.353569
    63  N   -0.784950
    64  H    0.350796
    65  H    0.450537
    66  N   -0.764639
    67  H    0.369721
    68  H    0.366619
    69  C    0.792460
    70  O   -0.603523
 Sum of Mulliken charges =   1.00000

 Dipole moment (field-independent basis, Debye):
    X=              4.7729    Y=             17.5115    Z=             12.2531  Tot=             21.8991
 Quadrupole moment (field-independent basis, Debye-Ang):
   XX=           -151.4325   YY=            -76.5984   ZZ=           -135.3600
   XY=             68.4954   XZ=             -9.5078   YZ=             17.0095

 Normal termination of Gaussian 16 at Fri Jun  3 03:56:53 2022.
