 Gaussian 16, Revision C.01,
 Gaussian 16:  ES64L-G16RevC.01  3-Jul-2019

 ----------------------------------------------------------------------
 # B3LYP/6-31G* empiricaldispersion=gd3 guess=read geom=check nosymm in
 tegral(ultrafinegrid)
 ----------------------------------------------------------------------

 ------------------------------------------------------
 Candidate Structure: Conf:234 Charge calc in gas phase
 ------------------------------------------------------
 Structure from the checkpoint file:  "conf-234.chk"
 Charge =  1 Multiplicity = 1

                          Input orientation:
 ---------------------------------------------------------------------
 Center     Atomic      Atomic             Coordinates (Angstroms)
 Number     Number       Type             X           Y           Z
 ---------------------------------------------------------------------
      1          7           0       -2.009839   -2.119477    3.798487
      2          1           0       -2.671338   -1.345367    3.915775
      3          1           0       -2.391743   -2.778494    3.081305
      4          1           0       -1.887810   -2.591374    4.699527
      5          6           0       -0.688056   -1.678325    3.174661
      6          1           0       -0.394180   -0.705867    3.576617
      7          6           0       -1.049165   -1.649540    1.667895
      8          6           0        0.353260   -2.770064    3.489523
      9          1           0        0.414118   -2.875547    4.582401
     10          1           0       -0.018662   -3.721202    3.087995
     11          8           0       -1.732991   -2.604561    1.264002
     12          6           0        1.705888   -2.462645    2.929294
     13          6           0        2.617716   -1.593357    3.474717
     14          1           0        2.529749   -0.927235    4.320138
     15          6           0        2.298067   -2.986475    1.723651
     16          6           0        3.594774   -2.403796    1.623050
     17          6           0        1.868747   -3.873691    0.724672
     18          1           0        0.874455   -4.311378    0.765166
     19          7           0        3.762113   -1.574799    2.716493
     20          1           0        4.409331   -0.798865    2.780532
     21          6           0        4.016941   -3.602911   -0.396702
     22          1           0        4.681920   -3.881133   -1.210415
     23          6           0        4.466983   -2.711914    0.575006
     24          1           0        5.470347   -2.295265    0.540375
     25          6           0        2.728921   -4.170980   -0.326885
     26          1           0        2.408847   -4.865567   -1.098898
     27          7           0       -0.621450   -0.566963    1.027026
     28          1           0       -0.009828    0.075114    1.595453
     29          6           0       -0.591614   -0.256339   -0.425541
     30          1           0       -1.053978    0.734907   -0.528318
     31          6           0        0.925354   -0.102121   -0.650334
     32          6           0       -1.316450   -1.224461   -1.373196
     33          1           0       -1.001617   -2.241158   -1.121517
     34          8           0        1.617669   -1.015677   -1.111171
     35          6           0       -0.915546   -0.962538   -2.847943
     36          1           0        0.115012   -1.297675   -2.997696
     37          1           0       -1.547898   -1.605829   -3.472416
     38          6           0       -2.839267   -1.116472   -1.190738
     39          1           0       -3.200627   -0.109035   -1.429366
     40          1           0       -3.347412   -1.818946   -1.859851
     41          1           0       -3.140086   -1.359601   -0.170143
     42          6           0       -1.046737    0.489263   -3.331093
     43          1           0       -0.822258    0.557086   -4.400931
     44          1           0       -0.348480    1.159557   -2.813971
     45          1           0       -2.057949    0.884254   -3.185512
     46          7           0        1.437284    1.045687   -0.138419
     47          1           0        0.751444    1.664933    0.282779
     48          6           0        2.666107    1.011858    0.667438
     49          1           0        3.066104   -0.000114    0.562079
     50          6           0        2.301792    1.136321    2.194185
     51          6           0        3.700698    2.029380    0.185621
     52          1           0        3.264046    3.034675    0.216259
     53          1           0        4.529386    2.027260    0.901206
     54          8           0        1.066661    1.018170    2.491131
     55          6           0        4.184073    1.729958   -1.242224
     56          1           0        4.751018    2.581138   -1.639949
     57          1           0        3.313827    1.591769   -1.896755
     58          6           0        5.061729    0.473342   -1.297890
     59          1           0        6.018470    0.648748   -0.794877
     60          1           0        4.593464   -0.373513   -0.792191
     61          7           0        5.369222    0.039335   -2.669790
     62          1           0        6.011537    0.614925   -3.199546
     63          7           0        3.601730   -1.469211   -2.897496
     64          1           0        3.309986   -2.368938   -3.252804
     65          1           0        3.039309   -1.121961   -2.101355
     66          7           0        5.232655   -1.320084   -4.533645
     67          1           0        6.200833   -1.158526   -4.768459
     68          1           0        4.682575   -1.872472   -5.174447
     69          6           0        4.719479   -0.914190   -3.349286
     70          8           0        3.272583    1.265491    2.954723
 ---------------------------------------------------------------------

 SCF Done:  E(RB3LYP) =  -1582.22879639     A.U. after    1 cycles

 Alpha  occ. eigenvalues --  -19.23087 -19.22554 -19.15991 -19.14660 -14.58644
 Alpha  occ. eigenvalues --  -14.50934 -14.50920 -14.49036 -14.46080 -14.44763
 Alpha  occ. eigenvalues --  -14.44501 -10.46856 -10.40217 -10.38679 -10.37123
 Alpha  occ. eigenvalues --  -10.33870 -10.33504 -10.33033 -10.31118 -10.29534
 Alpha  occ. eigenvalues --  -10.29437 -10.29237 -10.28342 -10.27282 -10.26878
 Alpha  occ. eigenvalues --  -10.26546 -10.26520 -10.26380 -10.26338 -10.26266
 Alpha  occ. eigenvalues --  -10.25915 -10.25749 -10.25178 -10.24576  -1.15778
 Alpha  occ. eigenvalues --   -1.15250  -1.13837  -1.11726  -1.08551  -1.05281
 Alpha  occ. eigenvalues --   -1.04735  -1.03512  -1.02936  -1.01113  -0.99704
 Alpha  occ. eigenvalues --   -0.91924  -0.91255  -0.89790  -0.89162  -0.85528
 Alpha  occ. eigenvalues --   -0.84006  -0.82057  -0.81143  -0.79991  -0.79523
 Alpha  occ. eigenvalues --   -0.77891  -0.76669  -0.75176  -0.72543  -0.71985
 Alpha  occ. eigenvalues --   -0.71808  -0.71437  -0.69980  -0.69798  -0.68617
 Alpha  occ. eigenvalues --   -0.68161  -0.67158  -0.66891  -0.64508  -0.64455
 Alpha  occ. eigenvalues --   -0.63286  -0.63264  -0.62755  -0.61292  -0.60630
 Alpha  occ. eigenvalues --   -0.59524  -0.59132  -0.58989  -0.58107  -0.56385
 Alpha  occ. eigenvalues --   -0.56126  -0.55807  -0.54910  -0.54199  -0.53875
 Alpha  occ. eigenvalues --   -0.53450  -0.52574  -0.51983  -0.51493  -0.51274
 Alpha  occ. eigenvalues --   -0.50965  -0.50774  -0.49880  -0.49349  -0.49118
 Alpha  occ. eigenvalues --   -0.48567  -0.48399  -0.48279  -0.47575  -0.47028
 Alpha  occ. eigenvalues --   -0.46180  -0.45990  -0.45790  -0.45488  -0.44977
 Alpha  occ. eigenvalues --   -0.44677  -0.43872  -0.43264  -0.43127  -0.41824
 Alpha  occ. eigenvalues --   -0.41646  -0.41243  -0.41155  -0.40497  -0.40236
 Alpha  occ. eigenvalues --   -0.39899  -0.38972  -0.38128  -0.36995  -0.36108
 Alpha  occ. eigenvalues --   -0.35419  -0.34230  -0.31356  -0.30626  -0.29706
 Alpha  occ. eigenvalues --   -0.28601  -0.27924
 Alpha virt. eigenvalues --   -0.11280  -0.10860  -0.09220  -0.09038  -0.07416
 Alpha virt. eigenvalues --   -0.07091  -0.05413  -0.04738  -0.03275  -0.02914
 Alpha virt. eigenvalues --   -0.02545  -0.01398  -0.00498  -0.00123   0.00491

 Mulliken charges:
               1
     1  N   -0.743915
     2  H    0.416353
     3  H    0.418686
     4  H    0.408926
     5  C   -0.127671
     6  H    0.241549
     7  C    0.656001
     8  C   -0.379095
     9  H    0.166505
    10  H    0.180691
    11  O   -0.564102
    12  C    0.051769
    13  C    0.015083
    14  H    0.188347
    15  C    0.097030
    16  C    0.293869
    17  C   -0.201875
    18  H    0.138693
    19  N   -0.660636
    20  H    0.353576
    21  C   -0.161095
    22  H    0.111481
    23  C   -0.185440
    24  H    0.130703
    25  C   -0.139256
    26  H    0.124239
    27  N   -0.659035
    28  H    0.418676
    29  C   -0.045532
    30  H    0.167574
    31  C    0.601710
    32  C   -0.075071
    33  H    0.166366
    34  O   -0.545654
    35  C   -0.272602
    36  H    0.140700
    37  H    0.143719
    38  C   -0.460439
    39  H    0.142213
    40  H    0.157339
    41  H    0.156029
    42  C   -0.462952
    43  H    0.154897
    44  H    0.136556
    45  H    0.159624
    46  N   -0.558998
    47  H    0.337493
    48  C   -0.131537
    49  H    0.179550
    50  C    0.639573
    51  C   -0.260003
    52  H    0.155682
    53  H    0.173255
    54  O   -0.632886
    55  C   -0.271172
    56  H    0.149607
    57  H    0.156933
    58  C   -0.188471
    59  H    0.184568
    60  H    0.198372
    61  N   -0.596644
    62  H    0.357270
    63  N   -0.780983
    64  H    0.364756
    65  H    0.448301
    66  N   -0.770031
    67  H    0.376194
    68  H    0.377287
    69  C    0.810554
    70  O   -0.573205
 Sum of Mulliken charges =   1.00000

 Dipole moment (field-independent basis, Debye):
    X=              8.1814    Y=             -7.3845    Z=             -4.5004  Tot=             11.9046
 Quadrupole moment (field-independent basis, Debye-Ang):
   XX=            -96.7470   YY=           -186.9826   ZZ=           -108.2920
   XY=             -0.9080   XZ=            -94.7236   YZ=            -16.0221

 Normal termination of Gaussian 16 at Fri Jun  3 03:56:54 2022.
