 Gaussian 16, Revision C.01,
 Gaussian 16:  ES64L-G16RevC.01  3-Jul-2019

 ----------------------------------------------------------------------
 # B3LYP/6-31G* empiricaldispersion=gd3 guess=read geom=check nosymm in
 tegral(ultrafinegrid)
 ----------------------------------------------------------------------

 ------------------------------------------------------
 Candidate Structure: Conf:204 Charge calc in gas phase
 ------------------------------------------------------
 Structure from the checkpoint file:  "conf-204.chk"
 Charge =  1 Multiplicity = 1

                          Input orientation:
 ---------------------------------------------------------------------
 Center     Atomic      Atomic             Coordinates (Angstroms)
 Number     Number       Type             X           Y           Z
 ---------------------------------------------------------------------
      1          7           0       -1.804113   -2.122039    3.151761
      2          1           0       -2.565050   -1.605546    3.600259
      3          1           0       -2.218320   -2.844506    2.513700
      4          1           0       -1.194053   -2.534910    3.875079
      5          6           0       -0.978003   -1.277879    2.208707
      6          1           0       -0.950192   -0.254129    2.581351
      7          6           0       -1.702065   -1.433520    0.852146
      8          6           0        0.443700   -1.887708    2.169025
      9          1           0        0.377214   -2.899180    1.750080
     10          1           0        1.047117   -1.291306    1.483783
     11          8           0       -2.313756   -2.494408    0.673946
     12          6           0        1.057639   -1.903054    3.536048
     13          6           0        1.353412   -3.008511    4.305569
     14          1           0        1.272792   -4.059233    4.058952
     15          6           0        1.417903   -0.746303    4.323385
     16          6           0        1.933693   -1.227603    5.557701
     17          6           0        1.349389    0.640634    4.096513
     18          1           0        1.002462    1.023436    3.139328
     19          7           0        1.882680   -2.607231    5.514604
     20          1           0        2.222605   -3.227515    6.234149
     21          6           0        2.294043    0.999466    6.323209
     22          1           0        2.619378    1.695795    7.090852
     23          6           0        2.380299   -0.367001    6.566330
     24          1           0        2.774423   -0.749229    7.503472
     25          6           0        1.784004    1.497280    5.103704
     26          1           0        1.718864    2.572472    4.954950
     27          7           0       -1.580332   -0.378543    0.036665
     28          1           0       -0.930480    0.338474    0.390523
     29          6           0       -1.624223   -0.367363   -1.451769
     30          1           0       -2.033611    0.612191   -1.725480
     31          6           0       -0.114851   -0.427983   -1.777832
     32          6           0       -2.457503   -1.462218   -2.127207
     33          1           0       -2.099478   -2.425752   -1.755873
     34          8           0        0.492998   -1.487286   -1.780784
     35          6           0       -2.215132   -1.447935   -3.656696
     36          1           0       -1.188029   -1.777225   -3.850405
     37          1           0       -2.869228   -2.212391   -4.093952
     38          6           0       -3.943760   -1.316352   -1.771903
     39          1           0       -4.342405   -0.343822   -2.084391
     40          1           0       -4.528486   -2.093095   -2.276115
     41          1           0       -4.106482   -1.425057   -0.696496
     42          6           0       -2.459717   -0.108820   -4.366762
     43          1           0       -2.358069   -0.229791   -5.450201
     44          1           0       -1.732281    0.653820   -4.062187
     45          1           0       -3.464103    0.284543   -4.173621
     46          7           0        0.499879    0.801073   -1.872337
     47          1           0       -0.092471    1.586724   -1.626149
     48          6           0        1.852278    0.917294   -1.316054
     49          1           0        2.437614    0.089566   -1.719896
     50          6           0        1.764066    0.732472    0.228902
     51          6           0        2.467424    2.272257   -1.748250
     52          1           0        2.067572    2.468825   -2.748735
     53          1           0        2.081961    3.073002   -1.101200
     54          8           0        2.775526    0.212360    0.792483
     55          6           0        4.012349    2.357189   -1.846694
     56          1           0        4.267977    2.993111   -2.701418
     57          1           0        4.431688    1.368838   -2.074425
     58          6           0        4.757192    2.954011   -0.644003
     59          1           0        5.813397    3.093742   -0.909453
     60          1           0        4.339655    3.939362   -0.397618
     61          7           0        4.646329    2.072768    0.519907
     62          1           0        4.151023    1.175763    0.378437
     63          7           0        5.172075    3.663232    2.141429
     64          1           0        5.233320    3.918515    3.116386
     65          1           0        5.847309    4.099028    1.529693
     66          7           0        4.100613    1.658138    2.709079
     67          1           0        3.455149    0.935419    2.355145
     68          1           0        4.051440    1.903903    3.687183
     69          6           0        4.644957    2.465212    1.793668
     70          8           0        0.707113    1.093271    0.809517
 ---------------------------------------------------------------------

 SCF Done:  E(RB3LYP) =  -1582.25071302     A.U. after    2 cycles

 Alpha  occ. eigenvalues --  -19.23423 -19.19786 -19.19356 -19.19188 -14.57289
 Alpha  occ. eigenvalues --  -14.49429 -14.48164 -14.46812 -14.46762 -14.46132
 Alpha  occ. eigenvalues --  -14.43601 -10.44308 -10.40296 -10.37116 -10.36742
 Alpha  occ. eigenvalues --  -10.36563 -10.33359 -10.32733 -10.31938 -10.31839
 Alpha  occ. eigenvalues --  -10.30567 -10.30412 -10.29148 -10.28979 -10.28560
 Alpha  occ. eigenvalues --  -10.28413 -10.28274 -10.28234 -10.27846 -10.27789
 Alpha  occ. eigenvalues --  -10.25814 -10.24110 -10.23530 -10.23487  -1.15816
 Alpha  occ. eigenvalues --   -1.13265  -1.12467  -1.11516  -1.11084  -1.08090
 Alpha  occ. eigenvalues --   -1.03981  -1.02892  -1.02162  -1.01044  -1.00157
 Alpha  occ. eigenvalues --   -0.93690  -0.91816  -0.89253  -0.88572  -0.86557
 Alpha  occ. eigenvalues --   -0.83622  -0.83299  -0.82303  -0.80528  -0.78210
 Alpha  occ. eigenvalues --   -0.77272  -0.75845  -0.74573  -0.72100  -0.71354
 Alpha  occ. eigenvalues --   -0.70824  -0.70671  -0.70487  -0.69045  -0.68978
 Alpha  occ. eigenvalues --   -0.67620  -0.67079  -0.66357  -0.65874  -0.63745
 Alpha  occ. eigenvalues --   -0.62922  -0.62403  -0.61579  -0.61172  -0.60394
 Alpha  occ. eigenvalues --   -0.59518  -0.58920  -0.58442  -0.57747  -0.57260
 Alpha  occ. eigenvalues --   -0.56825  -0.56496  -0.54702  -0.54341  -0.53323
 Alpha  occ. eigenvalues --   -0.53202  -0.52514  -0.52398  -0.52319  -0.51998
 Alpha  occ. eigenvalues --   -0.51742  -0.51353  -0.50657  -0.50490  -0.49684
 Alpha  occ. eigenvalues --   -0.49411  -0.48665  -0.48355  -0.47589  -0.47421
 Alpha  occ. eigenvalues --   -0.47027  -0.46800  -0.45638  -0.45099  -0.44906
 Alpha  occ. eigenvalues --   -0.44530  -0.44007  -0.43853  -0.43362  -0.42961
 Alpha  occ. eigenvalues --   -0.42877  -0.42018  -0.40137  -0.39612  -0.38963
 Alpha  occ. eigenvalues --   -0.38449  -0.38004  -0.37551  -0.36925  -0.36336
 Alpha  occ. eigenvalues --   -0.36279  -0.34838  -0.33247  -0.32703  -0.32412
 Alpha  occ. eigenvalues --   -0.31643  -0.30655
 Alpha virt. eigenvalues --   -0.11439  -0.10436  -0.08819  -0.08019  -0.07508
 Alpha virt. eigenvalues --   -0.05992  -0.05286  -0.04622  -0.03941  -0.01896
 Alpha virt. eigenvalues --   -0.01232  -0.01145  -0.00634   0.00672   0.00763

 Mulliken charges:
               1
     1  N   -0.739732
     2  H    0.409124
     3  H    0.417476
     4  H    0.389632
     5  C   -0.130626
     6  H    0.215688
     7  C    0.656036
     8  C   -0.378912
     9  H    0.179498
    10  H    0.251185
    11  O   -0.541130
    12  C    0.011682
    13  C   -0.014324
    14  H    0.178375
    15  C    0.071664
    16  C    0.316088
    17  C   -0.243440
    18  H    0.191976
    19  N   -0.680783
    20  H    0.347356
    21  C   -0.153396
    22  H    0.146457
    23  C   -0.158632
    24  H    0.149394
    25  C   -0.185550
    26  H    0.135037
    27  N   -0.632935
    28  H    0.395356
    29  C   -0.058958
    30  H    0.154969
    31  C    0.602107
    32  C   -0.077241
    33  H    0.175102
    34  O   -0.506964
    35  C   -0.281257
    36  H    0.165053
    37  H    0.146976
    38  C   -0.459470
    39  H    0.140930
    40  H    0.158030
    41  H    0.152858
    42  C   -0.460663
    43  H    0.161885
    44  H    0.135141
    45  H    0.151610
    46  N   -0.581771
    47  H    0.325662
    48  C   -0.048817
    49  H    0.194219
    50  C    0.623944
    51  C   -0.303668
    52  H    0.178732
    53  H    0.149501
    54  O   -0.621027
    55  C   -0.308649
    56  H    0.173446
    57  H    0.174482
    58  C   -0.148298
    59  H    0.171851
    60  H    0.169308
    61  N   -0.612708
    62  H    0.403233
    63  N   -0.754271
    64  H    0.366915
    65  H    0.375649
    66  N   -0.783978
    67  H    0.423481
    68  H    0.353402
    69  C    0.776490
    70  O   -0.599803
 Sum of Mulliken charges =   1.00000

 Dipole moment (field-independent basis, Debye):
    X=              8.1360    Y=              3.9139    Z=             15.0137  Tot=             17.5192
 Quadrupole moment (field-independent basis, Debye-Ang):
   XX=           -122.3024   YY=           -147.7017   ZZ=           -110.9810
   XY=             49.3233   XZ=             20.5380   YZ=            -25.2466

 Normal termination of Gaussian 16 at Fri Jun  3 03:57:02 2022.
