 Gaussian 16, Revision C.01,
 Gaussian 16:  ES64L-G16RevC.01  3-Jul-2019

 ----------------------------------------------------------------------
 # B3LYP/6-31G* empiricaldispersion=gd3 guess=read geom=check nosymm in
 tegral(ultrafinegrid)
 ----------------------------------------------------------------------

 ------------------------------------------------------
 Candidate Structure: Conf:353 Charge calc in gas phase
 ------------------------------------------------------
 Structure from the checkpoint file:  "conf-353.chk"
 Charge =  1 Multiplicity = 1

                          Input orientation:
 ---------------------------------------------------------------------
 Center     Atomic      Atomic             Coordinates (Angstroms)
 Number     Number       Type             X           Y           Z
 ---------------------------------------------------------------------
      1          7           0        1.102813   -2.584572    2.840352
      2          1           0        1.642217   -3.053789    2.106294
      3          1           0        1.494812   -1.552645    2.949283
      4          1           0        1.166083   -3.083129    3.732497
      5          6           0       -0.320318   -2.441830    2.383169
      6          1           0       -0.722514   -3.450775    2.238565
      7          6           0       -0.183517   -1.779553    0.994899
      8          6           0       -1.142054   -1.707578    3.460351
      9          1           0       -0.754996   -0.687214    3.556078
     10          1           0       -2.178821   -1.650275    3.105378
     11          8           0        0.745081   -2.131187    0.270230
     12          6           0       -1.106518   -2.410753    4.787352
     13          6           0       -2.004413   -3.348782    5.240810
     14          1           0       -2.909904   -3.717199    4.777242
     15          6           0       -0.088791   -2.282735    5.807793
     16          6           0       -0.439651   -3.182236    6.852501
     17          6           0        1.073862   -1.494595    5.941656
     18          1           0        1.366666   -0.789618    5.166706
     19          7           0       -1.608463   -3.814330    6.475069
     20          1           0       -2.116505   -4.481859    7.035057
     21          6           0        1.475397   -2.539213    8.113186
     22          1           0        2.098746   -2.622898    8.998653
     23          6           0        0.331375   -3.321265    8.011109
     24          1           0        0.046891   -4.013178    8.798882
     25          6           0        1.840719   -1.637425    7.091165
     26          1           0        2.739469   -1.038796    7.207426
     27          7           0       -1.062468   -0.810023    0.657608
     28          1           0       -1.812324   -0.578116    1.291358
     29          6           0       -0.895296   -0.006461   -0.568494
     30          1           0       -1.586664    0.837693   -0.447065
     31          6           0        0.559812    0.562108   -0.601231
     32          6           0       -1.251117   -0.750229   -1.878941
     33          1           0       -0.370469   -1.335534   -2.162901
     34          8           0        1.213996    0.627360   -1.631401
     35          6           0       -1.531630    0.283918   -2.991717
     36          1           0       -2.502411    0.763752   -2.790650
     37          1           0       -0.768985    1.066830   -2.947398
     38          6           0       -2.441346   -1.697708   -1.679636
     39          1           0       -3.325681   -1.156615   -1.316216
     40          1           0       -2.713927   -2.176787   -2.624125
     41          1           0       -2.212765   -2.494349   -0.965199
     42          6           0       -1.529168   -0.313817   -4.402387
     43          1           0       -1.706401    0.463382   -5.153903
     44          1           0       -2.304109   -1.076914   -4.532579
     45          1           0       -0.559969   -0.776342   -4.621644
     46          7           0        1.031374    0.986510    0.611753
     47          1           0        0.489278    0.701043    1.421335
     48          6           0        2.462107    0.857947    0.916451
     49          1           0        2.838734   -0.025656    0.380310
     50          6           0        2.610548    0.548462    2.438478
     51          6           0        3.299387    2.054895    0.465555
     52          1           0        4.344335    1.828943    0.702276
     53          1           0        3.202221    2.148727   -0.622447
     54          8           0        3.632329    0.903884    3.016983
     55          6           0        2.895239    3.358082    1.158168
     56          1           0        2.981103    3.229671    2.242313
     57          1           0        1.840255    3.578179    0.939797
     58          6           0        3.795575    4.511030    0.713646
     59          1           0        4.832379    4.320301    1.002429
     60          1           0        3.792471    4.640086   -0.374731
     61          7           0        3.430430    5.811130    1.319083
     62          1           0        3.814992    6.016145    2.233132
     63          7           0        1.680584    6.258882   -0.144835
     64          1           0        1.169282    6.943758   -0.682826
     65          1           0        1.614384    5.292327   -0.431418
     66          7           0        2.341848    7.859796    1.388664
     67          1           0        3.050961    8.260505    1.986040
     68          1           0        1.489956    8.387047    1.260773
     69          6           0        2.486842    6.629106    0.861448
     70          8           0        1.597660   -0.087401    2.952269
 ---------------------------------------------------------------------

 SCF Done:  E(RB3LYP) =  -1582.22818472     A.U. after    3 cycles

 Alpha  occ. eigenvalues --  -19.21446 -19.18548 -19.16978 -19.15584 -14.53379
 Alpha  occ. eigenvalues --  -14.53350 -14.53210 -14.50640 -14.46143 -14.45375
 Alpha  occ. eigenvalues --  -14.41261 -10.49663 -10.38833 -10.35498 -10.35415
 Alpha  occ. eigenvalues --  -10.34829 -10.34073 -10.31518 -10.29709 -10.29374
 Alpha  occ. eigenvalues --  -10.28825 -10.28522 -10.28442 -10.26306 -10.25802
 Alpha  occ. eigenvalues --  -10.25587 -10.25387 -10.25382 -10.24774 -10.24560
 Alpha  occ. eigenvalues --  -10.24233 -10.23873 -10.23745 -10.22576  -1.18047
 Alpha  occ. eigenvalues --   -1.13926  -1.10312  -1.09354  -1.07100  -1.06275
 Alpha  occ. eigenvalues --   -1.06170  -1.05205  -1.02385  -1.00926  -0.97892
 Alpha  occ. eigenvalues --   -0.90516  -0.90188  -0.89382  -0.87521  -0.84411
 Alpha  occ. eigenvalues --   -0.83914  -0.80815  -0.80047  -0.79758  -0.78595
 Alpha  occ. eigenvalues --   -0.77384  -0.75828  -0.75536  -0.75042  -0.71672
 Alpha  occ. eigenvalues --   -0.70062  -0.69629  -0.68916  -0.67937  -0.66948
 Alpha  occ. eigenvalues --   -0.66529  -0.66461  -0.66122  -0.65300  -0.63575
 Alpha  occ. eigenvalues --   -0.63313  -0.62579  -0.61111  -0.60564  -0.60265
 Alpha  occ. eigenvalues --   -0.59724  -0.58766  -0.57645  -0.56827  -0.55332
 Alpha  occ. eigenvalues --   -0.54997  -0.54524  -0.53830  -0.53601  -0.52748
 Alpha  occ. eigenvalues --   -0.52450  -0.51265  -0.51074  -0.50902  -0.50010
 Alpha  occ. eigenvalues --   -0.49788  -0.49231  -0.48832  -0.48460  -0.48037
 Alpha  occ. eigenvalues --   -0.47678  -0.47366  -0.47059  -0.46772  -0.46286
 Alpha  occ. eigenvalues --   -0.45552  -0.44887  -0.44682  -0.44534  -0.43910
 Alpha  occ. eigenvalues --   -0.43733  -0.43071  -0.42475  -0.42253  -0.41727
 Alpha  occ. eigenvalues --   -0.41415  -0.40484  -0.40072  -0.39937  -0.39922
 Alpha  occ. eigenvalues --   -0.38527  -0.38159  -0.35880  -0.35585  -0.34282
 Alpha  occ. eigenvalues --   -0.32669  -0.32632  -0.31577  -0.31212  -0.29195
 Alpha  occ. eigenvalues --   -0.29086  -0.27458
 Alpha virt. eigenvalues --   -0.13708  -0.09484  -0.08416  -0.07848  -0.05816
 Alpha virt. eigenvalues --   -0.05473  -0.05047  -0.04311  -0.04075  -0.02542
 Alpha virt. eigenvalues --   -0.02367  -0.00683  -0.00264  -0.00069   0.01100

 Mulliken charges:
               1
     1  N   -0.769021
     2  H    0.397429
     3  H    0.457274
     4  H    0.395268
     5  C   -0.094222
     6  H    0.201186
     7  C    0.651850
     8  C   -0.389743
     9  H    0.204499
    10  H    0.156985
    11  O   -0.526300
    12  C    0.025017
    13  C    0.009348
    14  H    0.159810
    15  C    0.037253
    16  C    0.316735
    17  C   -0.252637
    18  H    0.187847
    19  N   -0.683431
    20  H    0.340999
    21  C   -0.147917
    22  H    0.141443
    23  C   -0.160548
    24  H    0.138873
    25  C   -0.145885
    26  H    0.143037
    27  N   -0.638724
    28  H    0.347561
    29  C   -0.049616
    30  H    0.154976
    31  C    0.603052
    32  C   -0.061122
    33  H    0.173207
    34  O   -0.509361
    35  C   -0.264624
    36  H    0.116677
    37  H    0.154874
    38  C   -0.457433
    39  H    0.128373
    40  H    0.166013
    41  H    0.139624
    42  C   -0.452241
    43  H    0.147035
    44  H    0.147922
    45  H    0.159902
    46  N   -0.614484
    47  H    0.339078
    48  C   -0.060841
    49  H    0.179732
    50  C    0.576126
    51  C   -0.255082
    52  H    0.165901
    53  H    0.156889
    54  O   -0.515058
    55  C   -0.284778
    56  H    0.186570
    57  H    0.133009
    58  C   -0.188464
    59  H    0.205776
    60  H    0.182364
    61  N   -0.583280
    62  H    0.371075
    63  N   -0.756026
    64  H    0.384907
    65  H    0.401802
    66  N   -0.762839
    67  H    0.386367
    68  H    0.385083
    69  C    0.823507
    70  O   -0.658575
 Sum of Mulliken charges =   1.00000

 Dipole moment (field-independent basis, Debye):
    X=              1.9876    Y=             18.2581    Z=              9.6210  Tot=             20.7334
 Quadrupole moment (field-independent basis, Debye-Ang):
   XX=           -168.9295   YY=             27.3333   ZZ=           -160.1176
   XY=             68.5355   XZ=             -3.9369   YZ=            -16.2202

 Normal termination of Gaussian 16 at Fri Jun  3 03:57:09 2022.
