 Gaussian 16, Revision C.01,
 Gaussian 16:  ES64L-G16RevC.01  3-Jul-2019

 ----------------------------------------------------------------------
 # B3LYP/6-31G* empiricaldispersion=gd3 guess=read geom=check nosymm in
 tegral(ultrafinegrid)
 ----------------------------------------------------------------------

 ------------------------------------------------------
 Candidate Structure: Conf:883 Charge calc in gas phase
 ------------------------------------------------------
 Structure from the checkpoint file:  "conf-883.chk"
 Charge =  1 Multiplicity = 1

                          Input orientation:
 ---------------------------------------------------------------------
 Center     Atomic      Atomic             Coordinates (Angstroms)
 Number     Number       Type             X           Y           Z
 ---------------------------------------------------------------------
      1          7           0       -1.768078   -2.541876    3.183189
      2          1           0       -2.656944   -2.036817    3.263907
      3          1           0       -1.846560   -3.217099    2.390339
      4          1           0       -1.582757   -3.032074    4.063776
      5          6           0       -0.615892   -1.636802    2.747481
      6          1           0       -0.695521   -0.690653    3.285840
      7          6           0       -0.887292   -1.521961    1.222855
      8          6           0        0.690796   -2.394912    3.055365
      9          1           0        0.631977   -2.776324    4.088382
     10          1           0        0.726827   -3.269115    2.394784
     11          8           0       -1.147726   -2.596408    0.660525
     12          6           0        1.921891   -1.558371    2.878719
     13          6           0        2.125246   -0.296796    3.386639
     14          1           0        1.452456    0.376873    3.896150
     15          6           0        3.143545   -1.932041    2.211881
     16          6           0        4.038000   -0.825797    2.352242
     17          6           0        3.589277   -3.079242    1.537310
     18          1           0        2.942752   -3.946732    1.431148
     19          7           0        3.392455    0.136943    3.089859
     20          1           0        3.598793    1.135496    3.112632
     21          6           0        5.746040   -1.992752    1.149448
     22          1           0        6.753905   -2.047855    0.748348
     23          6           0        5.332429   -0.838442    1.816409
     24          1           0        6.008613   -0.000617    1.968045
     25          6           0        4.882916   -3.103910    1.015887
     26          1           0        5.244189   -3.998736    0.516610
     27          7           0       -0.918646   -0.284089    0.729581
     28          1           0       -0.513889    0.480542    1.325750
     29          6           0       -0.873300    0.100634   -0.707731
     30          1           0       -1.420469    1.050323   -0.765419
     31          6           0        0.640306    0.354600   -0.844027
     32          6           0       -1.497161   -0.865549   -1.723187
     33          1           0       -0.932294   -1.801888   -1.694522
     34          8           0        1.422740   -0.578724   -1.015324
     35          6           0       -1.435229   -0.279949   -3.154794
     36          1           0       -2.013541   -0.956335   -3.795660
     37          1           0       -1.973294    0.679044   -3.174584
     38          6           0       -2.967746   -1.143688   -1.370596
     39          1           0       -3.554942   -0.216535   -1.380100
     40          1           0       -3.409936   -1.823102   -2.106674
     41          1           0       -3.070271   -1.611578   -0.390117
     42          6           0       -0.047665   -0.095660   -3.784935
     43          1           0       -0.146985    0.128913   -4.852426
     44          1           0        0.549739   -1.008642   -3.677223
     45          1           0        0.510100    0.727419   -3.326266
     46          7           0        1.022378    1.634848   -0.565411
     47          1           0        0.241953    2.243573   -0.341868
     48          6           0        2.140614    1.883056    0.358827
     49          1           0        2.695450    0.943234    0.421314
     50          6           0        1.566051    2.138887    1.803586
     51          6           0        3.061769    3.015076   -0.106292
     52          1           0        2.478207    3.943739   -0.140888
     53          1           0        3.813847    3.167277    0.674192
     54          8           0        2.371535    2.627316    2.618560
     55          6           0        3.721742    2.809634   -1.475900
     56          1           0        4.137068    3.765619   -1.818616
     57          1           0        2.941414    2.547213   -2.203816
     58          6           0        4.891455    1.809320   -1.534707
     59          1           0        5.360822    1.837503   -2.525047
     60          1           0        5.656257    2.098974   -0.808838
     61          7           0        4.565071    0.405077   -1.236852
     62          1           0        4.790478    0.041164   -0.313876
     63          7           0        3.475969    0.004860   -3.247594
     64          1           0        2.993367   -0.658020   -3.838022
     65          1           0        3.170243    0.962900   -3.335065
     66          7           0        3.867158   -1.750637   -1.787418
     67          1           0        4.247929   -2.061751   -0.895458
     68          1           0        2.961456   -2.164711   -1.979055
     69          6           0        3.940544   -0.430223   -2.060227
     70          8           0        0.372600    1.760279    2.021221
 ---------------------------------------------------------------------

 SCF Done:  E(RB3LYP) =  -1582.23115679     A.U. after    1 cycles

 Alpha  occ. eigenvalues --  -19.24336 -19.22200 -19.16916 -19.15719 -14.60222
 Alpha  occ. eigenvalues --  -14.49711 -14.49428 -14.47540 -14.47218 -14.46038
 Alpha  occ. eigenvalues --  -14.44983 -10.45313 -10.41532 -10.39231 -10.38820
 Alpha  occ. eigenvalues --  -10.34477 -10.34289 -10.33650 -10.32837 -10.31731
 Alpha  occ. eigenvalues --  -10.30885 -10.30324 -10.29210 -10.29131 -10.28983
 Alpha  occ. eigenvalues --  -10.28833 -10.28663 -10.28354 -10.28316 -10.28274
 Alpha  occ. eigenvalues --  -10.27295 -10.27082 -10.26882 -10.25782  -1.17225
 Alpha  occ. eigenvalues --   -1.14322  -1.13757  -1.13125  -1.09645  -1.07029
 Alpha  occ. eigenvalues --   -1.04178  -1.03688  -1.01956  -1.01716  -1.00551
 Alpha  occ. eigenvalues --   -0.93937  -0.93118  -0.90589  -0.89483  -0.87368
 Alpha  occ. eigenvalues --   -0.84614  -0.83542  -0.82947  -0.81883  -0.80545
 Alpha  occ. eigenvalues --   -0.78653  -0.77547  -0.74981  -0.73581  -0.73003
 Alpha  occ. eigenvalues --   -0.72317  -0.72020  -0.71327  -0.69610  -0.69411
 Alpha  occ. eigenvalues --   -0.68801  -0.67771  -0.66190  -0.65663  -0.64865
 Alpha  occ. eigenvalues --   -0.64580  -0.63104  -0.62456  -0.62110  -0.61551
 Alpha  occ. eigenvalues --   -0.61249  -0.60185  -0.59375  -0.57812  -0.57672
 Alpha  occ. eigenvalues --   -0.57579  -0.56917  -0.55410  -0.55104  -0.54573
 Alpha  occ. eigenvalues --   -0.54023  -0.53245  -0.53064  -0.53022  -0.52496
 Alpha  occ. eigenvalues --   -0.51924  -0.51744  -0.51453  -0.50885  -0.50588
 Alpha  occ. eigenvalues --   -0.49988  -0.49785  -0.49312  -0.48912  -0.48470
 Alpha  occ. eigenvalues --   -0.47989  -0.47749  -0.46927  -0.45891  -0.45687
 Alpha  occ. eigenvalues --   -0.45431  -0.45020  -0.44279  -0.43886  -0.43633
 Alpha  occ. eigenvalues --   -0.42985  -0.42532  -0.42107  -0.41746  -0.41207
 Alpha  occ. eigenvalues --   -0.40506  -0.39005  -0.38346  -0.38158  -0.37657
 Alpha  occ. eigenvalues --   -0.36796  -0.34569  -0.32638  -0.32100  -0.31295
 Alpha  occ. eigenvalues --   -0.30092  -0.29457
 Alpha virt. eigenvalues --   -0.12533  -0.11669  -0.10725  -0.10429  -0.08133
 Alpha virt. eigenvalues --   -0.07779  -0.06394  -0.05216  -0.03932  -0.03110
 Alpha virt. eigenvalues --   -0.02627  -0.02025  -0.01335  -0.00680  -0.00397

 Mulliken charges:
               1
     1  N   -0.742499
     2  H    0.420131
     3  H    0.421142
     4  H    0.410084
     5  C   -0.120805
     6  H    0.227526
     7  C    0.650339
     8  C   -0.371618
     9  H    0.164975
    10  H    0.188385
    11  O   -0.549013
    12  C    0.064101
    13  C   -0.001918
    14  H    0.198538
    15  C    0.095366
    16  C    0.318787
    17  C   -0.208027
    18  H    0.140953
    19  N   -0.665797
    20  H    0.375503
    21  C   -0.165414
    22  H    0.156240
    23  C   -0.235988
    24  H    0.158617
    25  C   -0.197924
    26  H    0.153596
    27  N   -0.638715
    28  H    0.416030
    29  C   -0.048318
    30  H    0.158056
    31  C    0.601138
    32  C   -0.087916
    33  H    0.165794
    34  O   -0.558938
    35  C   -0.264984
    36  H    0.157149
    37  H    0.141634
    38  C   -0.451873
    39  H    0.145230
    40  H    0.161104
    41  H    0.142913
    42  C   -0.463031
    43  H    0.161841
    44  H    0.132714
    45  H    0.136989
    46  N   -0.565920
    47  H    0.335358
    48  C   -0.109690
    49  H    0.162662
    50  C    0.633261
    51  C   -0.261743
    52  H    0.158145
    53  H    0.170224
    54  O   -0.578131
    55  C   -0.290220
    56  H    0.173860
    57  H    0.141867
    58  C   -0.171702
    59  H    0.188532
    60  H    0.185125
    61  N   -0.598115
    62  H    0.376875
    63  N   -0.733746
    64  H    0.374397
    65  H    0.377163
    66  N   -0.754011
    67  H    0.382154
    68  H    0.370206
    69  C    0.772226
    70  O   -0.630877
 Sum of Mulliken charges =   1.00000

 Dipole moment (field-independent basis, Debye):
    X=              4.1434    Y=             -7.7484    Z=              0.8174  Tot=              8.8246
 Quadrupole moment (field-independent basis, Debye-Ang):
   XX=           -133.0360   YY=           -176.8893   ZZ=           -149.8973
   XY=             13.3218   XZ=            -37.7900   YZ=            -40.3419

 Normal termination of Gaussian 16 at Fri Jun  3 04:09:34 2022.
