 Gaussian 16, Revision C.01,
 Gaussian 16:  ES64L-G16RevC.01  3-Jul-2019

 ----------------------------------------------------------------------
 # B3LYP/6-31G* empiricaldispersion=gd3 guess=read geom=check nosymm in
 tegral(ultrafinegrid)
 ----------------------------------------------------------------------

 ------------------------------------------------------
 Candidate Structure: Conf:684 Charge calc in gas phase
 ------------------------------------------------------
 Structure from the checkpoint file:  "conf-684.chk"
 Charge =  1 Multiplicity = 1

                          Input orientation:
 ---------------------------------------------------------------------
 Center     Atomic      Atomic             Coordinates (Angstroms)
 Number     Number       Type             X           Y           Z
 ---------------------------------------------------------------------
      1          7           0       -2.726556   -3.223914    2.767086
      2          1           0       -3.587321   -2.886877    3.203885
      3          1           0       -2.967451   -3.769567    1.904247
      4          1           0       -2.182859   -3.781987    3.450547
      5          6           0       -1.856512   -2.115386    2.231572
      6          1           0       -1.994702   -1.212872    2.827018
      7          6           0       -2.292179   -1.979941    0.754822
      8          6           0       -0.379412   -2.584216    2.312010
      9          1           0       -0.225425   -3.382328    1.575464
     10          1           0        0.221865   -1.724131    2.010090
     11          8           0       -2.753482   -2.998541    0.214964
     12          6           0       -0.027486   -3.047625    3.690959
     13          6           0        0.085647   -4.358862    4.112839
     14          1           0        0.062357   -5.273284    3.533603
     15          6           0        0.171024   -2.216301    4.855049
     16          6           0        0.409383   -3.090007    5.948892
     17          6           0        0.191123   -0.823103    5.057485
     18          1           0        0.051705   -0.130852    4.231491
     19          7           0        0.346057   -4.386406    5.467213
     20          1           0        0.548851   -5.216400    6.002938
     21          6           0        0.660318   -1.238490    7.419647
     22          1           0        0.851273   -0.833004    8.409332
     23          6           0        0.652645   -2.616944    7.242796
     24          1           0        0.833602   -3.296681    8.070797
     25          6           0        0.437440   -0.355219    6.341336
     26          1           0        0.471935    0.715935    6.516345
     27          7           0       -2.084244   -0.763653    0.249991
     28          1           0       -1.591539   -0.123106    0.919437
     29          6           0       -1.863916   -0.358011   -1.160679
     30          1           0       -2.375390    0.606371   -1.277718
     31          6           0       -0.332925   -0.127839   -1.147868
     32          6           0       -2.366292   -1.314245   -2.248619
     33          1           0       -1.956636   -2.305396   -2.035978
     34          8           0        0.467279   -0.996773   -1.464656
     35          6           0       -1.831616   -0.887237   -3.638163
     36          1           0       -0.753935   -1.076360   -3.669335
     37          1           0       -2.287382   -1.553930   -4.381062
     38          6           0       -3.899809   -1.401677   -2.228731
     39          1           0       -4.362900   -0.422763   -2.403152
     40          1           0       -4.248441   -2.079821   -3.015377
     41          1           0       -4.261338   -1.788712   -1.273522
     42          6           0       -2.100933    0.570042   -4.040908
     43          1           0       -1.772508    0.748695   -5.070830
     44          1           0       -1.556571    1.276644   -3.401475
     45          1           0       -3.165661    0.823627   -3.988809
     46          7           0        0.032067    1.075771   -0.583768
     47          1           0       -0.751522    1.622053   -0.241181
     48          6           0        1.151970    1.110337    0.364082
     49          1           0        1.731583    0.198460    0.182081
     50          6           0        0.640276    1.026509    1.853042
     51          6           0        2.059710    2.320447    0.145544
     52          1           0        1.469866    3.243802    0.237590
     53          1           0        2.788202    2.324703    0.962075
     54          8           0        1.468848    1.304777    2.725199
     55          6           0        2.748820    2.276432   -1.220677
     56          1           0        1.990971    2.258275   -2.014010
     57          1           0        3.330278    1.347209   -1.304387
     58          6           0        3.678009    3.470545   -1.422393
     59          1           0        3.113193    4.409252   -1.374687
     60          1           0        4.448103    3.483690   -0.639842
     61          7           0        4.330903    3.389484   -2.747345
     62          1           0        4.247568    2.507042   -3.237638
     63          7           0        5.406200    5.437608   -2.604327
     64          1           0        5.762411    6.264438   -3.061924
     65          1           0        5.234512    5.494273   -1.610924
     66          7           0        5.465750    4.243771   -4.586811
     67          1           0        5.114587    3.511417   -5.187363
     68          1           0        6.225123    4.805990   -4.944121
     69          6           0        5.065482    4.345849   -3.305481
     70          8           0       -0.567507    0.632118    2.012666
 ---------------------------------------------------------------------

 SCF Done:  E(RB3LYP) =  -1582.20312031     A.U. after    1 cycles

 Alpha  occ. eigenvalues --  -19.20691 -19.18307 -19.13978 -19.12479 -14.54154
 Alpha  occ. eigenvalues --  -14.53797 -14.53671 -14.53473 -14.44679 -14.42914
 Alpha  occ. eigenvalues --  -14.41648 -10.50016 -10.37450 -10.36084 -10.35010
 Alpha  occ. eigenvalues --  -10.33800 -10.31307 -10.30055 -10.29431 -10.29154
 Alpha  occ. eigenvalues --  -10.27862 -10.27804 -10.27630 -10.25996 -10.25880
 Alpha  occ. eigenvalues --  -10.24588 -10.24216 -10.24192 -10.23698 -10.23325
 Alpha  occ. eigenvalues --  -10.23262 -10.22816 -10.22706 -10.22264  -1.18432
 Alpha  occ. eigenvalues --   -1.12889  -1.10064  -1.08163  -1.07483  -1.06677
 Alpha  occ. eigenvalues --   -1.06426  -1.04480  -1.00603  -0.98253  -0.97403
 Alpha  occ. eigenvalues --   -0.90806  -0.89519  -0.88478  -0.86952  -0.84064
 Alpha  occ. eigenvalues --   -0.83479  -0.80618  -0.79497  -0.78864  -0.77902
 Alpha  occ. eigenvalues --   -0.77293  -0.76327  -0.74713  -0.73635  -0.71854
 Alpha  occ. eigenvalues --   -0.69615  -0.68335  -0.68183  -0.67843  -0.67717
 Alpha  occ. eigenvalues --   -0.67086  -0.66004  -0.65432  -0.64983  -0.64405
 Alpha  occ. eigenvalues --   -0.62794  -0.62230  -0.60561  -0.60255  -0.59935
 Alpha  occ. eigenvalues --   -0.59371  -0.58042  -0.57351  -0.56564  -0.55786
 Alpha  occ. eigenvalues --   -0.54637  -0.54182  -0.52954  -0.52500  -0.51588
 Alpha  occ. eigenvalues --   -0.51207  -0.50785  -0.49852  -0.49328  -0.49177
 Alpha  occ. eigenvalues --   -0.48695  -0.48182  -0.47831  -0.47693  -0.47146
 Alpha  occ. eigenvalues --   -0.46808  -0.46723  -0.46180  -0.45620  -0.44829
 Alpha  occ. eigenvalues --   -0.44783  -0.44133  -0.43941  -0.43594  -0.43250
 Alpha  occ. eigenvalues --   -0.43075  -0.42914  -0.42592  -0.42159  -0.40967
 Alpha  occ. eigenvalues --   -0.40337  -0.39752  -0.38753  -0.38601  -0.38555
 Alpha  occ. eigenvalues --   -0.37852  -0.37448  -0.35410  -0.34467  -0.33370
 Alpha  occ. eigenvalues --   -0.33265  -0.30517  -0.28941  -0.28533  -0.28096
 Alpha  occ. eigenvalues --   -0.26710  -0.26156
 Alpha virt. eigenvalues --   -0.13711  -0.09777  -0.07915  -0.07063  -0.05910
 Alpha virt. eigenvalues --   -0.05042  -0.04944  -0.04412  -0.03545  -0.02818
 Alpha virt. eigenvalues --   -0.00774  -0.00498  -0.00305   0.01141   0.01479

 Mulliken charges:
               1
     1  N   -0.745635
     2  H    0.404278
     3  H    0.409560
     4  H    0.385701
     5  C   -0.120206
     6  H    0.235081
     7  C    0.639519
     8  C   -0.370529
     9  H    0.172800
    10  H    0.222358
    11  O   -0.559134
    12  C    0.002604
    13  C   -0.029538
    14  H    0.163715
    15  C    0.066027
    16  C    0.310204
    17  C   -0.204825
    18  H    0.210657
    19  N   -0.680715
    20  H    0.338319
    21  C   -0.144511
    22  H    0.136855
    23  C   -0.165885
    24  H    0.132405
    25  C   -0.155276
    26  H    0.141477
    27  N   -0.642908
    28  H    0.406941
    29  C   -0.052661
    30  H    0.151157
    31  C    0.583069
    32  C   -0.072526
    33  H    0.168305
    34  O   -0.513257
    35  C   -0.275647
    36  H    0.160438
    37  H    0.139459
    38  C   -0.460033
    39  H    0.135823
    40  H    0.150659
    41  H    0.162923
    42  C   -0.459171
    43  H    0.146578
    44  H    0.130535
    45  H    0.153730
    46  N   -0.579939
    47  H    0.324049
    48  C   -0.101940
    49  H    0.180117
    50  C    0.618486
    51  C   -0.265844
    52  H    0.135718
    53  H    0.183935
    54  O   -0.548532
    55  C   -0.314177
    56  H    0.173619
    57  H    0.162198
    58  C   -0.145314
    59  H    0.186299
    60  H    0.186623
    61  N   -0.607890
    62  H    0.370983
    63  N   -0.757254
    64  H    0.387305
    65  H    0.398488
    66  N   -0.764349
    67  H    0.387099
    68  H    0.386397
    69  C    0.840050
    70  O   -0.644846
 Sum of Mulliken charges =   1.00000

 Dipole moment (field-independent basis, Debye):
    X=             13.7443    Y=              9.0436    Z=             -8.1222  Tot=             18.3484
 Quadrupole moment (field-independent basis, Debye-Ang):
   XX=            -72.7175   YY=            -67.4791   ZZ=           -111.2875
   XY=            111.7077   XZ=            -94.4505   YZ=           -110.4496

 Normal termination of Gaussian 16 at Fri Jun  3 04:09:28 2022.
