 Gaussian 16, Revision C.01,
 Gaussian 16:  ES64L-G16RevC.01  3-Jul-2019

 ----------------------------------------------------------------------
 # B3LYP/6-31G* empiricaldispersion=gd3 guess=read geom=check nosymm in
 tegral(ultrafinegrid)
 ----------------------------------------------------------------------

 ------------------------------------------------------
 Candidate Structure: Conf:549 Charge calc in gas phase
 ------------------------------------------------------
 Structure from the checkpoint file:  "conf-549.chk"
 Charge =  1 Multiplicity = 1

                          Input orientation:
 ---------------------------------------------------------------------
 Center     Atomic      Atomic             Coordinates (Angstroms)
 Number     Number       Type             X           Y           Z
 ---------------------------------------------------------------------
      1          7           0       -1.618789   -2.939234    3.459961
      2          1           0       -2.309032   -2.264788    3.804970
      3          1           0       -2.028876   -3.445939    2.642295
      4          1           0       -1.382512   -3.591064    4.213825
      5          6           0       -0.390591   -2.263916    2.847030
      6          1           0       -0.099402   -1.404042    3.454594
      7          6           0       -0.934379   -1.885472    1.443738
      8          6           0        0.719654   -3.330139    2.782718
      9          1           0        0.864012   -3.729131    3.797760
     10          1           0        0.361673   -4.154902    2.153815
     11          8           0       -1.570643   -2.782294    0.863999
     12          6           0        2.016129   -2.798143    2.259950
     13          6           0        2.936673   -2.080585    2.981165
     14          1           0        2.887977   -1.707240    3.993686
     15          6           0        2.529384   -2.902846    0.915818
     16          6           0        3.789470   -2.241430    0.912790
     17          6           0        2.037900   -3.446707   -0.281255
     18          1           0        1.062702   -3.926023   -0.311071
     19          7           0        4.023752   -1.776963    2.196130
     20          1           0        4.584795   -0.961029    2.411018
     21          6           0        4.049943   -2.671822   -1.418472
     22          1           0        4.627406   -2.603803   -2.336999
     23          6           0        4.563632   -2.125600   -0.245323
     24          1           0        5.531751   -1.631456   -0.223148
     25          6           0        2.799790   -3.322019   -1.436337
     26          1           0        2.422668   -3.723858   -2.371992
     27          7           0       -0.727911   -0.619208    1.098201
     28          1           0       -0.072829   -0.090195    1.732854
     29          6           0       -0.946639    0.055400   -0.210870
     30          1           0       -1.405903    1.024640    0.033758
     31          6           0        0.514592    0.299352   -0.658999
     32          6           0       -1.853140   -0.655150   -1.224406
     33          1           0       -1.452884   -1.659134   -1.394487
     34          8           0        1.092637   -0.399049   -1.478752
     35          6           0       -1.819550    0.118597   -2.562152
     36          1           0       -2.168013    1.149004   -2.390771
     37          1           0       -0.782891    0.184241   -2.903833
     38          6           0       -3.287232   -0.757467   -0.680281
     39          1           0       -3.738696    0.239816   -0.591689
     40          1           0       -3.915801   -1.350253   -1.350356
     41          1           0       -3.317631   -1.241660    0.297474
     42          6           0       -2.660519   -0.525723   -3.670428
     43          1           0       -2.511867   -0.000894   -4.620611
     44          1           0       -3.732035   -0.500979   -3.448045
     45          1           0       -2.372555   -1.573566   -3.819546
     46          7           0        1.145163    1.263442    0.095979
     47          1           0        0.544808    1.719555    0.775874
     48          6           0        2.437122    0.928812    0.711607
     49          1           0        2.671427   -0.091956    0.393767
     50          6           0        2.285795    0.848786    2.273723
     51          6           0        3.570646    1.829868    0.227242
     52          1           0        3.309315    2.883143    0.396826
     53          1           0        4.455295    1.613471    0.834614
     54          8           0        3.337615    0.918977    2.929885
     55          6           0        3.837357    1.571371   -1.258882
     56          1           0        2.908195    1.729938   -1.821615
     57          1           0        4.113446    0.517988   -1.399123
     58          6           0        4.937011    2.464343   -1.823123
     59          1           0        4.663188    3.522825   -1.720885
     60          1           0        5.884208    2.293985   -1.297069
     61          7           0        5.137156    2.148994   -3.255121
     62          1           0        4.426434    1.569120   -3.685972
     63          7           0        6.977134    3.525212   -3.558276
     64          1           0        7.865497    3.693663   -4.008038
     65          1           0        6.803146    3.997875   -2.683249
     66          7           0        6.330716    2.081667   -5.248436
     67          1           0        5.795211    1.291654   -5.579383
     68          1           0        6.883924    2.578724   -5.932033
     69          6           0        6.135053    2.584620   -4.014285
     70          8           0        1.100191    0.644590    2.703642
 ---------------------------------------------------------------------

 SCF Done:  E(RB3LYP) =  -1582.19619414     A.U. after    1 cycles

 Alpha  occ. eigenvalues --  -19.21260 -19.18654 -19.14191 -19.12983 -14.57304
 Alpha  occ. eigenvalues --  -14.53457 -14.53328 -14.53056 -14.44195 -14.42889
 Alpha  occ. eigenvalues --  -14.41009 -10.49637 -10.38407 -10.35591 -10.35577
 Alpha  occ. eigenvalues --  -10.35137 -10.31755 -10.30660 -10.29616 -10.28111
 Alpha  occ. eigenvalues --  -10.27708 -10.27623 -10.27160 -10.25539 -10.25146
 Alpha  occ. eigenvalues --  -10.25046 -10.24839 -10.24602 -10.24566 -10.24314
 Alpha  occ. eigenvalues --  -10.23851 -10.23627 -10.23039 -10.22731  -1.18069
 Alpha  occ. eigenvalues --   -1.14101  -1.10446  -1.09999  -1.07094  -1.06695
 Alpha  occ. eigenvalues --   -1.06338  -1.03490  -1.01311  -0.98410  -0.97379
 Alpha  occ. eigenvalues --   -0.90330  -0.90103  -0.89409  -0.87387  -0.83985
 Alpha  occ. eigenvalues --   -0.83505  -0.80795  -0.79761  -0.79201  -0.78177
 Alpha  occ. eigenvalues --   -0.77077  -0.76178  -0.75232  -0.73957  -0.71521
 Alpha  occ. eigenvalues --   -0.70536  -0.70149  -0.69835  -0.67918  -0.67887
 Alpha  occ. eigenvalues --   -0.66676  -0.65643  -0.65326  -0.65004  -0.64209
 Alpha  occ. eigenvalues --   -0.62506  -0.61764  -0.61603  -0.61144  -0.59792
 Alpha  occ. eigenvalues --   -0.59523  -0.58646  -0.57888  -0.56976  -0.56402
 Alpha  occ. eigenvalues --   -0.54965  -0.54315  -0.53238  -0.53099  -0.51924
 Alpha  occ. eigenvalues --   -0.51683  -0.51087  -0.50598  -0.49797  -0.49547
 Alpha  occ. eigenvalues --   -0.49021  -0.48595  -0.48253  -0.47847  -0.47296
 Alpha  occ. eigenvalues --   -0.46841  -0.46348  -0.46106  -0.46006  -0.45560
 Alpha  occ. eigenvalues --   -0.44701  -0.44518  -0.44403  -0.43742  -0.43282
 Alpha  occ. eigenvalues --   -0.42987  -0.42569  -0.41756  -0.41601  -0.41396
 Alpha  occ. eigenvalues --   -0.41342  -0.40064  -0.39667  -0.39072  -0.38563
 Alpha  occ. eigenvalues --   -0.38335  -0.37947  -0.35766  -0.35087  -0.33653
 Alpha  occ. eigenvalues --   -0.32810  -0.30914  -0.29605  -0.28845  -0.27804
 Alpha  occ. eigenvalues --   -0.26871  -0.26265
 Alpha virt. eigenvalues --   -0.13366  -0.09449  -0.09197  -0.07566  -0.07102
 Alpha virt. eigenvalues --   -0.05585  -0.04888  -0.04589  -0.04057  -0.03598
 Alpha virt. eigenvalues --   -0.03461  -0.01073  -0.00326   0.00152   0.00816

 Mulliken charges:
               1
     1  N   -0.743654
     2  H    0.414395
     3  H    0.416839
     4  H    0.405340
     5  C   -0.125585
     6  H    0.239398
     7  C    0.651357
     8  C   -0.378493
     9  H    0.157804
    10  H    0.181934
    11  O   -0.565016
    12  C    0.060820
    13  C    0.008588
    14  H    0.174408
    15  C    0.095029
    16  C    0.268599
    17  C   -0.201716
    18  H    0.137813
    19  N   -0.649981
    20  H    0.354960
    21  C   -0.145122
    22  H    0.106321
    23  C   -0.177162
    24  H    0.115959
    25  C   -0.118664
    26  H    0.126866
    27  N   -0.653706
    28  H    0.414233
    29  C   -0.051277
    30  H    0.154468
    31  C    0.584280
    32  C   -0.069988
    33  H    0.167000
    34  O   -0.506862
    35  C   -0.271061
    36  H    0.121769
    37  H    0.158611
    38  C   -0.454222
    39  H    0.135054
    40  H    0.160487
    41  H    0.139481
    42  C   -0.452544
    43  H    0.144700
    44  H    0.152327
    45  H    0.149377
    46  N   -0.583060
    47  H    0.325209
    48  C   -0.115157
    49  H    0.198841
    50  C    0.627549
    51  C   -0.252130
    52  H    0.139216
    53  H    0.159777
    54  O   -0.582375
    55  C   -0.326254
    56  H    0.175345
    57  H    0.175439
    58  C   -0.145181
    59  H    0.181293
    60  H    0.182417
    61  N   -0.606222
    62  H    0.373996
    63  N   -0.757388
    64  H    0.386283
    65  H    0.397235
    66  N   -0.763868
    67  H    0.386647
    68  H    0.385219
    69  C    0.836819
    70  O   -0.632809
 Sum of Mulliken charges =   1.00000

 Dipole moment (field-independent basis, Debye):
    X=             16.6085    Y=              3.9640    Z=             -9.5018  Tot=             19.5407
 Quadrupole moment (field-independent basis, Debye-Ang):
   XX=            -32.8400   YY=           -149.1886   ZZ=            -93.3369
   XY=             83.7178   XZ=           -132.8106   YZ=            -80.0658

 Normal termination of Gaussian 16 at Fri Jun  3 03:56:55 2022.
