 Gaussian 16, Revision C.01,
 Gaussian 16:  ES64L-G16RevC.01  3-Jul-2019

 -------------------------------------------------------------------
 # B3LYP/6-31G* guess=read geom=check nosymm integral(ultrafinegrid)
 -------------------------------------------------------------------

 ------------------------------------------------------
 Candidate Structure: Conf:962 Charge calc in gas phase
 ------------------------------------------------------
 Structure from the checkpoint file:  "conf-962.chk"
 Charge =  1 Multiplicity = 1

                          Input orientation:
 ---------------------------------------------------------------------
 Center     Atomic      Atomic             Coordinates (Angstroms)
 Number     Number       Type             X           Y           Z
 ---------------------------------------------------------------------
      1          7           0       -1.984998    0.208246   -4.465126
      2          1           0       -3.005755    0.200418   -4.375481
      3          1           0       -1.620533    1.128580   -4.080668
      4          1           0       -1.742606    0.091952   -5.453216
      5          6           0       -1.303785   -0.795284   -3.549797
      6          1           0       -2.005153   -1.594975   -3.314260
      7          6           0       -0.965622    0.077874   -2.312831
      8          6           0       -0.051801   -1.335382   -4.276081
      9          1           0        0.544219   -0.479530   -4.616900
     10          1           0       -0.390693   -1.879697   -5.167803
     11          8           0       -0.883174    1.303223   -2.493376
     12          6           0        0.887283   -2.238205   -3.448324
     13          1           0        1.691373   -2.589679   -4.098506
     14          1           0        1.345713   -1.653090   -2.637617
     15          6           0        0.190966   -3.419248   -2.812474
     16          8           0       -0.804819   -3.327222   -2.104249
     17          8           0        0.780576   -4.585089   -3.077705
     18          7           0       -0.785982   -0.562641   -1.162690
     19          1           0       -0.831079   -1.582791   -1.190590
     20          6           0       -0.182519    0.080520    0.010226
     21          1           0       -0.772193    0.972960    0.246004
     22          6           0        1.259430    0.502757   -0.361542
     23          6           0       -0.259601   -0.918829    1.185774
     24          1           0        0.236747   -1.851218    0.882435
     25          1           0       -1.323434   -1.154947    1.314147
     26          8           0        1.942257   -0.177404   -1.128572
     27          6           0        0.333331   -0.435942    2.533556
     28          1           0        0.267120    0.660948    2.576407
     29          6           0       -0.492071   -0.989738    3.705869
     30          1           0       -0.497681   -2.087022    3.698073
     31          1           0       -0.071563   -0.667385    4.664198
     32          1           0       -1.532522   -0.647338    3.663014
     33          6           0        1.810768   -0.832462    2.688997
     34          1           0        1.905848   -1.921862    2.779368
     35          1           0        2.423195   -0.519261    1.837775
     36          1           0        2.238058   -0.382384    3.590768
     37          7           0        1.681758    1.650748    0.208907
     38          1           0        1.113062    2.096917    0.920379
     39          6           0        3.062419    2.118539    0.150331
     40          1           0        3.691081    1.275961   -0.152702
     41          6           0        3.441135    2.552225    1.563730
     42          6           0        3.269000    3.292221   -0.837023
     43          1           0        4.316817    3.603025   -0.770241
     44          1           0        2.659448    4.144120   -0.506248
     45          8           0        2.636702    2.747620    2.452004
     46          6           0        2.916075    2.932717   -2.285603
     47          1           0        3.523382    2.074983   -2.608046
     48          1           0        1.868140    2.609603   -2.347197
     49          6           0        3.120089    4.098108   -3.271649
     50          1           0        2.509146    4.953210   -2.968246
     51          1           0        2.765261    3.787341   -4.263184
     52          7           0        4.504746    4.554715   -3.404567
     53          1           0        5.170680    3.796933   -3.521919
     54          7           0        4.249987    6.627419   -2.353772
     55          1           0        4.706984    7.380767   -1.854122
     56          1           0        3.801345    6.960989   -3.200894
     57          7           0        6.202143    5.259331   -2.002918
     58          1           0        6.573272    6.084238   -1.527270
     59          6           0        5.060970    5.501207   -2.539782
     60          8           0        4.763631    2.727592    1.694754
     61          1           0        4.929308    3.048319    2.602342
     62          1           0        0.300175   -5.286067   -2.593296
 ---------------------------------------------------------------------

 SCF Done:  E(RB3LYP) =  -1447.38651269     A.U. after    2 cycles

 Alpha  occ. eigenvalues --  -19.32359 -19.28400 -19.27418 -19.27183 -19.23018
 Alpha  occ. eigenvalues --  -19.21943 -14.61183 -14.49608 -14.45988 -14.40886
 Alpha  occ. eigenvalues --  -14.40114 -14.34273 -10.45370 -10.43889 -10.41435
 Alpha  occ. eigenvalues --  -10.40976 -10.39137 -10.35802 -10.34921 -10.33791
 Alpha  occ. eigenvalues --  -10.32687 -10.32678 -10.29131 -10.28914 -10.27992
 Alpha  occ. eigenvalues --  -10.26751 -10.26131 -10.25107 -10.25085  -1.23561
 Alpha  occ. eigenvalues --   -1.19852  -1.19509  -1.14885  -1.14392  -1.13661
 Alpha  occ. eigenvalues --   -1.10606  -1.06507  -1.03245  -1.02529  -0.95593
 Alpha  occ. eigenvalues --   -0.94651  -0.91164  -0.90120  -0.88166  -0.87859
 Alpha  occ. eigenvalues --   -0.84832  -0.82078  -0.80490  -0.76134  -0.75734
 Alpha  occ. eigenvalues --   -0.74851  -0.74763  -0.74584  -0.73055  -0.71103
 Alpha  occ. eigenvalues --   -0.70429  -0.68041  -0.67539  -0.66131  -0.65707
 Alpha  occ. eigenvalues --   -0.65115  -0.64324  -0.62697  -0.62173  -0.60440
 Alpha  occ. eigenvalues --   -0.60311  -0.59685  -0.58549  -0.57941  -0.57339
 Alpha  occ. eigenvalues --   -0.57290  -0.56666  -0.56021  -0.55395  -0.54777
 Alpha  occ. eigenvalues --   -0.54263  -0.53687  -0.53057  -0.52949  -0.52439
 Alpha  occ. eigenvalues --   -0.52048  -0.51392  -0.51162  -0.50766  -0.50281
 Alpha  occ. eigenvalues --   -0.50166  -0.48855  -0.48395  -0.48182  -0.47791
 Alpha  occ. eigenvalues --   -0.46680  -0.46237  -0.45004  -0.44728  -0.44675
 Alpha  occ. eigenvalues --   -0.44506  -0.43906  -0.42384  -0.41780  -0.41383
 Alpha  occ. eigenvalues --   -0.41280  -0.41008  -0.40994  -0.40798  -0.40397
 Alpha  occ. eigenvalues --   -0.39892  -0.36826  -0.35629  -0.35344  -0.32237
 Alpha  occ. eigenvalues --   -0.31516  -0.28443
 Alpha virt. eigenvalues --   -0.13410  -0.12659  -0.11306  -0.08322  -0.07647
 Alpha virt. eigenvalues --   -0.07137  -0.04412  -0.03117  -0.02466  -0.01416
 Alpha virt. eigenvalues --   -0.01070  -0.00570  -0.00075   0.00489   0.00840

 Mulliken charges:
               1
     1  N   -0.754171
     2  H    0.419775
     3  H    0.431206
     4  H    0.413584
     5  C   -0.118339
     6  H    0.233687
     7  C    0.653509
     8  C   -0.305725
     9  H    0.191979
    10  H    0.182300
    11  O   -0.547806
    12  C   -0.403911
    13  H    0.208446
    14  H    0.266488
    15  C    0.605059
    16  O   -0.493080
    17  O   -0.527844
    18  N   -0.616217
    19  H    0.397294
    20  C   -0.059716
    21  H    0.181714
    22  C    0.646978
    23  C   -0.297714
    24  H    0.156484
    25  H    0.163290
    26  O   -0.545579
    27  C   -0.086872
    28  H    0.136484
    29  C   -0.451255
    30  H    0.150872
    31  H    0.164733
    32  H    0.147544
    33  C   -0.454512
    34  H    0.150082
    35  H    0.148261
    36  H    0.166673
    37  N   -0.589932
    38  H    0.358396
    39  C   -0.060522
    40  H    0.204484
    41  C    0.593190
    42  C   -0.277869
    43  H    0.207142
    44  H    0.149753
    45  O   -0.472080
    46  C   -0.274052
    47  H    0.142952
    48  H    0.141621
    49  C   -0.148298
    50  H    0.161195
    51  H    0.136932
    52  N   -0.566857
    53  H    0.326344
    54  N   -0.741789
    55  H    0.328046
    56  H    0.331061
    57  N   -0.636116
    58  H    0.269896
    59  C    0.548294
    60  O   -0.547448
    61  H    0.428100
    62  H    0.433856
 Sum of Mulliken charges =   1.00000

 Dipole moment (field-independent basis, Debye):
    X=             -4.6065    Y=              0.0675    Z=            -14.7221  Tot=             15.4261
 Quadrupole moment (field-independent basis, Debye-Ang):
   XX=           -156.3425   YY=           -114.8316   ZZ=            -83.0045
   XY=             15.5561   XZ=             37.9216   YZ=              5.0038

 Normal termination of Gaussian 16 at Thu May 26 19:18:22 2022.
