 Gaussian 16, Revision C.01,
 Gaussian 16:  ES64L-G16RevC.01  3-Jul-2019

 -------------------------------------------------------------------
 # B3LYP/6-31G* guess=read geom=check nosymm integral(ultrafinegrid)
 -------------------------------------------------------------------

 ------------------------------------------------------
 Candidate Structure: Conf:796 Charge calc in gas phase
 ------------------------------------------------------
 Structure from the checkpoint file:  "conf-796.chk"
 Charge =  1 Multiplicity = 1

                          Input orientation:
 ---------------------------------------------------------------------
 Center     Atomic      Atomic             Coordinates (Angstroms)
 Number     Number       Type             X           Y           Z
 ---------------------------------------------------------------------
      1          7           0       -2.918236   -1.086516   -3.774607
      2          1           0       -3.267179   -2.048072   -3.715071
      3          1           0       -3.417101   -0.503081   -3.047358
      4          1           0       -3.091598   -0.729240   -4.719091
      5          6           0       -1.463268   -0.945205   -3.354071
      6          1           0       -0.967797   -1.908155   -3.501276
      7          6           0       -1.593986   -0.555118   -1.856823
      8          6           0       -0.822997    0.174946   -4.193292
      9          1           0       -1.344081    1.116754   -3.985863
     10          1           0       -0.983975   -0.041422   -5.257003
     11          8           0       -2.664045   -0.039502   -1.501955
     12          6           0        0.678496    0.367702   -3.959764
     13          1           0        0.939752    0.433682   -2.900122
     14          1           0        1.256777   -0.472064   -4.365700
     15          6           0        1.158831    1.660639   -4.632178
     16          8           0        0.436019    2.304284   -5.373700
     17          8           0        2.395908    1.949513   -4.287800
     18          7           0       -0.535625   -0.775988   -1.079694
     19          1           0        0.340386   -1.114165   -1.479743
     20          6           0       -0.331227   -0.179901    0.246333
     21          1           0       -1.012525    0.669484    0.344515
     22          6           0        1.140744    0.291481    0.227333
     23          6           0       -0.550406   -1.191947    1.393690
     24          1           0       -0.234774   -0.710773    2.329739
     25          1           0        0.137019   -2.032434    1.230796
     26          8           0        1.943229   -0.235590   -0.548154
     27          6           0       -1.989771   -1.718404    1.563246
     28          1           0       -2.315178   -2.134433    0.598323
     29          6           0       -1.997234   -2.859318    2.592891
     30          1           0       -1.675488   -2.501601    3.578933
     31          1           0       -3.004063   -3.275479    2.705713
     32          1           0       -1.326889   -3.675077    2.297977
     33          6           0       -2.976037   -0.611428    1.964737
     34          1           0       -2.668851   -0.134047    2.904252
     35          1           0       -3.067553    0.162000    1.195300
     36          1           0       -3.976284   -1.029268    2.122894
     37          7           0        1.470999    1.263767    1.098018
     38          1           0        0.796622    1.623445    1.767200
     39          6           0        2.852652    1.679818    1.327465
     40          1           0        3.479685    0.785042    1.424175
     41          6           0        2.859466    2.406332    2.669162
     42          6           0        3.452616    2.542764    0.189951
     43          1           0        3.480152    1.908891   -0.701748
     44          1           0        4.492487    2.757943    0.461073
     45          8           0        1.861512    2.657850    3.311564
     46          6           0        2.699471    3.853661   -0.080399
     47          1           0        1.680500    3.642308   -0.428566
     48          1           0        2.596876    4.424805    0.851363
     49          6           0        3.396505    4.773983   -1.090210
     50          1           0        4.401086    5.017307   -0.709462
     51          1           0        2.838174    5.716056   -1.158545
     52          7           0        3.489284    4.163329   -2.412714
     53          1           0        3.133844    3.222856   -2.535287
     54          7           0        4.014262    6.173242   -3.466391
     55          1           0        4.251537    6.640628   -4.330998
     56          1           0        4.637308    6.405006   -2.703570
     57          7           0        3.314560    4.269415   -4.705418
     58          1           0        3.501372    4.814918   -5.540240
     59          6           0        3.614125    4.858210   -3.583878
     60          8           0        4.101638    2.742737    3.046488
     61          1           0        4.032945    3.198483    3.907903
     62          1           0        2.728352    2.924080   -4.644053
 ---------------------------------------------------------------------

 SCF Done:  E(RB3LYP) =  -1447.40823968     A.U. after    2 cycles

 Alpha  occ. eigenvalues --  -19.30146 -19.27091 -19.24801 -19.23340 -19.22344
 Alpha  occ. eigenvalues --  -19.19396 -14.60460 -14.49955 -14.47335 -14.44285
 Alpha  occ. eigenvalues --  -14.43689 -14.38415 -10.43956 -10.42758 -10.40898
 Alpha  occ. eigenvalues --  -10.40368 -10.38351 -10.38144 -10.35331 -10.34592
 Alpha  occ. eigenvalues --  -10.32860 -10.31630 -10.29656 -10.29124 -10.28880
 Alpha  occ. eigenvalues --  -10.28776 -10.28202 -10.25474 -10.25444  -1.21290
 Alpha  occ. eigenvalues --   -1.19515  -1.15343  -1.14411  -1.14168  -1.12438
 Alpha  occ. eigenvalues --   -1.07399  -1.06550  -1.05996  -1.03838  -0.98098
 Alpha  occ. eigenvalues --   -0.94127  -0.93940  -0.91267  -0.89689  -0.86587
 Alpha  occ. eigenvalues --   -0.85049  -0.83560  -0.77849  -0.77466  -0.76524
 Alpha  occ. eigenvalues --   -0.75943  -0.74254  -0.73553  -0.71954  -0.71693
 Alpha  occ. eigenvalues --   -0.70748  -0.70021  -0.67802  -0.67287  -0.65611
 Alpha  occ. eigenvalues --   -0.64688  -0.63402  -0.62421  -0.62138  -0.61218
 Alpha  occ. eigenvalues --   -0.60038  -0.59385  -0.58963  -0.58283  -0.57764
 Alpha  occ. eigenvalues --   -0.57134  -0.56702  -0.56175  -0.55690  -0.55126
 Alpha  occ. eigenvalues --   -0.54596  -0.53695  -0.53641  -0.53085  -0.52882
 Alpha  occ. eigenvalues --   -0.52101  -0.51449  -0.50924  -0.50265  -0.49756
 Alpha  occ. eigenvalues --   -0.49697  -0.49132  -0.48836  -0.48303  -0.48040
 Alpha  occ. eigenvalues --   -0.47372  -0.46600  -0.45732  -0.45330  -0.45214
 Alpha  occ. eigenvalues --   -0.44565  -0.44237  -0.43503  -0.42319  -0.42197
 Alpha  occ. eigenvalues --   -0.41745  -0.41448  -0.41332  -0.39600  -0.38394
 Alpha  occ. eigenvalues --   -0.37034  -0.36667  -0.36588  -0.36286  -0.34959
 Alpha  occ. eigenvalues --   -0.33176  -0.31248
 Alpha virt. eigenvalues --   -0.12775  -0.11112  -0.09883  -0.08699  -0.06381
 Alpha virt. eigenvalues --   -0.05051  -0.04408  -0.03531  -0.02692  -0.01925
 Alpha virt. eigenvalues --   -0.01258  -0.01182  -0.00596   0.00580   0.00721

 Mulliken charges:
               1
     1  N   -0.749875
     2  H    0.416708
     3  H    0.431872
     4  H    0.418215
     5  C   -0.120219
     6  H    0.209277
     7  C    0.649524
     8  C   -0.286564
     9  H    0.197582
    10  H    0.183551
    11  O   -0.535737
    12  C   -0.393134
    13  H    0.180689
    14  H    0.187186
    15  C    0.607324
    16  O   -0.486380
    17  O   -0.629932
    18  N   -0.587726
    19  H    0.373771
    20  C   -0.090740
    21  H    0.193221
    22  C    0.634478
    23  C   -0.257821
    24  H    0.154884
    25  H    0.156438
    26  O   -0.536818
    27  C   -0.069993
    28  H    0.117459
    29  C   -0.447595
    30  H    0.154720
    31  H    0.158281
    32  H    0.147821
    33  C   -0.463277
    34  H    0.148472
    35  H    0.159771
    36  H    0.159591
    37  N   -0.621346
    38  H    0.366189
    39  C   -0.034945
    40  H    0.209125
    41  C    0.586682
    42  C   -0.286126
    43  H    0.189067
    44  H    0.177169
    45  O   -0.463410
    46  C   -0.310341
    47  H    0.155502
    48  H    0.162120
    49  C   -0.121667
    50  H    0.151230
    51  H    0.176028
    52  N   -0.629332
    53  H    0.357221
    54  N   -0.753194
    55  H    0.346799
    56  H    0.346997
    57  N   -0.783510
    58  H    0.306343
    59  C    0.734042
    60  O   -0.555906
    61  H    0.432825
    62  H    0.477412
 Sum of Mulliken charges =   1.00000

 Dipole moment (field-independent basis, Debye):
    X=             -0.6262    Y=              2.6671    Z=             -8.3345  Tot=              8.7732
 Quadrupole moment (field-independent basis, Debye-Ang):
   XX=           -112.6271   YY=           -108.6305   ZZ=           -117.5678
   XY=             63.1965   XZ=             30.5864   YZ=             10.3703

 Normal termination of Gaussian 16 at Thu May 26 19:18:28 2022.
