 Gaussian 16, Revision C.01,
 Gaussian 16:  ES64L-G16RevC.01  3-Jul-2019

 -------------------------------------------------------------------
 # B3LYP/6-31G* guess=read geom=check nosymm integral(ultrafinegrid)
 -------------------------------------------------------------------

 ------------------------------------------------------
 Candidate Structure: Conf:472 Charge calc in gas phase
 ------------------------------------------------------
 Structure from the checkpoint file:  "conf-472.chk"
 Charge =  1 Multiplicity = 1

                          Input orientation:
 ---------------------------------------------------------------------
 Center     Atomic      Atomic             Coordinates (Angstroms)
 Number     Number       Type             X           Y           Z
 ---------------------------------------------------------------------
      1          7           0       -1.807191   -0.786321   -4.843018
      2          1           0       -2.830404   -0.793988   -4.790895
      3          1           0       -1.465250    0.196711   -4.627074
      4          1           0       -1.525127   -1.084307   -5.781179
      5          6           0       -1.151838   -1.585515   -3.729004
      6          1           0       -1.859277   -2.327532   -3.360327
      7          6           0       -0.855928   -0.482505   -2.677703
      8          6           0        0.119288   -2.251646   -4.300612
      9          1           0        0.729108   -1.475817   -4.780321
     10          1           0       -0.195988   -2.955925   -5.082280
     11          8           0       -0.786360    0.685721   -3.090618
     12          6           0        1.029058   -2.980406   -3.289256
     13          1           0        1.847290   -3.452725   -3.837147
     14          1           0        1.468386   -2.250425   -2.594267
     15          6           0        0.307212   -4.013293   -2.455432
     16          8           0       -0.700306   -3.779476   -1.798172
     17          8           0        0.886915   -5.213559   -2.481978
     18          7           0       -0.705397   -0.881012   -1.418808
     19          1           0       -0.729429   -1.887553   -1.245964
     20          6           0       -0.155085   -0.002239   -0.383113
     21          1           0       -0.720519    0.933751   -0.409679
     22          6           0        1.331588    0.272884   -0.724389
     23          6           0       -0.324679   -0.709160    0.980481
     24          1           0        0.311134   -1.605193    0.973923
     25          1           0       -1.365238   -1.057712    1.039105
     26          8           0        1.993449   -0.544251   -1.364946
     27          6           0       -0.015341    0.124815    2.240618
     28          1           0        1.015691    0.495013    2.174260
     29          6           0       -0.953953    1.332810    2.390519
     30          1           0       -2.001696    1.011832    2.451402
     31          1           0       -0.723758    1.886481    3.306595
     32          1           0       -0.875957    2.044512    1.558680
     33          6           0       -0.103975   -0.780464    3.479575
     34          1           0       -1.116691   -1.184710    3.602937
     35          1           0        0.589843   -1.625998    3.409550
     36          1           0        0.142127   -0.220549    4.387881
     37          7           0        1.829647    1.438684   -0.256823
     38          1           0        1.235696    2.053926    0.282809
     39          6           0        3.238281    1.805278   -0.388586
     40          1           0        3.760394    0.905029   -0.719905
     41          6           0        3.859336    2.206850    0.947201
     42          6           0        3.477621    2.924455   -1.431037
     43          1           0        3.187766    2.527583   -2.412259
     44          1           0        4.559125    3.102493   -1.461068
     45          8           0        5.048342    2.282324    1.131735
     46          6           0        2.738381    4.237040   -1.142499
     47          1           0        1.651700    4.077709   -1.204896
     48          1           0        2.964936    4.598460   -0.134033
     49          6           0        3.144403    5.346619   -2.127420
     50          1           0        2.950946    5.030774   -3.160620
     51          1           0        4.217834    5.533022   -2.032402
     52          7           0        2.469451    6.621121   -1.927411
     53          1           0        1.487291    6.637489   -2.175252
     54          7           0        1.971274    8.544973   -0.748411
     55          1           0        2.262980    9.208519   -0.040858
     56          1           0        1.818367    9.002784   -1.641432
     57          7           0        3.700823    7.039638    0.000605
     58          1           0        3.907883    7.779840    0.672524
     59          6           0        2.783183    7.403413   -0.821027
     60          8           0        2.934838    2.518724    1.892251
     61          1           0        3.432581    2.818700    2.677615
     62          1           0        0.389140   -5.804953   -1.882613
 ---------------------------------------------------------------------

 SCF Done:  E(RB3LYP) =  -1447.38862485     A.U. after    3 cycles

 Alpha  occ. eigenvalues --  -19.32259 -19.28164 -19.27277 -19.27075 -19.21996
 Alpha  occ. eigenvalues --  -19.21783 -14.61017 -14.49501 -14.46299 -14.40233
 Alpha  occ. eigenvalues --  -14.40211 -14.33863 -10.45256 -10.43795 -10.41324
 Alpha  occ. eigenvalues --  -10.40100 -10.39243 -10.35676 -10.34880 -10.33442
 Alpha  occ. eigenvalues --  -10.32524 -10.32375 -10.29283 -10.28157 -10.27568
 Alpha  occ. eigenvalues --  -10.26733 -10.26182 -10.25407 -10.24836  -1.23457
 Alpha  occ. eigenvalues --   -1.19758  -1.18672  -1.14755  -1.14286  -1.13730
 Alpha  occ. eigenvalues --   -1.09687  -1.06413  -1.02954  -1.02625  -0.95471
 Alpha  occ. eigenvalues --   -0.94232  -0.91369  -0.89457  -0.88183  -0.87714
 Alpha  occ. eigenvalues --   -0.84881  -0.81440  -0.80381  -0.76928  -0.75566
 Alpha  occ. eigenvalues --   -0.74656  -0.74624  -0.74291  -0.72649  -0.70978
 Alpha  occ. eigenvalues --   -0.70382  -0.69146  -0.66529  -0.65987  -0.65069
 Alpha  occ. eigenvalues --   -0.64362  -0.63888  -0.62631  -0.62053  -0.60567
 Alpha  occ. eigenvalues --   -0.60179  -0.59874  -0.59348  -0.58315  -0.57352
 Alpha  occ. eigenvalues --   -0.57223  -0.56281  -0.55843  -0.55134  -0.54518
 Alpha  occ. eigenvalues --   -0.53837  -0.53478  -0.52937  -0.52247  -0.52109
 Alpha  occ. eigenvalues --   -0.51395  -0.51180  -0.50949  -0.50603  -0.50184
 Alpha  occ. eigenvalues --   -0.49387  -0.49093  -0.48484  -0.48170  -0.47133
 Alpha  occ. eigenvalues --   -0.46774  -0.46574  -0.45545  -0.45073  -0.44500
 Alpha  occ. eigenvalues --   -0.44230  -0.42544  -0.41913  -0.41760  -0.41713
 Alpha  occ. eigenvalues --   -0.41658  -0.41316  -0.40758  -0.40366  -0.39763
 Alpha  occ. eigenvalues --   -0.39532  -0.37248  -0.35810  -0.33964  -0.32009
 Alpha  occ. eigenvalues --   -0.30828  -0.28178
 Alpha virt. eigenvalues --   -0.13245  -0.12548  -0.11203  -0.08148  -0.07033
 Alpha virt. eigenvalues --   -0.06981  -0.04297  -0.03056  -0.02766  -0.01907
 Alpha virt. eigenvalues --   -0.00495  -0.00211   0.00150   0.00714   0.00925

 Mulliken charges:
               1
     1  N   -0.754933
     2  H    0.418969
     3  H    0.431510
     4  H    0.413355
     5  C   -0.118033
     6  H    0.233281
     7  C    0.652685
     8  C   -0.306048
     9  H    0.192942
    10  H    0.181707
    11  O   -0.548588
    12  C   -0.403754
    13  H    0.208338
    14  H    0.268294
    15  C    0.604185
    16  O   -0.493068
    17  O   -0.527935
    18  N   -0.613967
    19  H    0.395851
    20  C   -0.061181
    21  H    0.183307
    22  C    0.639855
    23  C   -0.292787
    24  H    0.158141
    25  H    0.157971
    26  O   -0.534987
    27  C   -0.100037
    28  H    0.151596
    29  C   -0.454093
    30  H    0.153095
    31  H    0.168690
    32  H    0.130207
    33  C   -0.447172
    34  H    0.149712
    35  H    0.152068
    36  H    0.161407
    37  N   -0.596116
    38  H    0.360809
    39  C   -0.071768
    40  H    0.213881
    41  C    0.602903
    42  C   -0.270921
    43  H    0.147179
    44  H    0.182031
    45  O   -0.436987
    46  C   -0.286193
    47  H    0.111208
    48  H    0.190602
    49  C   -0.120480
    50  H    0.132430
    51  H    0.184945
    52  N   -0.594138
    53  H    0.315053
    54  N   -0.758216
    55  H    0.326172
    56  H    0.328135
    57  N   -0.650404
    58  H    0.272072
    59  C    0.588887
    60  O   -0.582396
    61  H    0.427218
    62  H    0.433513
 Sum of Mulliken charges =   1.00000

 Dipole moment (field-independent basis, Debye):
    X=             -6.5829    Y=             -2.1639    Z=            -15.2244  Tot=             16.7272
 Quadrupole moment (field-independent basis, Debye-Ang):
   XX=           -174.5822   YY=            -92.1613   ZZ=            -72.3463
   XY=              8.4283   XZ=             28.7773   YZ=             22.6401

 Normal termination of Gaussian 16 at Thu May 26 19:11:23 2022.
