 Gaussian 16, Revision C.01,
 Gaussian 16:  ES64L-G16RevC.01  3-Jul-2019

 -------------------------------------------------------------------
 # B3LYP/6-31G* guess=read geom=check nosymm integral(ultrafinegrid)
 -------------------------------------------------------------------

 ------------------------------------------------------
 Candidate Structure: Conf:123 Charge calc in gas phase
 ------------------------------------------------------
 Structure from the checkpoint file:  "conf-123.chk"
 Charge =  1 Multiplicity = 1

                          Input orientation:
 ---------------------------------------------------------------------
 Center     Atomic      Atomic             Coordinates (Angstroms)
 Number     Number       Type             X           Y           Z
 ---------------------------------------------------------------------
      1          7           0       -3.450763   -1.696543   -3.612549
      2          1           0       -3.916497   -2.577015   -3.376812
      3          1           0       -3.773293   -0.929276   -2.935324
      4          1           0       -3.686189   -1.452532   -4.578255
      5          6           0       -1.956570   -1.706486   -3.341654
      6          1           0       -1.669493   -2.729687   -3.084797
      7          6           0       -1.843141   -0.771741   -2.097805
      8          6           0       -1.163286   -1.188629   -4.547265
      9          1           0       -0.129689   -1.021759   -4.227549
     10          1           0       -1.536530   -0.197579   -4.833958
     11          8           0       -2.863677   -0.144611   -1.768160
     12          6           0       -1.164142   -2.132886   -5.754598
     13          1           0       -0.733042   -3.109046   -5.499435
     14          1           0       -2.173068   -2.342420   -6.137286
     15          6           0       -0.357557   -1.539739   -6.902003
     16          8           0        0.187843   -0.461361   -6.867223
     17          8           0       -0.337155   -2.373570   -7.956315
     18          7           0       -0.659985   -0.731893   -1.505447
     19          1           0        0.161748   -1.172690   -1.930313
     20          6           0       -0.246083    0.208283   -0.457506
     21          1           0       -0.853321    1.114023   -0.542007
     22          6           0        1.234770    0.508422   -0.802478
     23          6           0       -0.354328   -0.397421    0.960984
     24          1           0        0.145646    0.287899    1.658782
     25          1           0        0.234087   -1.324548    0.969194
     26          8           0        1.838334   -0.231182   -1.585674
     27          6           0       -1.780006   -0.678681    1.477246
     28          1           0       -2.291975   -1.318396    0.743560
     29          6           0       -1.696815   -1.456115    2.800467
     30          1           0       -1.189111   -0.864821    3.572526
     31          1           0       -2.697727   -1.697338    3.174235
     32          1           0       -1.145343   -2.396377    2.683326
     33          6           0       -2.604345    0.605797    1.648806
     34          1           0       -2.114464    1.295424    2.348130
     35          1           0       -2.762009    1.128346    0.699558
     36          1           0       -3.594023    0.374007    2.057276
     37          7           0        1.772655    1.574370   -0.185294
     38          1           0        1.248774    2.041783    0.548420
     39          6           0        3.208870    1.855657   -0.162109
     40          1           0        3.734280    0.945358   -0.466660
     41          6           0        3.554450    2.177121    1.289229
     42          6           0        3.626786    3.025537   -1.082321
     43          1           0        4.691382    3.220601   -0.925402
     44          1           0        3.104258    3.934209   -0.763025
     45          8           0        2.726714    2.423479    2.143330
     46          6           0        3.360149    2.751809   -2.567146
     47          1           0        3.802204    1.786142   -2.848822
     48          1           0        2.279017    2.651605   -2.740731
     49          6           0        3.931880    3.821989   -3.515831
     50          1           0        3.784316    3.482200   -4.549066
     51          1           0        5.006303    3.931987   -3.351871
     52          7           0        3.356723    5.153083   -3.396399
     53          1           0        2.360695    5.233691   -3.554365
     54          7           0        3.160923    7.311158   -2.604454
     55          1           0        3.603396    8.078138   -2.112382
     56          1           0        2.878623    7.592280   -3.538371
     57          7           0        4.942168    5.869831   -1.852045
     58          1           0        5.295015    6.718976   -1.409352
     59          6           0        3.901914    6.118255   -2.564537
     60          8           0        4.877798    2.187627    1.499597
     61          1           0        5.025126    2.449407    2.429023
     62          1           0        0.195125   -1.949052   -8.657076
 ---------------------------------------------------------------------

 SCF Done:  E(RB3LYP) =  -1447.38271271     A.U. after    1 cycles

 Alpha  occ. eigenvalues --  -19.30568 -19.28271 -19.28119 -19.25258 -19.22897
 Alpha  occ. eigenvalues --  -19.22838 -14.61026 -14.50296 -14.46322 -14.40335
 Alpha  occ. eigenvalues --  -14.40322 -14.33779 -10.44715 -10.43760 -10.42132
 Alpha  occ. eigenvalues --  -10.40842 -10.39807 -10.35244 -10.35192 -10.34237
 Alpha  occ. eigenvalues --  -10.33616 -10.32489 -10.28989 -10.28146 -10.27456
 Alpha  occ. eigenvalues --  -10.25812 -10.25462 -10.25372 -10.25270  -1.21675
 Alpha  occ. eigenvalues --   -1.20453  -1.19389  -1.15037  -1.14511  -1.12922
 Alpha  occ. eigenvalues --   -1.10519  -1.07045  -1.03029  -1.02921  -0.96013
 Alpha  occ. eigenvalues --   -0.94275  -0.91501  -0.89494  -0.88736  -0.87821
 Alpha  occ. eigenvalues --   -0.84912  -0.81610  -0.80082  -0.76699  -0.76230
 Alpha  occ. eigenvalues --   -0.75183  -0.74473  -0.73947  -0.72862  -0.71438
 Alpha  occ. eigenvalues --   -0.70467  -0.68053  -0.67795  -0.66575  -0.65191
 Alpha  occ. eigenvalues --   -0.64374  -0.64240  -0.61929  -0.61025  -0.60572
 Alpha  occ. eigenvalues --   -0.60106  -0.58963  -0.58763  -0.58115  -0.57450
 Alpha  occ. eigenvalues --   -0.57232  -0.56950  -0.56208  -0.55560  -0.54558
 Alpha  occ. eigenvalues --   -0.54319  -0.53835  -0.53186  -0.52410  -0.52248
 Alpha  occ. eigenvalues --   -0.51739  -0.51163  -0.50706  -0.50480  -0.49741
 Alpha  occ. eigenvalues --   -0.49616  -0.49477  -0.48658  -0.48298  -0.48018
 Alpha  occ. eigenvalues --   -0.46560  -0.46424  -0.45509  -0.45035  -0.44338
 Alpha  occ. eigenvalues --   -0.42872  -0.42799  -0.42447  -0.42293  -0.41615
 Alpha  occ. eigenvalues --   -0.41345  -0.41064  -0.40758  -0.40136  -0.39729
 Alpha  occ. eigenvalues --   -0.38973  -0.37062  -0.36271  -0.35696  -0.32123
 Alpha  occ. eigenvalues --   -0.30806  -0.27926
 Alpha virt. eigenvalues --   -0.13274  -0.12650  -0.10226  -0.08349  -0.07557
 Alpha virt. eigenvalues --   -0.07424  -0.05463  -0.02918  -0.02210  -0.02000
 Alpha virt. eigenvalues --   -0.00901  -0.00348  -0.00132   0.00049   0.00534

 Mulliken charges:
               1
     1  N   -0.760854
     2  H    0.417891
     3  H    0.437965
     4  H    0.413057
     5  C   -0.113031
     6  H    0.218149
     7  C    0.654385
     8  C   -0.304968
     9  H    0.224597
    10  H    0.195619
    11  O   -0.541019
    12  C   -0.377206
    13  H    0.206613
    14  H    0.169332
    15  C    0.598132
    16  O   -0.437719
    17  O   -0.555391
    18  N   -0.591476
    19  H    0.374373
    20  C   -0.091817
    21  H    0.194551
    22  C    0.631124
    23  C   -0.263198
    24  H    0.165429
    25  H    0.153424
    26  O   -0.543863
    27  C   -0.070808
    28  H    0.115666
    29  C   -0.447981
    30  H    0.158038
    31  H    0.157268
    32  H    0.146372
    33  C   -0.460460
    34  H    0.151582
    35  H    0.154833
    36  H    0.159172
    37  N   -0.595110
    38  H    0.358385
    39  C   -0.068273
    40  H    0.203301
    41  C    0.592792
    42  C   -0.252210
    43  H    0.198319
    44  H    0.157451
    45  O   -0.472467
    46  C   -0.267923
    47  H    0.148734
    48  H    0.119010
    49  C   -0.129596
    50  H    0.142606
    51  H    0.193328
    52  N   -0.595133
    53  H    0.313325
    54  N   -0.759480
    55  H    0.326209
    56  H    0.326092
    57  N   -0.657226
    58  H    0.271983
    59  C    0.594359
    60  O   -0.548683
    61  H    0.428820
    62  H    0.433607
 Sum of Mulliken charges =   1.00000

 Dipole moment (field-independent basis, Debye):
    X=             -8.1856    Y=             -3.3034    Z=            -15.4176  Tot=             17.7657
 Quadrupole moment (field-independent basis, Debye-Ang):
   XX=           -128.5673   YY=           -111.9025   ZZ=            -80.1999
   XY=             37.9003   XZ=             45.1759   YZ=             21.8953

 Normal termination of Gaussian 16 at Thu May 26 19:10:54 2022.
