 Gaussian 16, Revision C.01,
 Gaussian 16:  ES64L-G16RevC.01  3-Jul-2019

 -------------------------------------------------------------------
 # B3LYP/6-31G* guess=read geom=check nosymm integral(ultrafinegrid)
 -------------------------------------------------------------------

 ------------------------------------------------------
 Candidate Structure: Conf:883 Charge calc in gas phase
 ------------------------------------------------------
 Structure from the checkpoint file:  "conf-883.chk"
 Charge =  1 Multiplicity = 1

                          Input orientation:
 ---------------------------------------------------------------------
 Center     Atomic      Atomic             Coordinates (Angstroms)
 Number     Number       Type             X           Y           Z
 ---------------------------------------------------------------------
      1          7           0       -2.423498   -0.074859   -4.346393
      2          1           0       -3.430189   -0.069868   -4.156209
      3          1           0       -2.030068    0.885313   -4.111739
      4          1           0       -2.277629   -0.310367   -5.332075
      5          6           0       -1.644622   -0.959877   -3.387767
      6          1           0       -2.314128   -1.713935   -2.975472
      7          6           0       -1.180868    0.063787   -2.317016
      8          6           0       -0.479316   -1.605452   -4.169585
      9          1           0        0.077503   -0.808457   -4.678261
     10          1           0       -0.914227   -2.251957   -4.943723
     11          8           0       -1.139281    1.256050   -2.659129
     12          6           0        0.542278   -2.412083   -3.340756
     13          1           0        1.268641   -2.857633   -4.023933
     14          1           0        1.088156   -1.736237   -2.666509
     15          6           0       -0.082297   -3.488743   -2.484131
     16          8           0       -0.996387   -3.289808   -1.692973
     17          8           0        0.476383   -4.687959   -2.652051
     18          7           0       -0.869929   -0.421876   -1.119960
     19          1           0       -0.899929   -1.436576   -1.008639
     20          6           0       -0.166965    0.375471   -0.111384
     21          1           0       -0.700357    1.325032   -0.010411
     22          6           0        1.271059    0.638974   -0.618929
     23          6           0       -0.188382   -0.411430    1.219266
     24          1           0        0.381819   -1.338240    1.068555
     25          1           0       -1.232055   -0.702903    1.403207
     26          8           0        1.827857   -0.129046   -1.402572
     27          6           0        0.353820    0.311610    2.469455
     28          1           0        1.401404    0.579371    2.286852
     29          6           0       -0.441475    1.582784    2.808650
     30          1           0       -1.497478    1.348973    2.996322
     31          1           0       -0.040689    2.056131    3.710843
     32          1           0       -0.413408    2.338955    2.012394
     33          6           0        0.336239   -0.661599    3.658906
     34          1           0       -0.686313   -0.982885    3.895856
     35          1           0        0.933555   -1.556285    3.450451
     36          1           0        0.751751   -0.185467    4.553008
     37          7           0        1.865423    1.757834   -0.145114
     38          1           0        1.408289    2.283230    0.589290
     39          6           0        3.284318    2.017408   -0.361857
     40          1           0        3.492596    1.935095   -1.432201
     41          6           0        4.116733    0.950101    0.359736
     42          6           0        3.603571    3.441881    0.140100
     43          1           0        3.342904    3.506759    1.204249
     44          1           0        2.930070    4.125723   -0.393016
     45          8           0        3.775314    0.358129    1.358523
     46          6           0        5.054407    3.899081   -0.062878
     47          1           0        5.736116    3.261069    0.513291
     48          1           0        5.347739    3.782483   -1.115109
     49          6           0        5.277686    5.366327    0.348369
     50          1           0        4.669053    6.027678   -0.274746
     51          1           0        6.327481    5.627266    0.167538
     52          7           0        4.954820    5.645901    1.750669
     53          1           0        5.292533    4.939338    2.396789
     54          7           0        3.180603    7.119224    1.390862
     55          1           0        2.340055    7.536412    1.771760
     56          1           0        3.870164    7.822068    1.144877
     57          7           0        3.103420    5.452075    3.126037
     58          1           0        2.270603    5.959626    3.432846
     59          6           0        3.685287    6.060042    2.153182
     60          8           0        5.308183    0.765916   -0.243569
     61          1           0        5.796260    0.107247    0.287601
     62          1           0        0.051154   -5.310294   -2.028662
 ---------------------------------------------------------------------

 SCF Done:  E(RB3LYP) =  -1447.38870699     A.U. after    1 cycles

 Alpha  occ. eigenvalues --  -19.32036 -19.27798 -19.26945 -19.26832 -19.22150
 Alpha  occ. eigenvalues --  -19.21927 -14.60708 -14.49186 -14.45937 -14.40939
 Alpha  occ. eigenvalues --  -14.40004 -14.34420 -10.45025 -10.43467 -10.41030
 Alpha  occ. eigenvalues --  -10.40101 -10.38877 -10.35439 -10.34415 -10.33907
 Alpha  occ. eigenvalues --  -10.32595 -10.32327 -10.28590 -10.28447 -10.27296
 Alpha  occ. eigenvalues --  -10.27050 -10.26080 -10.25497 -10.24415  -1.23227
 Alpha  occ. eigenvalues --   -1.19448  -1.18714  -1.14457  -1.14056  -1.13616
 Alpha  occ. eigenvalues --   -1.09706  -1.06097  -1.03261  -1.02422  -0.95209
 Alpha  occ. eigenvalues --   -0.94599  -0.90804  -0.90148  -0.87792  -0.87770
 Alpha  occ. eigenvalues --   -0.84483  -0.81456  -0.80094  -0.76234  -0.75040
 Alpha  occ. eigenvalues --   -0.74914  -0.74353  -0.74220  -0.72723  -0.70716
 Alpha  occ. eigenvalues --   -0.70501  -0.67587  -0.66984  -0.65777  -0.65428
 Alpha  occ. eigenvalues --   -0.64484  -0.63998  -0.62325  -0.61208  -0.59983
 Alpha  occ. eigenvalues --   -0.59914  -0.59429  -0.59211  -0.58474  -0.57159
 Alpha  occ. eigenvalues --   -0.56960  -0.56373  -0.55676  -0.55063  -0.54441
 Alpha  occ. eigenvalues --   -0.54009  -0.53317  -0.52789  -0.52523  -0.51870
 Alpha  occ. eigenvalues --   -0.51642  -0.51212  -0.50735  -0.50487  -0.49906
 Alpha  occ. eigenvalues --   -0.49624  -0.48896  -0.48657  -0.47964  -0.46756
 Alpha  occ. eigenvalues --   -0.46199  -0.45820  -0.45311  -0.44853  -0.44518
 Alpha  occ. eigenvalues --   -0.44184  -0.43234  -0.41927  -0.41780  -0.41158
 Alpha  occ. eigenvalues --   -0.40903  -0.40838  -0.40546  -0.40419  -0.39615
 Alpha  occ. eigenvalues --   -0.39398  -0.36617  -0.35647  -0.34828  -0.32179
 Alpha  occ. eigenvalues --   -0.31641  -0.28495
 Alpha virt. eigenvalues --   -0.12933  -0.12272  -0.10942  -0.08202  -0.06979
 Alpha virt. eigenvalues --   -0.06768  -0.04046  -0.02811  -0.02258  -0.01592
 Alpha virt. eigenvalues --   -0.01286  -0.00172   0.00027   0.01037   0.01249

 Mulliken charges:
               1
     1  N   -0.755334
     2  H    0.418586
     3  H    0.431905
     4  H    0.412633
     5  C   -0.117391
     6  H    0.233328
     7  C    0.651771
     8  C   -0.305574
     9  H    0.192182
    10  H    0.181051
    11  O   -0.547349
    12  C   -0.403947
    13  H    0.206841
    14  H    0.268040
    15  C    0.604711
    16  O   -0.492340
    17  O   -0.529126
    18  N   -0.612389
    19  H    0.395125
    20  C   -0.071815
    21  H    0.186333
    22  C    0.657809
    23  C   -0.289605
    24  H    0.159075
    25  H    0.155035
    26  O   -0.539159
    27  C   -0.110460
    28  H    0.174152
    29  C   -0.460015
    30  H    0.150586
    31  H    0.175371
    32  H    0.124082
    33  C   -0.446295
    34  H    0.143551
    35  H    0.153702
    36  H    0.164040
    37  N   -0.607229
    38  H    0.355894
    39  C   -0.017266
    40  H    0.190835
    41  C    0.598689
    42  C   -0.321150
    43  H    0.190541
    44  H    0.163987
    45  O   -0.456450
    46  C   -0.275921
    47  H    0.151347
    48  H    0.148512
    49  C   -0.152597
    50  H    0.164188
    51  H    0.159517
    52  N   -0.567208
    53  H    0.328184
    54  N   -0.741480
    55  H    0.325647
    56  H    0.335618
    57  N   -0.646654
    58  H    0.265391
    59  C    0.550846
    60  O   -0.557434
    61  H    0.421798
    62  H    0.433284
 Sum of Mulliken charges =   1.00000

 Dipole moment (field-independent basis, Debye):
    X=             -4.1079    Y=              0.5693    Z=            -14.5171  Tot=             15.0978
 Quadrupole moment (field-independent basis, Debye-Ang):
   XX=           -123.7885   YY=           -107.7585   ZZ=           -104.5905
   XY=             18.8385   XZ=             30.3035   YZ=             15.7757

 Normal termination of Gaussian 16 at Thu May 26 19:18:09 2022.
