 Gaussian 16, Revision C.01,
 Gaussian 16:  ES64L-G16RevC.01  3-Jul-2019

 -------------------------------------------------------------------
 # B3LYP/6-31G* guess=read geom=check nosymm integral(ultrafinegrid)
 -------------------------------------------------------------------

 ------------------------------------------------------
 Candidate Structure: Conf:497 Charge calc in gas phase
 ------------------------------------------------------
 Structure from the checkpoint file:  "conf-497.chk"
 Charge =  1 Multiplicity = 1

                          Input orientation:
 ---------------------------------------------------------------------
 Center     Atomic      Atomic             Coordinates (Angstroms)
 Number     Number       Type             X           Y           Z
 ---------------------------------------------------------------------
      1          7           0       -2.911992   -1.713097   -4.269938
      2          1           0       -3.497148   -1.076082   -3.689473
      3          1           0       -2.589343   -1.164723   -5.073382
      4          1           0       -3.387129   -2.577562   -4.602568
      5          6           0       -1.778221   -2.125641   -3.365579
      6          1           0       -2.198032   -2.938016   -2.764395
      7          6           0       -1.583122   -0.902495   -2.426898
      8          6           0       -0.553300   -2.631138   -4.141024
      9          1           0        0.093982   -3.141644   -3.420105
     10          1           0        0.024673   -1.784394   -4.528934
     11          8           0       -2.522530   -0.102182   -2.348544
     12          6           0       -0.838110   -3.595894   -5.323960
     13          1           0       -1.193881   -3.029693   -6.194317
     14          1           0        0.096464   -4.075024   -5.622097
     15          6           0       -1.893296   -4.651529   -5.045678
     16          8           0       -3.061925   -4.392620   -4.779369
     17          8           0       -1.430893   -5.893940   -5.131699
     18          7           0       -0.440888   -0.852972   -1.745144
     19          1           0        0.354454   -1.446813   -1.985148
     20          6           0       -0.029567    0.240254   -0.859482
     21          1           0       -0.559234    1.148259   -1.161710
     22          6           0        1.487373    0.377144   -1.110147
     23          6           0       -0.288065   -0.080610    0.632127
     24          1           0        0.222895    0.679558    1.237437
     25          1           0        0.220191   -1.026895    0.857079
     26          8           0        2.110644   -0.550071   -1.631442
     27          6           0       -1.766346   -0.160830    1.061825
     28          1           0       -2.274647   -0.890502    0.414566
     29          6           0       -1.847463   -0.679293    2.506423
     30          1           0       -1.351551    0.010809    3.200223
     31          1           0       -2.890179   -0.779004    2.826979
     32          1           0       -1.367012   -1.659011    2.611588
     33          6           0       -2.492488    1.185327    0.922047
     34          1           0       -1.997434    1.961951    1.519527
     35          1           0       -2.540529    1.523604   -0.118175
     36          1           0       -3.523853    1.103593    1.282288
     37          7           0        2.057612    1.535548   -0.717451
     38          1           0        1.501522    2.188048   -0.178461
     39          6           0        3.507763    1.669860   -0.601504
     40          1           0        3.960804    1.335998   -1.538984
     41          6           0        3.999291    0.750774    0.523329
     42          6           0        3.844409    3.153564   -0.336818
     43          1           0        3.433051    3.447336    0.637140
     44          1           0        3.304257    3.746674   -1.080975
     45          8           0        3.319760    0.373218    1.450963
     46          6           0        5.335962    3.502197   -0.392984
     47          1           0        5.890755    2.929575    0.359617
     48          1           0        5.750192    3.203208   -1.366915
     49          6           0        5.624949    4.995546   -0.151970
     50          1           0        6.710097    5.125572   -0.056361
     51          1           0        5.167858    5.320811    0.785990
     52          7           0        5.158197    5.908189   -1.183040
     53          1           0        5.576557    5.823587   -2.099492
     54          7           0        3.755425    7.421603   -2.211095
     55          1           0        2.927254    7.999318   -2.132727
     56          1           0        4.572910    7.982177   -2.430510
     57          7           0        3.086470    6.281699   -0.195096
     58          1           0        2.306004    6.939342   -0.220171
     59          6           0        3.931579    6.541524   -1.131100
     60          8           0        5.299896    0.430557    0.370867
     61          1           0        5.547765   -0.120313    1.138529
     62          1           0       -2.170109   -6.514265   -4.967689
 ---------------------------------------------------------------------

 SCF Done:  E(RB3LYP) =  -1447.39341165     A.U. after    1 cycles

 Alpha  occ. eigenvalues --  -19.34188 -19.29296 -19.27442 -19.25956 -19.22283
 Alpha  occ. eigenvalues --  -19.21690 -14.59183 -14.49059 -14.45915 -14.40512
 Alpha  occ. eigenvalues --  -14.40453 -14.33971 -10.47427 -10.43320 -10.40874
 Alpha  occ. eigenvalues --  -10.39684 -10.39088 -10.36110 -10.35407 -10.34241
 Alpha  occ. eigenvalues --  -10.33874 -10.32138 -10.27872 -10.27553 -10.27242
 Alpha  occ. eigenvalues --  -10.26304 -10.25205 -10.24710 -10.24556  -1.25518
 Alpha  occ. eigenvalues --   -1.18524  -1.18321  -1.16485  -1.14238  -1.13352
 Alpha  occ. eigenvalues --   -1.09340  -1.05689  -1.03192  -1.02486  -0.95974
 Alpha  occ. eigenvalues --   -0.94421  -0.90843  -0.89651  -0.88538  -0.87517
 Alpha  occ. eigenvalues --   -0.84383  -0.81189  -0.80580  -0.75862  -0.75353
 Alpha  occ. eigenvalues --   -0.75030  -0.74508  -0.73911  -0.72675  -0.71542
 Alpha  occ. eigenvalues --   -0.69822  -0.67558  -0.67113  -0.65437  -0.65398
 Alpha  occ. eigenvalues --   -0.64383  -0.64123  -0.62963  -0.62015  -0.61025
 Alpha  occ. eigenvalues --   -0.59848  -0.59404  -0.59010  -0.58066  -0.57849
 Alpha  occ. eigenvalues --   -0.57465  -0.56647  -0.56076  -0.55294  -0.54913
 Alpha  occ. eigenvalues --   -0.54185  -0.53873  -0.52832  -0.52211  -0.52033
 Alpha  occ. eigenvalues --   -0.51812  -0.51259  -0.50958  -0.50619  -0.50136
 Alpha  occ. eigenvalues --   -0.49382  -0.49159  -0.48649  -0.47685  -0.47199
 Alpha  occ. eigenvalues --   -0.46672  -0.46335  -0.45698  -0.44757  -0.44221
 Alpha  occ. eigenvalues --   -0.44184  -0.43109  -0.42232  -0.41410  -0.41150
 Alpha  occ. eigenvalues --   -0.40792  -0.40687  -0.40473  -0.40266  -0.39215
 Alpha  occ. eigenvalues --   -0.38556  -0.36332  -0.35905  -0.34862  -0.32315
 Alpha  occ. eigenvalues --   -0.31023  -0.28020
 Alpha virt. eigenvalues --   -0.14552  -0.12216  -0.09567  -0.08097  -0.06530
 Alpha virt. eigenvalues --   -0.04875  -0.04463  -0.02632  -0.02030  -0.01280
 Alpha virt. eigenvalues --   -0.01178  -0.00791  -0.00321   0.00381   0.00902

 Mulliken charges:
               1
     1  N   -0.754222
     2  H    0.427188
     3  H    0.401715
     4  H    0.436822
     5  C   -0.124960
     6  H    0.238247
     7  C    0.655385
     8  C   -0.322683
     9  H    0.212064
    10  H    0.200940
    11  O   -0.538064
    12  C   -0.381137
    13  H    0.191181
    14  H    0.228101
    15  C    0.612371
    16  O   -0.492202
    17  O   -0.519538
    18  N   -0.606529
    19  H    0.371551
    20  C   -0.096193
    21  H    0.190304
    22  C    0.645476
    23  C   -0.254134
    24  H    0.163298
    25  H    0.158368
    26  O   -0.545167
    27  C   -0.072239
    28  H    0.118419
    29  C   -0.446385
    30  H    0.156158
    31  H    0.155008
    32  H    0.146552
    33  C   -0.460634
    34  H    0.145237
    35  H    0.156710
    36  H    0.158225
    37  N   -0.603350
    38  H    0.350191
    39  C   -0.030938
    40  H    0.192469
    41  C    0.599030
    42  C   -0.291848
    43  H    0.168578
    44  H    0.180675
    45  O   -0.467140
    46  C   -0.271746
    47  H    0.154020
    48  H    0.132995
    49  C   -0.128856
    50  H    0.149651
    51  H    0.188308
    52  N   -0.596032
    53  H    0.320227
    54  N   -0.758568
    55  H    0.324387
    56  H    0.328091
    57  N   -0.666786
    58  H    0.267859
    59  C    0.596891
    60  O   -0.556763
    61  H    0.421507
    62  H    0.441912
 Sum of Mulliken charges =   1.00000

 Dipole moment (field-independent basis, Debye):
    X=             -2.4922    Y=             -4.5962    Z=            -18.1562  Tot=             18.8940
 Quadrupole moment (field-independent basis, Debye-Ang):
   XX=           -119.7598   YY=            -80.4566   ZZ=            -84.9111
   XY=             47.0182   XZ=             26.9292   YZ=             31.6574

 Normal termination of Gaussian 16 at Thu May 26 19:11:05 2022.
