 Gaussian 16, Revision C.01,
 Gaussian 16:  ES64L-G16RevC.01  3-Jul-2019

 -------------------------------------------------------------------
 # B3LYP/6-31G* guess=read geom=check nosymm integral(ultrafinegrid)
 -------------------------------------------------------------------

 ------------------------------------------------------
 Candidate Structure: Conf:365 Charge calc in gas phase
 ------------------------------------------------------
 Structure from the checkpoint file:  "conf-365.chk"
 Charge =  1 Multiplicity = 1

                          Input orientation:
 ---------------------------------------------------------------------
 Center     Atomic      Atomic             Coordinates (Angstroms)
 Number     Number       Type             X           Y           Z
 ---------------------------------------------------------------------
      1          7           0       -2.834337   -0.790202   -3.540101
      2          1           0       -3.549986   -1.338016   -3.051855
      3          1           0       -2.721617    0.136372   -3.035893
      4          1           0       -3.125360   -0.657992   -4.513135
      5          6           0       -1.436408   -1.370566   -3.398033
      6          1           0       -1.512041   -2.456799   -3.312616
      7          6           0       -0.946033   -0.684623   -2.092697
      8          6           0       -0.628984   -0.935968   -4.636760
      9          1           0       -0.677610    0.158368   -4.705651
     10          1           0       -1.109509   -1.344764   -5.533449
     11          8           0       -1.413743    0.446794   -1.878553
     12          6           0        0.840121   -1.378512   -4.595631
     13          1           0        1.360051   -0.985726   -3.721614
     14          1           0        0.909755   -2.473308   -4.532741
     15          6           0        1.647439   -0.950994   -5.811069
     16          8           0        2.827204   -0.672786   -5.791323
     17          8           0        0.913972   -0.941983   -6.942169
     18          7           0       -0.067599   -1.344634   -1.345507
     19          1           0        0.132568   -2.346724   -1.547937
     20          6           0        0.521309   -0.743328   -0.133205
     21          1           0        0.261679    0.315140   -0.155670
     22          6           0        2.063758   -0.792493   -0.130098
     23          6           0       -0.098140   -1.395582    1.128989
     24          1           0        0.093279   -2.478352    1.100596
     25          1           0       -1.187188   -1.278195    1.039590
     26          8           0        2.686075    0.022775    0.534915
     27          6           0        0.352365   -0.831006    2.492546
     28          1           0        1.437647   -0.965803    2.579918
     29          6           0        0.056516    0.669628    2.629919
     30          1           0       -1.007761    0.882620    2.462101
     31          1           0        0.306436    1.015477    3.638660
     32          1           0        0.649332    1.262385    1.927316
     33          6           0       -0.322475   -1.632654    3.616696
     34          1           0       -1.413502   -1.515360    3.587946
     35          1           0       -0.099234   -2.704305    3.543814
     36          1           0        0.020721   -1.286901    4.597436
     37          7           0        2.659525   -1.823540   -0.809016
     38          1           0        2.113545   -2.347817   -1.485580
     39          6           0        4.105879   -1.892424   -0.974890
     40          1           0        4.533692   -1.237835   -0.209167
     41          6           0        4.572104   -1.358115   -2.337837
     42          6           0        4.657639   -3.326592   -0.799195
     43          1           0        5.740730   -3.255705   -0.926482
     44          1           0        4.300827   -3.950098   -1.630577
     45          8           0        5.717919   -1.402871   -2.715968
     46          6           0        4.309478   -3.996186    0.549752
     47          1           0        5.216997   -4.410705    1.003810
     48          1           0        3.933412   -3.251374    1.263405
     49          6           0        3.297058   -5.149549    0.442756
     50          1           0        3.163033   -5.614504    1.426582
     51          1           0        3.685330   -5.916296   -0.233095
     52          7           0        1.987980   -4.706507   -0.061282
     53          1           0        1.723279   -3.784067    0.259188
     54          7           0        1.797741   -6.232071   -1.800796
     55          1           0        1.345984   -6.513433   -2.659419
     56          1           0        1.944783   -6.989226   -1.146080
     57          7           0        0.720661   -4.113145   -1.912913
     58          1           0        0.283918   -4.544066   -2.727896
     59          6           0        1.464435   -4.997698   -1.288394
     60          8           0        3.550521   -0.876162   -3.078333
     61          1           0        3.865710   -0.647567   -3.978800
     62          1           0        1.509785   -0.679651   -7.671580
 ---------------------------------------------------------------------

 SCF Done:  E(RB3LYP) =  -1447.39113817     A.U. after    1 cycles

 Alpha  occ. eigenvalues --  -19.31524 -19.27533 -19.26736 -19.25932 -19.21612
 Alpha  occ. eigenvalues --  -19.20761 -14.61378 -14.49196 -14.46678 -14.45718
 Alpha  occ. eigenvalues --  -14.45342 -14.41551 -10.44391 -10.43666 -10.41906
 Alpha  occ. eigenvalues --  -10.40974 -10.39939 -10.38323 -10.35424 -10.33755
 Alpha  occ. eigenvalues --  -10.33119 -10.32427 -10.32145 -10.28567 -10.28101
 Alpha  occ. eigenvalues --  -10.27976 -10.26758 -10.24614 -10.23911  -1.22442
 Alpha  occ. eigenvalues --   -1.19496  -1.18259  -1.14775  -1.13376  -1.12853
 Alpha  occ. eigenvalues --   -1.09594  -1.09436  -1.06004  -1.01818  -1.00047
 Alpha  occ. eigenvalues --   -0.96191  -0.95795  -0.90411  -0.88520  -0.88015
 Alpha  occ. eigenvalues --   -0.84725  -0.82933  -0.79769  -0.77149  -0.75338
 Alpha  occ. eigenvalues --   -0.75014  -0.74677  -0.74117  -0.72600  -0.72375
 Alpha  occ. eigenvalues --   -0.71492  -0.70633  -0.69345  -0.68210  -0.66088
 Alpha  occ. eigenvalues --   -0.64964  -0.64549  -0.64293  -0.62868  -0.61853
 Alpha  occ. eigenvalues --   -0.60579  -0.60313  -0.59535  -0.59035  -0.58400
 Alpha  occ. eigenvalues --   -0.57834  -0.56556  -0.56162  -0.55903  -0.55688
 Alpha  occ. eigenvalues --   -0.55232  -0.54566  -0.54053  -0.53606  -0.52282
 Alpha  occ. eigenvalues --   -0.51928  -0.51321  -0.51196  -0.50985  -0.50592
 Alpha  occ. eigenvalues --   -0.50445  -0.49723  -0.49314  -0.49100  -0.47914
 Alpha  occ. eigenvalues --   -0.46960  -0.46466  -0.45931  -0.45408  -0.44463
 Alpha  occ. eigenvalues --   -0.44198  -0.43595  -0.43544  -0.43158  -0.42247
 Alpha  occ. eigenvalues --   -0.41353  -0.40557  -0.40164  -0.40094  -0.39830
 Alpha  occ. eigenvalues --   -0.39305  -0.38812  -0.37570  -0.36974  -0.34221
 Alpha  occ. eigenvalues --   -0.34035  -0.33174
 Alpha virt. eigenvalues --   -0.13338  -0.11832  -0.11019  -0.07503  -0.07324
 Alpha virt. eigenvalues --   -0.06952  -0.06866  -0.05849  -0.04088  -0.03340
 Alpha virt. eigenvalues --   -0.02614  -0.01899  -0.01778   0.00509   0.00738

 Mulliken charges:
               1
     1  N   -0.749153
     2  H    0.418032
     3  H    0.433287
     4  H    0.413818
     5  C   -0.118832
     6  H    0.205175
     7  C    0.641189
     8  C   -0.293266
     9  H    0.192998
    10  H    0.189551
    11  O   -0.540848
    12  C   -0.393750
    13  H    0.235887
    14  H    0.191554
    15  C    0.606281
    16  O   -0.457075
    17  O   -0.558329
    18  N   -0.644526
    19  H    0.414240
    20  C   -0.100164
    21  H    0.219862
    22  C    0.620854
    23  C   -0.268891
    24  H    0.134611
    25  H    0.144956
    26  O   -0.493119
    27  C   -0.076741
    28  H    0.153157
    29  C   -0.458236
    30  H    0.135908
    31  H    0.159986
    32  H    0.171575
    33  C   -0.446799
    34  H    0.143734
    35  H    0.136523
    36  H    0.162816
    37  N   -0.640670
    38  H    0.355842
    39  C   -0.079153
    40  H    0.226078
    41  C    0.603262
    42  C   -0.287394
    43  H    0.198496
    44  H    0.147828
    45  O   -0.444241
    46  C   -0.289273
    47  H    0.172051
    48  H    0.163238
    49  C   -0.160948
    50  H    0.172482
    51  H    0.171626
    52  N   -0.587593
    53  H    0.350132
    54  N   -0.746990
    55  H    0.342914
    56  H    0.356367
    57  N   -0.764223
    58  H    0.274033
    59  C    0.662937
    60  O   -0.600031
    61  H    0.441903
    62  H    0.435063
 Sum of Mulliken charges =   1.00000

 Dipole moment (field-independent basis, Debye):
    X=             -7.3782    Y=            -15.3560    Z=            -15.7410  Tot=             23.1953
 Quadrupole moment (field-independent basis, Debye-Ang):
   XX=           -151.2540   YY=           -101.6683   ZZ=            -84.9782
   XY=            -13.7162   XZ=             37.4442   YZ=             25.0502

 Normal termination of Gaussian 16 at Thu May 26 19:11:01 2022.
