 Gaussian 16, Revision C.01,
 Gaussian 16:  ES64L-G16RevC.01  3-Jul-2019

 -------------------------------------------------------------------
 # B3LYP/6-31G* guess=read geom=check nosymm integral(ultrafinegrid)
 -------------------------------------------------------------------

 ------------------------------------------------------
 Candidate Structure: Conf:302 Charge calc in gas phase
 ------------------------------------------------------
 Structure from the checkpoint file:  "conf-302.chk"
 Charge =  1 Multiplicity = 1

                          Input orientation:
 ---------------------------------------------------------------------
 Center     Atomic      Atomic             Coordinates (Angstroms)
 Number     Number       Type             X           Y           Z
 ---------------------------------------------------------------------
      1          7           0       -2.494470    0.235631   -4.257373
      2          1           0       -3.150399   -0.399755   -4.718524
      3          1           0       -2.967685    0.729931   -3.442411
      4          1           0       -2.174187    0.927789   -4.941168
      5          6           0       -1.338055   -0.475323   -3.572370
      6          1           0       -1.495120   -1.549231   -3.704326
      7          6           0       -1.528913   -0.075299   -2.079492
      8          6           0        0.022216   -0.050985   -4.147123
      9          1           0        0.069513   -0.291954   -5.214602
     10          1           0        0.787949   -0.680731   -3.682180
     11          8           0       -2.457162    0.697224   -1.801493
     12          6           0        0.385577    1.420430   -3.907354
     13          1           0       -0.238164    2.105598   -4.501434
     14          1           0        0.250073    1.704383   -2.860371
     15          6           0        1.846285    1.684107   -4.295786
     16          8           0        2.423502    0.995806   -5.119208
     17          8           0        2.345361    2.714821   -3.644752
     18          7           0       -0.647770   -0.590308   -1.220901
     19          1           0        0.185888   -1.035033   -1.606533
     20          6           0       -0.345187    0.003300    0.090438
     21          1           0       -0.992046    0.874954    0.216497
     22          6           0        1.135620    0.440803   -0.035584
     23          6           0       -0.543208   -0.994556    1.248481
     24          1           0       -0.211736   -0.503587    2.173948
     25          1           0        0.138071   -1.840960    1.088995
     26          8           0        1.843404   -0.056427   -0.916006
     27          6           0       -1.982156   -1.515065    1.436783
     28          1           0       -2.292120   -1.987918    0.493338
     29          6           0       -1.997891   -2.594438    2.530195
     30          1           0       -1.699376   -2.177355    3.500203
     31          1           0       -3.001988   -3.015964    2.646731
     32          1           0       -1.313441   -3.417673    2.294907
     33          6           0       -2.978914   -0.391301    1.759971
     34          1           0       -2.681160    0.149966    2.667651
     35          1           0       -3.072430    0.332465    0.942807
     36          1           0       -3.976678   -0.805745    1.940538
     37          7           0        1.583450    1.359683    0.843067
     38          1           0        0.971384    1.744524    1.550483
     39          6           0        2.954730    1.866027    0.759626
     40          1           0        3.571419    1.045279    0.384317
     41          6           0        3.495707    2.254579    2.126987
     42          6           0        3.076866    3.062711   -0.227395
     43          1           0        2.773264    3.988940    0.279755
     44          1           0        2.362523    2.889705   -1.038177
     45          8           0        4.663542    2.456100    2.357169
     46          6           0        4.475809    3.198869   -0.840827
     47          1           0        5.236811    3.249178   -0.053379
     48          1           0        4.680746    2.302196   -1.437927
     49          6           0        4.581593    4.433755   -1.752993
     50          1           0        4.592038    5.351738   -1.154596
     51          1           0        3.716906    4.498050   -2.417252
     52          7           0        5.779045    4.446382   -2.589152
     53          1           0        6.652375    4.559810   -2.089676
     54          7           0        7.151629    3.649565   -4.266150
     55          1           0        7.226143    3.261781   -5.197311
     56          1           0        7.719949    4.479194   -4.143633
     57          7           0        4.846542    3.083767   -4.241962
     58          1           0        5.046600    2.638058   -5.134115
     59          6           0        5.872386    3.697635   -3.736036
     60          8           0        2.515675    2.414810    3.051683
     61          1           0        2.950065    2.699802    3.878814
     62          1           0        3.367665    2.862205   -3.882925
 ---------------------------------------------------------------------

 SCF Done:  E(RB3LYP) =  -1447.40567660     A.U. after    2 cycles

 Alpha  occ. eigenvalues --  -19.29365 -19.27679 -19.23591 -19.23118 -19.22918
 Alpha  occ. eigenvalues --  -19.20207 -14.60252 -14.49673 -14.47163 -14.43714
 Alpha  occ. eigenvalues --  -14.43662 -14.38574 -10.44150 -10.41514 -10.40987
 Alpha  occ. eigenvalues --  -10.39991 -10.39072 -10.38061 -10.35144 -10.33514
 Alpha  occ. eigenvalues --  -10.33169 -10.30893 -10.29850 -10.29003 -10.28037
 Alpha  occ. eigenvalues --  -10.27853 -10.26212 -10.25587 -10.25264  -1.19988
 Alpha  occ. eigenvalues --   -1.19861  -1.15556  -1.15008  -1.14070  -1.10972
 Alpha  occ. eigenvalues --   -1.07211  -1.06830  -1.06632  -1.03458  -0.97662
 Alpha  occ. eigenvalues --   -0.94335  -0.93501  -0.91035  -0.88816  -0.86731
 Alpha  occ. eigenvalues --   -0.84852  -0.82637  -0.77798  -0.76840  -0.76479
 Alpha  occ. eigenvalues --   -0.75584  -0.74535  -0.72996  -0.71642  -0.71282
 Alpha  occ. eigenvalues --   -0.69327  -0.68885  -0.67564  -0.66940  -0.66710
 Alpha  occ. eigenvalues --   -0.64654  -0.63147  -0.63008  -0.62154  -0.61019
 Alpha  occ. eigenvalues --   -0.60474  -0.58911  -0.58371  -0.57727  -0.57125
 Alpha  occ. eigenvalues --   -0.56775  -0.56420  -0.55537  -0.55267  -0.54637
 Alpha  occ. eigenvalues --   -0.53924  -0.53847  -0.53119  -0.52897  -0.52000
 Alpha  occ. eigenvalues --   -0.51904  -0.50947  -0.50853  -0.50576  -0.49731
 Alpha  occ. eigenvalues --   -0.49204  -0.48780  -0.48645  -0.47970  -0.46907
 Alpha  occ. eigenvalues --   -0.46615  -0.46481  -0.46001  -0.45224  -0.45043
 Alpha  occ. eigenvalues --   -0.44845  -0.43233  -0.42256  -0.42040  -0.41863
 Alpha  occ. eigenvalues --   -0.41503  -0.41246  -0.41109  -0.39741  -0.37577
 Alpha  occ. eigenvalues --   -0.37333  -0.36914  -0.36633  -0.35374  -0.34307
 Alpha  occ. eigenvalues --   -0.33889  -0.31772
 Alpha virt. eigenvalues --   -0.13015  -0.11455  -0.08858  -0.08098  -0.07236
 Alpha virt. eigenvalues --   -0.05132  -0.04255  -0.03542  -0.02893  -0.01907
 Alpha virt. eigenvalues --   -0.01736  -0.01271  -0.00209   0.00642   0.01257

 Mulliken charges:
               1
     1  N   -0.758814
     2  H    0.417234
     3  H    0.434650
     4  H    0.416106
     5  C   -0.116078
     6  H    0.224353
     7  C    0.635547
     8  C   -0.307700
     9  H    0.197360
    10  H    0.216622
    11  O   -0.533850
    12  C   -0.386000
    13  H    0.158034
    14  H    0.185586
    15  C    0.615687
    16  O   -0.486523
    17  O   -0.627262
    18  N   -0.568448
    19  H    0.370821
    20  C   -0.112874
    21  H    0.194498
    22  C    0.645653
    23  C   -0.257900
    24  H    0.151950
    25  H    0.156769
    26  O   -0.543001
    27  C   -0.071224
    28  H    0.126354
    29  C   -0.447165
    30  H    0.152010
    31  H    0.159346
    32  H    0.150325
    33  C   -0.466210
    34  H    0.145822
    35  H    0.156152
    36  H    0.162138
    37  N   -0.620061
    38  H    0.358344
    39  C   -0.046786
    40  H    0.217692
    41  C    0.591789
    42  C   -0.290195
    43  H    0.147887
    44  H    0.183177
    45  O   -0.438755
    46  C   -0.280328
    47  H    0.169628
    48  H    0.169376
    49  C   -0.153139
    50  H    0.159911
    51  H    0.184225
    52  N   -0.595647
    53  H    0.334186
    54  N   -0.763210
    55  H    0.342820
    56  H    0.342434
    57  N   -0.759822
    58  H    0.310729
    59  C    0.706787
    60  O   -0.583014
    61  H    0.430002
    62  H    0.492005
 Sum of Mulliken charges =   1.00000

 Dipole moment (field-independent basis, Debye):
    X=             -0.4550    Y=              5.5436    Z=            -12.1584  Tot=             13.3703
 Quadrupole moment (field-independent basis, Debye-Ang):
   XX=            -97.0136   YY=           -136.9085   ZZ=            -86.9764
   XY=             46.3428   XZ=              8.8153   YZ=            -10.7494

 Normal termination of Gaussian 16 at Thu May 26 19:11:08 2022.
