 Gaussian 16, Revision C.01,
 Gaussian 16:  ES64L-G16RevC.01  3-Jul-2019

 -------------------------------------------------------------------
 # B3LYP/6-31G* guess=read geom=check nosymm integral(ultrafinegrid)
 -------------------------------------------------------------------

 ------------------------------------------------------
 Candidate Structure: Conf:774 Charge calc in gas phase
 ------------------------------------------------------
 Structure from the checkpoint file:  "conf-774.chk"
 Charge =  1 Multiplicity = 1

                          Input orientation:
 ---------------------------------------------------------------------
 Center     Atomic      Atomic             Coordinates (Angstroms)
 Number     Number       Type             X           Y           Z
 ---------------------------------------------------------------------
      1          7           0        0.399159   -1.167004   -4.103236
      2          1           0        1.263418   -0.500260   -4.426400
      3          1           0        0.793813   -1.932048   -3.520616
      4          1           0       -0.027586   -1.561256   -4.944863
      5          6           0       -0.611552   -0.507406   -3.217102
      6          1           0       -0.597748    0.565236   -3.430118
      7          6           0       -0.093996   -0.801619   -1.774604
      8          6           0       -2.010322   -1.100634   -3.489465
      9          1           0       -1.982165   -2.174014   -3.267052
     10          1           0       -2.232534   -0.989594   -4.558779
     11          8           0        0.611280   -1.795259   -1.619678
     12          6           0       -3.167559   -0.467819   -2.687567
     13          1           0       -4.093161   -0.975198   -2.970312
     14          1           0       -3.015003   -0.601718   -1.613955
     15          6           0       -3.346311    1.000749   -3.016936
     16          8           0       -3.975397    1.449595   -3.939972
     17          8           0       -2.644709    1.805573   -2.153105
     18          7           0       -0.504012    0.065353   -0.826091
     19          1           0       -1.068133    0.849487   -1.140134
     20          6           0       -0.017437    0.146796    0.574420
     21          1           0       -0.748799    0.788297    1.075963
     22          6           0        1.353072    0.861400    0.515536
     23          6           0        0.061641   -1.204008    1.294711
     24          1           0        0.838003   -1.801751    0.813418
     25          1           0       -0.893273   -1.727266    1.151061
     26          8           0        2.366582    0.271455    0.166710
     27          6           0        0.360900   -1.086071    2.805095
     28          1           0        1.289937   -0.508156    2.921917
     29          6           0       -0.753079   -0.373358    3.588529
     30          1           0       -1.709527   -0.900640    3.478148
     31          1           0       -0.514532   -0.344340    4.657094
     32          1           0       -0.904269    0.665334    3.269539
     33          6           0        0.614444   -2.486435    3.384045
     34          1           0       -0.278567   -3.117695    3.291026
     35          1           0        1.437423   -2.989674    2.864590
     36          1           0        0.871085   -2.429893    4.447405
     37          7           0        1.313364    2.207884    0.749918
     38          1           0        0.545417    2.619752    1.269830
     39          6           0        2.522082    3.016679    0.686667
     40          1           0        3.379456    2.362428    0.876729
     41          6           0        2.432079    4.065146    1.788364
     42          6           0        2.716779    3.704114   -0.693771
     43          1           0        3.699045    4.190496   -0.692111
     44          1           0        1.966055    4.498649   -0.808101
     45          8           0        1.427654    4.294056    2.427818
     46          6           0        2.595349    2.711984   -1.855905
     47          1           0        3.293957    1.879970   -1.718565
     48          1           0        1.588636    2.275926   -1.837021
     49          6           0        2.811766    3.338561   -3.238706
     50          1           0        3.848824    3.662542   -3.365235
     51          1           0        2.192500    4.232130   -3.372224
     52          7           0        2.454539    2.414463   -4.327982
     53          1           0        1.459531    2.278795   -4.454885
     54          7           0        4.527834    1.411431   -4.592063
     55          1           0        5.090854    0.609787   -4.838229
     56          1           0        4.938259    2.308697   -4.813003
     57          7           0        2.540338    0.176421   -4.942646
     58          1           0        3.170469   -0.513964   -5.348583
     59          6           0        3.166886    1.283940   -4.633815
     60          8           0        3.589195    4.729849    1.938801
     61          1           0        3.454071    5.396774    2.639898
     62          1           0       -2.824937    2.728053   -2.422355
 ---------------------------------------------------------------------

 SCF Done:  E(RB3LYP) =  -1447.40880636     A.U. after    1 cycles

 Alpha  occ. eigenvalues --  -19.32335 -19.29582 -19.25965 -19.24804 -19.24141
 Alpha  occ. eigenvalues --  -19.21317 -14.54017 -14.48832 -14.47716 -14.47477
 Alpha  occ. eigenvalues --  -14.46060 -14.43232 -10.44149 -10.42406 -10.42134
 Alpha  occ. eigenvalues --  -10.42100 -10.38728 -10.38600 -10.34175 -10.34134
 Alpha  occ. eigenvalues --  -10.33850 -10.33775 -10.32641 -10.29717 -10.29113
 Alpha  occ. eigenvalues --  -10.26765 -10.26689 -10.24874 -10.24043  -1.22487
 Alpha  occ. eigenvalues --   -1.20636  -1.17004  -1.13688  -1.13442  -1.11754
 Alpha  occ. eigenvalues --   -1.11047  -1.09286  -1.04973  -1.02490  -1.01498
 Alpha  occ. eigenvalues --   -0.97730  -0.93827  -0.90687  -0.89479  -0.86420
 Alpha  occ. eigenvalues --   -0.85314  -0.83191  -0.78809  -0.78358  -0.75742
 Alpha  occ. eigenvalues --   -0.74825  -0.73682  -0.72665  -0.71781  -0.70913
 Alpha  occ. eigenvalues --   -0.69800  -0.68785  -0.68341  -0.67780  -0.65453
 Alpha  occ. eigenvalues --   -0.64866  -0.64368  -0.63715  -0.62350  -0.61042
 Alpha  occ. eigenvalues --   -0.60874  -0.60395  -0.59756  -0.59565  -0.58248
 Alpha  occ. eigenvalues --   -0.57940  -0.57646  -0.57171  -0.56801  -0.56250
 Alpha  occ. eigenvalues --   -0.55345  -0.54866  -0.53806  -0.53472  -0.53093
 Alpha  occ. eigenvalues --   -0.52701  -0.52295  -0.51405  -0.50575  -0.50371
 Alpha  occ. eigenvalues --   -0.50084  -0.49896  -0.49217  -0.48881  -0.48575
 Alpha  occ. eigenvalues --   -0.48011  -0.47460  -0.46782  -0.46058  -0.45549
 Alpha  occ. eigenvalues --   -0.44987  -0.44123  -0.44112  -0.43828  -0.41996
 Alpha  occ. eigenvalues --   -0.41702  -0.41220  -0.40526  -0.40011  -0.39476
 Alpha  occ. eigenvalues --   -0.38937  -0.38298  -0.38081  -0.37773  -0.36200
 Alpha  occ. eigenvalues --   -0.35444  -0.34135
 Alpha virt. eigenvalues --   -0.11574  -0.11554  -0.09094  -0.08324  -0.07826
 Alpha virt. eigenvalues --   -0.07337  -0.05805  -0.04887  -0.03784  -0.02640
 Alpha virt. eigenvalues --   -0.01479  -0.01273  -0.01113  -0.00338   0.00968

 Mulliken charges:
               1
     1  N   -0.791978
     2  H    0.442907
     3  H    0.404900
     4  H    0.381313
     5  C   -0.093453
     6  H    0.176192
     7  C    0.653809
     8  C   -0.303949
     9  H    0.193731
    10  H    0.185560
    11  O   -0.508754
    12  C   -0.354715
    13  H    0.216234
    14  H    0.194240
    15  C    0.568838
    16  O   -0.415487
    17  O   -0.587984
    18  N   -0.645481
    19  H    0.375599
    20  C   -0.055849
    21  H    0.153222
    22  C    0.632712
    23  C   -0.265644
    24  H    0.200713
    25  H    0.135298
    26  O   -0.506373
    27  C   -0.089682
    28  H    0.139480
    29  C   -0.452792
    30  H    0.148008
    31  H    0.164694
    32  H    0.130654
    33  C   -0.446837
    34  H    0.146194
    35  H    0.155028
    36  H    0.156048
    37  N   -0.626818
    38  H    0.352968
    39  C   -0.041126
    40  H    0.212654
    41  C    0.585904
    42  C   -0.272808
    43  H    0.176106
    44  H    0.146067
    45  O   -0.460629
    46  C   -0.266051
    47  H    0.189883
    48  H    0.121448
    49  C   -0.159786
    50  H    0.167267
    51  H    0.169522
    52  N   -0.579084
    53  H    0.329010
    54  N   -0.742370
    55  H    0.356879
    56  H    0.361515
    57  N   -0.774165
    58  H    0.307650
    59  C    0.707420
    60  O   -0.556407
    61  H    0.430838
    62  H    0.427720
 Sum of Mulliken charges =   1.00000

 Dipole moment (field-independent basis, Debye):
    X=              5.0462    Y=              5.4090    Z=            -13.8996  Tot=             15.7455
 Quadrupole moment (field-independent basis, Debye-Ang):
   XX=           -129.8660   YY=           -132.9952   ZZ=            -96.8087
   XY=             27.6872   XZ=            -28.6386   YZ=              4.5765

 Normal termination of Gaussian 16 at Thu May 26 19:18:10 2022.
