 Gaussian 16, Revision C.01,
 Gaussian 16:  ES64L-G16RevC.01  3-Jul-2019

 -------------------------------------------------------------------
 # B3LYP/6-31G* guess=read geom=check nosymm integral(ultrafinegrid)
 -------------------------------------------------------------------

 ------------------------------------------------------
 Candidate Structure: Conf:288 Charge calc in gas phase
 ------------------------------------------------------
 Structure from the checkpoint file:  "conf-288.chk"
 Charge =  1 Multiplicity = 1

                          Input orientation:
 ---------------------------------------------------------------------
 Center     Atomic      Atomic             Coordinates (Angstroms)
 Number     Number       Type             X           Y           Z
 ---------------------------------------------------------------------
      1          7           0        1.213933   -1.542731   -2.503987
      2          1           0        1.660032   -1.144963   -1.649919
      3          1           0        1.306641   -2.559878   -2.416667
      4          1           0        1.763431   -1.183622   -3.385397
      5          6           0       -0.260066   -1.179974   -2.520461
      6          1           0       -0.310776   -0.175472   -2.954129
      7          6           0       -0.643706   -1.195522   -1.015260
      8          6           0       -1.038376   -2.181204   -3.369165
      9          1           0       -0.983528   -3.159294   -2.876152
     10          1           0       -0.568026   -2.270113   -4.353804
     11          8           0       -0.700850   -2.264879   -0.437543
     12          6           0       -2.508411   -1.769074   -3.536655
     13          1           0       -3.014607   -1.683932   -2.571269
     14          1           0       -2.570511   -0.786727   -4.026284
     15          6           0       -3.335861   -2.729787   -4.375327
     16          8           0       -4.498374   -2.984343   -4.179183
     17          8           0       -2.621645   -3.249654   -5.404715
     18          7           0       -0.781904    0.048298   -0.438012
     19          1           0       -0.761471    0.812597   -1.103699
     20          6           0       -0.131530    0.421998    0.840892
     21          1           0       -0.541098    1.402504    1.103193
     22          6           0        1.362840    0.549041    0.479422
     23          6           0       -0.373496   -0.559435    1.996695
     24          1           0        0.070945   -1.522404    1.735883
     25          1           0       -1.455123   -0.720393    2.078811
     26          8           0        1.966283   -0.413616   -0.016761
     27          6           0        0.189998   -0.074309    3.350562
     28          1           0        1.260375    0.150390    3.220030
     29          6           0       -0.502902    1.195917    3.869908
     30          1           0       -1.582043    1.034876    3.984477
     31          1           0       -0.104571    1.479127    4.849862
     32          1           0       -0.367007    2.062453    3.209485
     33          6           0        0.077192   -1.206560    4.382861
     34          1           0       -0.971951   -1.476759    4.555319
     35          1           0        0.604024   -2.106842    4.047788
     36          1           0        0.504940   -0.903580    5.344489
     37          7           0        1.937718    1.765149    0.608216
     38          1           0        1.469526    2.492854    1.133532
     39          6           0        3.311713    2.007286    0.163268
     40          1           0        3.824453    1.041461    0.211978
     41          6           0        4.068533    2.958589    1.084433
     42          6           0        3.403036    2.530305   -1.299227
     43          1           0        4.463766    2.514834   -1.571134
     44          1           0        3.081342    3.579626   -1.337333
     45          8           0        5.222992    3.260183    0.908201
     46          6           0        2.567879    1.701060   -2.283484
     47          1           0        2.765640    0.643282   -2.107727
     48          1           0        1.504277    1.876756   -2.072526
     49          6           0        2.814001    1.978802   -3.775904
     50          1           0        3.022777    3.039926   -3.947863
     51          1           0        1.916433    1.723600   -4.348739
     52          7           0        3.928909    1.208857   -4.328898
     53          1           0        4.742227    1.733552   -4.613880
     54          7           0        4.696030   -0.368435   -5.850472
     55          1           0        4.842725   -1.356228   -6.003896
     56          1           0        5.531109    0.190571   -5.957865
     57          7           0        2.689569   -0.741284   -4.670960
     58          1           0        2.653728   -1.533988   -5.310820
     59          6           0        3.741746   -0.004744   -4.931160
     60          8           0        3.303519    3.446239    2.088084
     61          1           0        3.866400    4.050479    2.610482
     62          1           0       -3.232629   -3.828749   -5.900035
 ---------------------------------------------------------------------

 SCF Done:  E(RB3LYP) =  -1447.39463103     A.U. after    1 cycles

 Alpha  occ. eigenvalues --  -19.30945 -19.28259 -19.24810 -19.24623 -19.24448
 Alpha  occ. eigenvalues --  -19.22259 -14.54176 -14.49445 -14.48457 -14.48012
 Alpha  occ. eigenvalues --  -14.47625 -14.42410 -10.43191 -10.42285 -10.41742
 Alpha  occ. eigenvalues --  -10.41633 -10.40861 -10.37892 -10.35789 -10.35573
 Alpha  occ. eigenvalues --  -10.34134 -10.31547 -10.30871 -10.30652 -10.30578
 Alpha  occ. eigenvalues --  -10.27937 -10.27830 -10.25941 -10.24878  -1.21597
 Alpha  occ. eigenvalues --   -1.18979  -1.17136  -1.16013  -1.12622  -1.11011
 Alpha  occ. eigenvalues --   -1.10030  -1.09321  -1.05428  -1.04860  -1.01738
 Alpha  occ. eigenvalues --   -0.97161  -0.92449  -0.91936  -0.90384  -0.87126
 Alpha  occ. eigenvalues --   -0.85405  -0.83210  -0.79990  -0.77040  -0.76278
 Alpha  occ. eigenvalues --   -0.74939  -0.74559  -0.72262  -0.71567  -0.71109
 Alpha  occ. eigenvalues --   -0.70073  -0.69119  -0.68576  -0.67763  -0.67078
 Alpha  occ. eigenvalues --   -0.65963  -0.64973  -0.63807  -0.62807  -0.61901
 Alpha  occ. eigenvalues --   -0.60889  -0.59901  -0.59324  -0.58846  -0.58499
 Alpha  occ. eigenvalues --   -0.57899  -0.57345  -0.57077  -0.56172  -0.55778
 Alpha  occ. eigenvalues --   -0.55311  -0.55028  -0.54562  -0.53598  -0.53137
 Alpha  occ. eigenvalues --   -0.52878  -0.52576  -0.51736  -0.51366  -0.50586
 Alpha  occ. eigenvalues --   -0.50194  -0.49766  -0.49454  -0.48633  -0.47970
 Alpha  occ. eigenvalues --   -0.47561  -0.47373  -0.47137  -0.46279  -0.46204
 Alpha  occ. eigenvalues --   -0.46175  -0.45657  -0.44819  -0.42676  -0.42082
 Alpha  occ. eigenvalues --   -0.41677  -0.41385  -0.41113  -0.40223  -0.40069
 Alpha  occ. eigenvalues --   -0.39655  -0.38270  -0.37738  -0.37372  -0.36376
 Alpha  occ. eigenvalues --   -0.35828  -0.35633
 Alpha virt. eigenvalues --   -0.13682  -0.09983  -0.09612  -0.08083  -0.07679
 Alpha virt. eigenvalues --   -0.07018  -0.06112  -0.04901  -0.04440  -0.01998
 Alpha virt. eigenvalues --   -0.01701  -0.01299  -0.00625   0.00315   0.00517

 Mulliken charges:
               1
     1  N   -0.836383
     2  H    0.447153
     3  H    0.390845
     4  H    0.453485
     5  C   -0.083931
     6  H    0.171130
     7  C    0.600058
     8  C   -0.282769
     9  H    0.191022
    10  H    0.182432
    11  O   -0.467427
    12  C   -0.370095
    13  H    0.203767
    14  H    0.182933
    15  C    0.584042
    16  O   -0.432696
    17  O   -0.567742
    18  N   -0.586406
    19  H    0.331238
    20  C   -0.070261
    21  H    0.161039
    22  C    0.635877
    23  C   -0.261284
    24  H    0.189537
    25  H    0.166101
    26  O   -0.562679
    27  C   -0.093354
    28  H    0.127595
    29  C   -0.451129
    30  H    0.159972
    31  H    0.165743
    32  H    0.119528
    33  C   -0.446678
    34  H    0.155804
    35  H    0.154572
    36  H    0.157332
    37  N   -0.603584
    38  H    0.365117
    39  C   -0.066881
    40  H    0.222502
    41  C    0.600712
    42  C   -0.270966
    43  H    0.183870
    44  H    0.156982
    45  O   -0.436649
    46  C   -0.267390
    47  H    0.155814
    48  H    0.120477
    49  C   -0.147411
    50  H    0.170339
    51  H    0.175474
    52  N   -0.590352
    53  H    0.340400
    54  N   -0.757856
    55  H    0.354094
    56  H    0.348611
    57  N   -0.765938
    58  H    0.305681
    59  C    0.707736
    60  O   -0.579605
    61  H    0.435141
    62  H    0.425313
 Sum of Mulliken charges =   1.00000

 Dipole moment (field-independent basis, Debye):
    X=             11.0447    Y=              3.1538    Z=            -12.3346  Tot=             16.8545
 Quadrupole moment (field-independent basis, Debye-Ang):
   XX=           -137.6972   YY=           -142.3503   ZZ=            -83.0458
   XY=              2.1300   XZ=            -44.7502   YZ=             20.6291

 Normal termination of Gaussian 16 at Thu May 26 19:10:56 2022.
