 Gaussian 16, Revision C.01,
 Gaussian 16:  ES64L-G16RevC.01  3-Jul-2019

 -------------------------------------------------------------------
 # B3LYP/6-31G* guess=read geom=check nosymm integral(ultrafinegrid)
 -------------------------------------------------------------------

 ------------------------------------------------------
 Candidate Structure: Conf:538 Charge calc in gas phase
 ------------------------------------------------------
 Structure from the checkpoint file:  "conf-538.chk"
 Charge =  1 Multiplicity = 1

                          Input orientation:
 ---------------------------------------------------------------------
 Center     Atomic      Atomic             Coordinates (Angstroms)
 Number     Number       Type             X           Y           Z
 ---------------------------------------------------------------------
      1          7           0       -2.895035   -1.573423   -3.904464
      2          1           0       -3.632698   -2.127551   -3.460458
      3          1           0       -2.997510   -0.556766   -3.597280
      4          1           0       -2.977315   -1.669162   -4.920436
      5          6           0       -1.500759   -1.902199   -3.389806
      6          1           0       -1.549987   -2.869399   -2.882751
      7          6           0       -1.272189   -0.749580   -2.365376
      8          6           0       -0.539533   -1.962203   -4.590869
      9          1           0       -0.465549   -0.963060   -5.034555
     10          1           0       -1.000377   -2.635276   -5.325657
     11          8           0       -2.025716    0.233699   -2.455031
     12          6           0        0.878518   -2.474522   -4.287698
     13          1           0        0.915100   -3.103397   -3.387637
     14          1           0        1.215259   -3.126096   -5.099168
     15          6           0        1.911017   -1.350464   -4.138667
     16          8           0        1.579838   -0.183419   -3.981824
     17          8           0        3.126612   -1.835738   -4.215693
     18          7           0       -0.354143   -0.931271   -1.422783
     19          1           0        0.353028   -1.661398   -1.507733
     20          6           0        0.027877    0.101728   -0.454800
     21          1           0       -0.304247    1.067133   -0.844368
     22          6           0        1.564682    0.044344   -0.387730
     23          6           0       -0.570394   -0.166923    0.946444
     24          1           0       -0.101083    0.530329    1.654223
     25          1           0       -0.250598   -1.171376    1.253460
     26          8           0        2.161065   -0.976362   -0.727932
     27          6           0       -2.102799   -0.047293    1.064508
     28          1           0       -2.555082   -0.703151    0.305539
     29          6           0       -2.550463   -0.551933    2.445407
     30          1           0       -2.123135    0.064240    3.246333
     31          1           0       -3.640676   -0.508923    2.542675
     32          1           0       -2.237189   -1.588104    2.618464
     33          6           0       -2.600804    1.384512    0.816970
     34          1           0       -2.147287    2.085229    1.530055
     35          1           0       -2.380497    1.730417   -0.198122
     36          1           0       -3.686704    1.441942    0.950556
     37          7           0        2.167545    1.163778    0.078172
     38          1           0        1.589364    1.927849    0.403203
     39          6           0        3.603919    1.261973    0.285723
     40          1           0        4.027787    0.344486   -0.130849
     41          6           0        4.009351    1.284208    1.760378
     42          6           0        4.215442    2.492900   -0.427041
     43          1           0        5.298657    2.445622   -0.267894
     44          1           0        3.882860    3.406719    0.083843
     45          8           0        5.160366    1.294966    2.126075
     46          6           0        3.853772    2.603748   -1.917873
     47          1           0        2.773045    2.757245   -2.012166
     48          1           0        4.331533    3.502880   -2.326370
     49          6           0        4.214843    1.397583   -2.786295
     50          1           0        3.761406    1.510889   -3.773887
     51          1           0        3.791981    0.476282   -2.366825
     52          7           0        5.659068    1.275286   -2.969035
     53          1           0        6.243946    1.522310   -2.180883
     54          7           0        7.550620    0.259098   -3.814843
     55          1           0        7.962193   -0.380688   -4.481114
     56          1           0        8.020724    1.155786   -3.784122
     57          7           0        5.379504   -0.519526   -4.416906
     58          1           0        5.889726   -1.105363   -5.075503
     59          6           0        6.165854    0.292327   -3.778466
     60          8           0        2.953063    1.321316    2.605260
     61          1           0        3.325390    1.348063    3.508280
     62          1           0        3.903131   -1.143384   -4.199371
 ---------------------------------------------------------------------

 SCF Done:  E(RB3LYP) =  -1447.40365458     A.U. after    2 cycles

 Alpha  occ. eigenvalues --  -19.28743 -19.26928 -19.23987 -19.22610 -19.22510
 Alpha  occ. eigenvalues --  -19.21025 -14.59985 -14.49493 -14.46975 -14.43354
 Alpha  occ. eigenvalues --  -14.43222 -14.38343 -10.43735 -10.40947 -10.40851
 Alpha  occ. eigenvalues --  -10.39722 -10.39549 -10.37510 -10.34661 -10.33540
 Alpha  occ. eigenvalues --  -10.33376 -10.30705 -10.28998 -10.28851 -10.28493
 Alpha  occ. eigenvalues --  -10.28246 -10.27223 -10.25614 -10.25536  -1.19413
 Alpha  occ. eigenvalues --   -1.19388  -1.16004  -1.14653  -1.13732  -1.10377
 Alpha  occ. eigenvalues --   -1.07799  -1.06572  -1.06083  -1.03497  -0.97349
 Alpha  occ. eigenvalues --   -0.94069  -0.93159  -0.91058  -0.88931  -0.86625
 Alpha  occ. eigenvalues --   -0.84751  -0.82633  -0.78505  -0.76747  -0.76515
 Alpha  occ. eigenvalues --   -0.75634  -0.73971  -0.72530  -0.71827  -0.70883
 Alpha  occ. eigenvalues --   -0.69630  -0.69199  -0.67660  -0.66999  -0.66164
 Alpha  occ. eigenvalues --   -0.64545  -0.63280  -0.62455  -0.61566  -0.60455
 Alpha  occ. eigenvalues --   -0.59929  -0.59083  -0.58525  -0.57996  -0.57129
 Alpha  occ. eigenvalues --   -0.56543  -0.56277  -0.55425  -0.55253  -0.54391
 Alpha  occ. eigenvalues --   -0.53989  -0.53438  -0.53137  -0.52647  -0.51919
 Alpha  occ. eigenvalues --   -0.51452  -0.51017  -0.50716  -0.50366  -0.49782
 Alpha  occ. eigenvalues --   -0.49073  -0.48904  -0.48322  -0.47948  -0.47446
 Alpha  occ. eigenvalues --   -0.46663  -0.46603  -0.46279  -0.45189  -0.44521
 Alpha  occ. eigenvalues --   -0.43507  -0.42747  -0.42484  -0.42193  -0.41674
 Alpha  occ. eigenvalues --   -0.41497  -0.41352  -0.40313  -0.39276  -0.38365
 Alpha  occ. eigenvalues --   -0.37868  -0.36662  -0.36336  -0.34864  -0.34490
 Alpha  occ. eigenvalues --   -0.33819  -0.31751
 Alpha virt. eigenvalues --   -0.12488  -0.11192  -0.08240  -0.07715  -0.06872
 Alpha virt. eigenvalues --   -0.05957  -0.05162  -0.03577  -0.03059  -0.01692
 Alpha virt. eigenvalues --   -0.01221  -0.00629  -0.00262   0.00391   0.00985

 Mulliken charges:
               1
     1  N   -0.758145
     2  H    0.414983
     3  H    0.436284
     4  H    0.412337
     5  C   -0.120911
     6  H    0.212023
     7  C    0.676466
     8  C   -0.284650
     9  H    0.208836
    10  H    0.162062
    11  O   -0.543652
    12  C   -0.385047
    13  H    0.179963
    14  H    0.205420
    15  C    0.616424
    16  O   -0.510271
    17  O   -0.605663
    18  N   -0.590254
    19  H    0.373893
    20  C   -0.093989
    21  H    0.196072
    22  C    0.655059
    23  C   -0.259360
    24  H    0.157140
    25  H    0.155830
    26  O   -0.536445
    27  C   -0.067579
    28  H    0.109991
    29  C   -0.446761
    30  H    0.153900
    31  H    0.156540
    32  H    0.147866
    33  C   -0.463006
    34  H    0.145329
    35  H    0.161260
    36  H    0.158056
    37  N   -0.595286
    38  H    0.344366
    39  C   -0.072609
    40  H    0.226350
    41  C    0.599284
    42  C   -0.296964
    43  H    0.175311
    44  H    0.155340
    45  O   -0.443592
    46  C   -0.293387
    47  H    0.152606
    48  H    0.163200
    49  C   -0.129617
    50  H    0.188714
    51  H    0.174457
    52  N   -0.612425
    53  H    0.333866
    54  N   -0.762103
    55  H    0.340539
    56  H    0.342607
    57  N   -0.739142
    58  H    0.298527
    59  C    0.689158
    60  O   -0.573451
    61  H    0.426155
    62  H    0.478094
 Sum of Mulliken charges =   1.00000

 Dipole moment (field-independent basis, Debye):
    X=             -1.2285    Y=             -3.6419    Z=            -13.2862  Tot=             13.8309
 Quadrupole moment (field-independent basis, Debye-Ang):
   XX=            -82.5506   YY=           -146.3240   ZZ=            -95.5041
   XY=             34.5859   XZ=              0.8424   YZ=             31.3105

 Normal termination of Gaussian 16 at Thu May 26 19:11:18 2022.
