 Gaussian 16, Revision C.01,
 Gaussian 16:  ES64L-G16RevC.01  3-Jul-2019

 -------------------------------------------------------------------
 # B3LYP/6-31G* guess=read geom=check nosymm integral(ultrafinegrid)
 -------------------------------------------------------------------

 ------------------------------------------------------
 Candidate Structure: Conf:234 Charge calc in gas phase
 ------------------------------------------------------
 Structure from the checkpoint file:  "conf-234.chk"
 Charge =  1 Multiplicity = 1

                          Input orientation:
 ---------------------------------------------------------------------
 Center     Atomic      Atomic             Coordinates (Angstroms)
 Number     Number       Type             X           Y           Z
 ---------------------------------------------------------------------
      1          7           0       -0.833028    0.679690   -4.539558
      2          1           0       -1.060910    1.584171   -4.096488
      3          1           0        0.181472    0.753697   -4.916853
      4          1           0       -1.447122    0.464724   -5.339872
      5          6           0       -1.067543   -0.370359   -3.496011
      6          1           0       -2.137234   -0.598843   -3.543428
      7          6           0       -0.798955    0.332890   -2.144579
      8          6           0       -0.258339   -1.654687   -3.747689
      9          1           0       -0.678848   -2.437303   -3.105526
     10          1           0        0.781141   -1.508913   -3.433950
     11          8           0       -0.755707    1.563739   -2.121950
     12          6           0       -0.244007   -2.169789   -5.208151
     13          1           0        0.408553   -1.520568   -5.803822
     14          1           0        0.183435   -3.174450   -5.227564
     15          6           0       -1.601402   -2.174845   -5.883113
     16          8           0       -2.268153   -1.170322   -6.091158
     17          8           0       -2.004820   -3.395420   -6.243127
     18          7           0       -0.678163   -0.447408   -1.050832
     19          1           0       -0.496407   -1.434428   -1.182166
     20          6           0       -0.168952    0.119243    0.210458
     21          1           0       -0.726775    1.040290    0.391689
     22          6           0        1.327024    0.418982   -0.023901
     23          6           0       -0.351610   -0.874538    1.365510
     24          1           0        0.096777   -0.421716    2.260188
     25          1           0        0.253526   -1.764058    1.143338
     26          8           0        2.075681   -0.465292   -0.436600
     27          6           0       -1.805422   -1.283155    1.679955
     28          1           0       -2.246701   -1.710556    0.766776
     29          6           0       -1.810658   -2.376597    2.759216
     30          1           0       -1.386844   -2.002339    3.699428
     31          1           0       -2.831204   -2.715399    2.967561
     32          1           0       -1.222367   -3.249403    2.452523
     33          6           0       -2.671476   -0.089118    2.108133
     34          1           0       -2.256894    0.395877    3.001120
     35          1           0       -2.757584    0.669740    1.321850
     36          1           0       -3.687046   -0.417930    2.353550
     37          7           0        1.706829    1.697243    0.197094
     38          1           0        1.046800    2.377201    0.556311
     39          6           0        3.051661    2.194608   -0.039877
     40          1           0        3.762167    1.382696    0.143142
     41          6           0        3.296444    3.317819    0.963530
     42          6           0        3.236264    2.735400   -1.483089
     43          1           0        4.173281    3.304285   -1.522828
     44          1           0        2.421087    3.444293   -1.681028
     45          8           0        2.419013    3.881725    1.579612
     46          6           0        3.261780    1.637175   -2.556231
     47          1           0        4.157953    1.018717   -2.414494
     48          1           0        2.409449    0.963041   -2.445274
     49          6           0        3.265317    2.228261   -3.972562
     50          1           0        3.985354    3.055917   -4.032091
     51          1           0        2.284578    2.634836   -4.231091
     52          7           0        3.619713    1.253468   -5.000712
     53          1           0        4.573946    0.919429   -5.000764
     54          7           0        3.519282    0.204689   -7.036104
     55          1           0        2.979656   -0.159070   -7.809078
     56          1           0        4.403794    0.614299   -7.309308
     57          7           0        1.514365    0.874133   -5.955861
     58          1           0        1.129974    0.698180   -6.884309
     59          6           0        2.822790    0.797390   -6.000717
     60          8           0        4.600586    3.633719    1.048479
     61          1           0        4.678303    4.376326    1.678494
     62          1           0       -2.874089   -3.309419   -6.683562
 ---------------------------------------------------------------------

 SCF Done:  E(RB3LYP) =  -1447.42374969     A.U. after    2 cycles

 Alpha  occ. eigenvalues --  -19.32324 -19.28932 -19.27164 -19.24936 -19.23427
 Alpha  occ. eigenvalues --  -19.20656 -14.53699 -14.48408 -14.46946 -14.46842
 Alpha  occ. eigenvalues --  -14.45601 -14.41978 -10.45323 -10.41978 -10.41596
 Alpha  occ. eigenvalues --  -10.41437 -10.38293 -10.38064 -10.33968 -10.33443
 Alpha  occ. eigenvalues --  -10.33414 -10.33080 -10.32514 -10.28894 -10.28190
 Alpha  occ. eigenvalues --  -10.27846 -10.27411 -10.25006 -10.24680  -1.23499
 Alpha  occ. eigenvalues --   -1.19951  -1.17099  -1.14399  -1.12765  -1.11076
 Alpha  occ. eigenvalues --   -1.10159  -1.09180  -1.04741  -1.02159  -1.00659
 Alpha  occ. eigenvalues --   -0.96539  -0.93701  -0.90453  -0.89438  -0.86919
 Alpha  occ. eigenvalues --   -0.85174  -0.82990  -0.78596  -0.78140  -0.75890
 Alpha  occ. eigenvalues --   -0.74472  -0.72357  -0.72003  -0.71802  -0.70306
 Alpha  occ. eigenvalues --   -0.70199  -0.69390  -0.67868  -0.67373  -0.66092
 Alpha  occ. eigenvalues --   -0.65341  -0.64330  -0.62989  -0.62617  -0.61498
 Alpha  occ. eigenvalues --   -0.60341  -0.59597  -0.59300  -0.58598  -0.58121
 Alpha  occ. eigenvalues --   -0.57701  -0.57463  -0.56742  -0.56445  -0.55825
 Alpha  occ. eigenvalues --   -0.54812  -0.54188  -0.53986  -0.53699  -0.53386
 Alpha  occ. eigenvalues --   -0.52931  -0.51468  -0.51346  -0.50766  -0.50043
 Alpha  occ. eigenvalues --   -0.49850  -0.49165  -0.48825  -0.48634  -0.48309
 Alpha  occ. eigenvalues --   -0.47618  -0.47302  -0.46714  -0.45775  -0.45691
 Alpha  occ. eigenvalues --   -0.44862  -0.44438  -0.44343  -0.43294  -0.41032
 Alpha  occ. eigenvalues --   -0.40980  -0.40884  -0.40808  -0.40752  -0.40635
 Alpha  occ. eigenvalues --   -0.39107  -0.38544  -0.37513  -0.37062  -0.35099
 Alpha  occ. eigenvalues --   -0.34602  -0.33981
 Alpha virt. eigenvalues --   -0.12530  -0.11123  -0.08462  -0.07416  -0.06994
 Alpha virt. eigenvalues --   -0.06030  -0.04664  -0.03348  -0.02433  -0.01051
 Alpha virt. eigenvalues --   -0.00809  -0.00729  -0.00012   0.00111   0.00660

 Mulliken charges:
               1
     1  N   -0.796080
     2  H    0.405293
     3  H    0.435404
     4  H    0.410697
     5  C   -0.102524
     6  H    0.222467
     7  C    0.653793
     8  C   -0.319674
     9  H    0.182948
    10  H    0.207819
    11  O   -0.533318
    12  C   -0.373378
    13  H    0.191300
    14  H    0.210203
    15  C    0.596683
    16  O   -0.486910
    17  O   -0.530021
    18  N   -0.591743
    19  H    0.351588
    20  C   -0.067710
    21  H    0.180633
    22  C    0.636410
    23  C   -0.294645
    24  H    0.163316
    25  H    0.159786
    26  O   -0.549853
    27  C   -0.073504
    28  H    0.118270
    29  C   -0.445182
    30  H    0.154427
    31  H    0.157704
    32  H    0.145883
    33  C   -0.454465
    34  H    0.153321
    35  H    0.143765
    36  H    0.161399
    37  N   -0.596899
    38  H    0.358763
    39  C   -0.043531
    40  H    0.205046
    41  C    0.584391
    42  C   -0.276108
    43  H    0.170233
    44  H    0.158175
    45  O   -0.456161
    46  C   -0.265026
    47  H    0.151910
    48  H    0.162215
    49  C   -0.137611
    50  H    0.163913
    51  H    0.179154
    52  N   -0.594213
    53  H    0.341577
    54  N   -0.756559
    55  H    0.344276
    56  H    0.349758
    57  N   -0.749752
    58  H    0.293179
    59  C    0.685002
    60  O   -0.559059
    61  H    0.429134
    62  H    0.434092
 Sum of Mulliken charges =   1.00000

 Dipole moment (field-independent basis, Debye):
    X=              4.3545    Y=              0.0316    Z=            -20.0796  Tot=             20.5463
 Quadrupole moment (field-independent basis, Debye-Ang):
   XX=           -121.5980   YY=           -150.2704   ZZ=            -31.5272
   XY=             31.5728   XZ=            -22.6876   YZ=              9.6022

 Normal termination of Gaussian 16 at Thu May 26 19:11:07 2022.
