 Gaussian 16, Revision C.01,
 Gaussian 16:  ES64L-G16RevC.01  3-Jul-2019

 -------------------------------------------------------------------
 # B3LYP/6-31G* guess=read geom=check nosymm integral(ultrafinegrid)
 -------------------------------------------------------------------

 ------------------------------------------------------
 Candidate Structure: Conf:669 Charge calc in gas phase
 ------------------------------------------------------
 Structure from the checkpoint file:  "conf-669.chk"
 Charge =  1 Multiplicity = 1

                          Input orientation:
 ---------------------------------------------------------------------
 Center     Atomic      Atomic             Coordinates (Angstroms)
 Number     Number       Type             X           Y           Z
 ---------------------------------------------------------------------
      1          7           0       -2.281280   -0.857021   -4.384317
      2          1           0       -2.893502   -1.673228   -4.477662
      3          1           0       -2.792931   -0.113679   -3.834570
      4          1           0       -2.035018   -0.525268   -5.322036
      5          6           0       -1.062028   -1.115917   -3.520147
      6          1           0       -0.869098   -2.191434   -3.505417
      7          6           0       -1.471151   -0.536854   -2.142159
      8          6           0        0.147680   -0.309028   -4.019922
      9          1           0        0.932517   -0.405704   -3.265253
     10          1           0       -0.128020    0.753686   -4.019322
     11          8           0       -2.410474    0.267732   -2.116783
     12          6           0        0.739010   -0.704248   -5.375765
     13          1           0        1.040506   -1.760047   -5.374784
     14          1           0        0.040129   -0.582570   -6.214126
     15          6           0        1.988301    0.130469   -5.729768
     16          8           0        2.425678    0.160308   -6.861592
     17          8           0        2.487414    0.752652   -4.674460
     18          7           0       -0.687116   -0.886654   -1.117250
     19          1           0        0.130554   -1.463398   -1.324451
     20          6           0       -0.388683    0.000201    0.021140
     21          1           0       -0.968065    0.917155   -0.111029
     22          6           0        1.128948    0.273023   -0.134410
     23          6           0       -0.698186   -0.652515    1.381430
     24          1           0       -0.366239    0.040296    2.167602
     25          1           0       -0.073628   -1.550405    1.476740
     26          8           0        1.839561   -0.572851   -0.685305
     27          6           0       -2.176960   -1.019935    1.616781
     28          1           0       -2.482096   -1.702572    0.810327
     29          6           0       -2.311696   -1.774267    2.948470
     30          1           0       -2.023673   -1.136735    3.793817
     31          1           0       -3.346722   -2.092643    3.112306
     32          1           0       -1.677768   -2.668205    2.972120
     33          6           0       -3.102994    0.205624    1.582723
     34          1           0       -2.799866    0.949576    2.331252
     35          1           0       -3.117644    0.690396    0.600355
     36          1           0       -4.132954   -0.087433    1.813324
     37          7           0        1.605322    1.445030    0.330713
     38          1           0        1.004487    2.075115    0.845521
     39          6           0        3.036513    1.758445    0.246694
     40          1           0        3.582803    0.843753    0.507372
     41          6           0        3.443976    2.808618    1.274233
     42          6           0        3.485694    2.169310   -1.175556
     43          1           0        3.197237    1.361123   -1.855109
     44          1           0        4.579026    2.207432   -1.169818
     45          8           0        4.544258    3.302056    1.319238
     46          6           0        2.918202    3.509176   -1.659244
     47          1           0        1.829294    3.537168   -1.514932
     48          1           0        3.331850    4.327138   -1.053014
     49          6           0        3.179187    3.792982   -3.146406
     50          1           0        2.729457    4.761222   -3.409242
     51          1           0        2.697150    3.034753   -3.763400
     52          7           0        4.595828    3.803437   -3.489679
     53          1           0        5.209055    4.373513   -2.923922
     54          7           0        6.478608    3.510255   -4.781108
     55          1           0        6.923512    3.072932   -5.576651
     56          1           0        6.707615    4.491961   -4.686012
     57          7           0        4.539805    2.209013   -5.194589
     58          1           0        5.044349    1.887513   -6.016105
     59          6           0        5.167826    3.137992   -4.536589
     60          8           0        2.444556    3.134165    2.131182
     61          1           0        2.805831    3.800705    2.747311
     62          1           0        3.346307    1.347983   -4.917305
 ---------------------------------------------------------------------

 SCF Done:  E(RB3LYP) =  -1447.39902814     A.U. after    1 cycles

 Alpha  occ. eigenvalues --  -19.30022 -19.27540 -19.23642 -19.23473 -19.23302
 Alpha  occ. eigenvalues --  -19.19600 -14.60761 -14.49593 -14.47675 -14.44546
 Alpha  occ. eigenvalues --  -14.44168 -14.38862 -10.44083 -10.42146 -10.40951
 Alpha  occ. eigenvalues --  -10.40335 -10.38825 -10.38817 -10.35366 -10.34175
 Alpha  occ. eigenvalues --  -10.32940 -10.30904 -10.30894 -10.28982 -10.28003
 Alpha  occ. eigenvalues --  -10.27974 -10.27793 -10.25567 -10.25239  -1.20630
 Alpha  occ. eigenvalues --   -1.19756  -1.15398  -1.15162  -1.14477  -1.11596
 Alpha  occ. eigenvalues --   -1.07563  -1.06673  -1.06607  -1.03854  -0.98331
 Alpha  occ. eigenvalues --   -0.94403  -0.93918  -0.91147  -0.89230  -0.86885
 Alpha  occ. eigenvalues --   -0.85158  -0.83336  -0.77710  -0.77100  -0.76472
 Alpha  occ. eigenvalues --   -0.75566  -0.74497  -0.73064  -0.72774  -0.72411
 Alpha  occ. eigenvalues --   -0.69711  -0.69402  -0.67868  -0.67653  -0.66791
 Alpha  occ. eigenvalues --   -0.64672  -0.63797  -0.63261  -0.62878  -0.61498
 Alpha  occ. eigenvalues --   -0.59448  -0.58888  -0.58268  -0.58080  -0.57648
 Alpha  occ. eigenvalues --   -0.57183  -0.56549  -0.56089  -0.55985  -0.55275
 Alpha  occ. eigenvalues --   -0.54431  -0.53848  -0.53648  -0.52989  -0.52439
 Alpha  occ. eigenvalues --   -0.52118  -0.51288  -0.50522  -0.50354  -0.50160
 Alpha  occ. eigenvalues --   -0.49977  -0.49149  -0.49033  -0.48039  -0.47797
 Alpha  occ. eigenvalues --   -0.47103  -0.46476  -0.46380  -0.45432  -0.45126
 Alpha  occ. eigenvalues --   -0.44566  -0.43801  -0.42991  -0.42144  -0.41945
 Alpha  occ. eigenvalues --   -0.41650  -0.41479  -0.41117  -0.39778  -0.37839
 Alpha  occ. eigenvalues --   -0.37167  -0.37140  -0.36878  -0.36106  -0.34735
 Alpha  occ. eigenvalues --   -0.33393  -0.32019
 Alpha virt. eigenvalues --   -0.13104  -0.11548  -0.09380  -0.08649  -0.07104
 Alpha virt. eigenvalues --   -0.05188  -0.04338  -0.03988  -0.03267  -0.02526
 Alpha virt. eigenvalues --   -0.02144  -0.00908  -0.00554   0.00518   0.01067

 Mulliken charges:
               1
     1  N   -0.749141
     2  H    0.418704
     3  H    0.429245
     4  H    0.418395
     5  C   -0.125802
     6  H    0.212508
     7  C    0.636687
     8  C   -0.306062
     9  H    0.232067
    10  H    0.176962
    11  O   -0.525811
    12  C   -0.387288
    13  H    0.191303
    14  H    0.154456
    15  C    0.606251
    16  O   -0.473939
    17  O   -0.631241
    18  N   -0.569512
    19  H    0.367870
    20  C   -0.106972
    21  H    0.188170
    22  C    0.641011
    23  C   -0.258469
    24  H    0.151283
    25  H    0.159528
    26  O   -0.537463
    27  C   -0.071436
    28  H    0.129220
    29  C   -0.447189
    30  H    0.151639
    31  H    0.159369
    32  H    0.150410
    33  C   -0.466472
    34  H    0.144711
    35  H    0.156219
    36  H    0.162349
    37  N   -0.616917
    38  H    0.361306
    39  C   -0.057001
    40  H    0.219612
    41  C    0.594653
    42  C   -0.265286
    43  H    0.186051
    44  H    0.178446
    45  O   -0.444131
    46  C   -0.296916
    47  H    0.135918
    48  H    0.154878
    49  C   -0.132788
    50  H    0.158030
    51  H    0.185956
    52  N   -0.607412
    53  H    0.336074
    54  N   -0.760782
    55  H    0.346229
    56  H    0.340800
    57  N   -0.766670
    58  H    0.314093
    59  C    0.717514
    60  O   -0.584557
    61  H    0.431293
    62  H    0.490051
 Sum of Mulliken charges =   1.00000

 Dipole moment (field-independent basis, Debye):
    X=             -0.6279    Y=              3.8375    Z=            -12.1985  Tot=             12.8032
 Quadrupole moment (field-independent basis, Debye-Ang):
   XX=           -114.6371   YY=           -125.3314   ZZ=           -104.2541
   XY=             49.0766   XZ=              3.9454   YZ=             -1.8478

 Normal termination of Gaussian 16 at Thu May 26 19:18:20 2022.
