 Gaussian 16, Revision C.01,
 Gaussian 16:  ES64L-G16RevC.01  3-Jul-2019

 -------------------------------------------------------------------
 # B3LYP/6-31G* guess=read geom=check nosymm integral(ultrafinegrid)
 -------------------------------------------------------------------

 ------------------------------------------------------
 Candidate Structure: Conf:448 Charge calc in gas phase
 ------------------------------------------------------
 Structure from the checkpoint file:  "conf-448.chk"
 Charge =  1 Multiplicity = 1

                          Input orientation:
 ---------------------------------------------------------------------
 Center     Atomic      Atomic             Coordinates (Angstroms)
 Number     Number       Type             X           Y           Z
 ---------------------------------------------------------------------
      1          7           0       -3.395312   -0.982292   -3.601119
      2          1           0       -3.861694   -1.893308   -3.604144
      3          1           0       -3.747087   -0.400861   -2.769829
      4          1           0       -3.598365   -0.510027   -4.486161
      5          6           0       -1.911358   -1.057738   -3.287059
      6          1           0       -1.629902   -2.113776   -3.255042
      7          6           0       -1.846166   -0.428016   -1.861087
      8          6           0       -1.076810   -0.289058   -4.318145
      9          1           0       -0.054799   -0.204989   -3.935162
     10          1           0       -1.440659    0.743699   -4.388584
     11          8           0       -2.885992    0.096367   -1.427093
     12          6           0       -1.035615   -0.941052   -5.704630
     13          1           0       -0.627046   -1.958371   -5.655270
     14          1           0       -2.028800   -1.039253   -6.164818
     15          6           0       -0.169990   -0.127716   -6.657362
     16          8           0        0.412410    0.887214   -6.353830
     17          8           0       -0.142089   -0.689217   -7.878789
     18          7           0       -0.680002   -0.510933   -1.241352
     19          1           0        0.161146   -0.835694   -1.729184
     20          6           0       -0.307408    0.171719    0.002755
     21          1           0       -0.937403    1.058942    0.114358
     22          6           0        1.173126    0.569826   -0.231915
     23          6           0       -0.421683   -0.747862    1.239902
     24          1           0        0.054670   -0.233664    2.085561
     25          1           0        0.189416   -1.638842    1.044191
     26          8           0        1.807125    0.017664   -1.135229
     27          6           0       -1.847426   -1.171053    1.646909
     28          1           0       -2.330238   -1.635947    0.774846
     29          6           0       -1.766384   -2.230243    2.757583
     30          1           0       -1.288601   -1.821337    3.656609
     31          1           0       -2.766501   -2.574084    3.042728
     32          1           0       -1.186921   -3.105157    2.440523
     33          6           0       -2.709173    0.020698    2.089700
     34          1           0       -2.248718    0.543694    2.937932
     35          1           0       -2.866899    0.742330    1.281400
     36          1           0       -3.698145   -0.320669    2.414436
     37          7           0        1.668385    1.494252    0.609470
     38          1           0        1.064383    1.838457    1.344925
     39          6           0        3.090608    1.833705    0.713290
     40          1           0        3.671759    1.085164    0.156828
     41          6           0        3.569187    1.750473    2.159506
     42          6           0        3.426477    3.225490    0.133932
     43          1           0        4.476201    3.421691    0.368430
     44          1           0        2.834595    3.986311    0.661357
     45          8           0        4.680332    2.048654    2.523325
     46          6           0        3.199447    3.363301   -1.376881
     47          1           0        2.151235    3.144382   -1.624346
     48          1           0        3.366624    4.414823   -1.643659
     49          6           0        4.094603    2.475146   -2.258801
     50          1           0        3.862634    2.685251   -3.309484
     51          1           0        3.882252    1.417333   -2.082211
     52          7           0        5.524783    2.710300   -2.054893
     53          1           0        6.007417    3.139036   -2.833322
     54          7           0        7.666249    2.069462   -1.461454
     55          1           0        8.241871    1.553229   -0.807675
     56          1           0        7.903928    3.055938   -1.458840
     57          7           0        5.754354    0.819160   -0.716815
     58          1           0        6.447956    0.299800   -0.179371
     59          6           0        6.297842    1.798151   -1.351588
     60          8           0        2.608312    1.313176    3.020897
     61          1           0        3.024189    1.308129    3.904593
     62          1           0        0.430919   -0.135326   -8.443926
 ---------------------------------------------------------------------

 SCF Done:  E(RB3LYP) =  -1447.38256174     A.U. after    2 cycles

 Alpha  occ. eigenvalues --  -19.30446 -19.27975 -19.27768 -19.25130 -19.22446
 Alpha  occ. eigenvalues --  -19.21353 -14.60856 -14.50103 -14.46242 -14.40573
 Alpha  occ. eigenvalues --  -14.40562 -14.34309 -10.44555 -10.43628 -10.41974
 Alpha  occ. eigenvalues --  -10.39694 -10.39443 -10.35062 -10.35033 -10.34093
 Alpha  occ. eigenvalues --  -10.34030 -10.31085 -10.28828 -10.28127 -10.27373
 Alpha  occ. eigenvalues --  -10.25755 -10.25553 -10.25417 -10.25063  -1.21548
 Alpha  occ. eigenvalues --   -1.20295  -1.18273  -1.14803  -1.14190  -1.12793
 Alpha  occ. eigenvalues --   -1.09186  -1.06856  -1.03372  -1.02669  -0.95856
 Alpha  occ. eigenvalues --   -0.94467  -0.91340  -0.89887  -0.88624  -0.87340
 Alpha  occ. eigenvalues --   -0.84757  -0.81179  -0.79931  -0.76660  -0.76183
 Alpha  occ. eigenvalues --   -0.75058  -0.74683  -0.73733  -0.71905  -0.71298
 Alpha  occ. eigenvalues --   -0.69574  -0.68917  -0.67373  -0.65923  -0.65093
 Alpha  occ. eigenvalues --   -0.64249  -0.63711  -0.61810  -0.61113  -0.60421
 Alpha  occ. eigenvalues --   -0.59881  -0.59478  -0.58834  -0.57600  -0.57427
 Alpha  occ. eigenvalues --   -0.57114  -0.56800  -0.55791  -0.54913  -0.54204
 Alpha  occ. eigenvalues --   -0.53759  -0.53680  -0.52930  -0.52448  -0.51917
 Alpha  occ. eigenvalues --   -0.51630  -0.51164  -0.50689  -0.50197  -0.49593
 Alpha  occ. eigenvalues --   -0.49469  -0.48857  -0.48516  -0.47990  -0.47331
 Alpha  occ. eigenvalues --   -0.46737  -0.46427  -0.45985  -0.45138  -0.43974
 Alpha  occ. eigenvalues --   -0.42748  -0.42695  -0.42287  -0.41645  -0.41529
 Alpha  occ. eigenvalues --   -0.41376  -0.41002  -0.40284  -0.39599  -0.39231
 Alpha  occ. eigenvalues --   -0.38844  -0.36978  -0.36283  -0.33770  -0.32763
 Alpha  occ. eigenvalues --   -0.31023  -0.28473
 Alpha virt. eigenvalues --   -0.13118  -0.12498  -0.10095  -0.07892  -0.07299
 Alpha virt. eigenvalues --   -0.06479  -0.05276  -0.02829  -0.02149  -0.01869
 Alpha virt. eigenvalues --   -0.01741  -0.00456  -0.00177   0.00301   0.00671

 Mulliken charges:
               1
     1  N   -0.761361
     2  H    0.417440
     3  H    0.437966
     4  H    0.412876
     5  C   -0.112503
     6  H    0.218596
     7  C    0.654104
     8  C   -0.305621
     9  H    0.226230
    10  H    0.194800
    11  O   -0.542685
    12  C   -0.377083
    13  H    0.206454
    14  H    0.169184
    15  C    0.598293
    16  O   -0.437582
    17  O   -0.555763
    18  N   -0.590779
    19  H    0.375760
    20  C   -0.096935
    21  H    0.190217
    22  C    0.635830
    23  C   -0.259920
    24  H    0.162710
    25  H    0.155910
    26  O   -0.535065
    27  C   -0.070699
    28  H    0.116540
    29  C   -0.446965
    30  H    0.154043
    31  H    0.157136
    32  H    0.147719
    33  C   -0.459848
    34  H    0.146398
    35  H    0.155726
    36  H    0.159562
    37  N   -0.593813
    38  H    0.346822
    39  C   -0.094158
    40  H    0.272061
    41  C    0.592796
    42  C   -0.266352
    43  H    0.193801
    44  H    0.133261
    45  O   -0.443849
    46  C   -0.250211
    47  H    0.122207
    48  H    0.143882
    49  C   -0.157056
    50  H    0.138117
    51  H    0.206661
    52  N   -0.599911
    53  H    0.325853
    54  N   -0.757633
    55  H    0.330295
    56  H    0.328483
    57  N   -0.664474
    58  H    0.277699
    59  C    0.609975
    60  O   -0.590731
    61  H    0.422394
    62  H    0.433196
 Sum of Mulliken charges =   1.00000

 Dipole moment (field-independent basis, Debye):
    X=             -6.2924    Y=             -1.7480    Z=            -13.6475  Tot=             15.1296
 Quadrupole moment (field-independent basis, Debye-Ang):
   XX=           -102.4947   YY=           -151.1444   ZZ=            -76.8969
   XY=             32.1239   XZ=             35.5036   YZ=             13.1162

 Normal termination of Gaussian 16 at Thu May 26 19:11:13 2022.
