 Gaussian 16, Revision C.01,
 Gaussian 16:  ES64L-G16RevC.01  3-Jul-2019

 -------------------------------------------------------------------
 # B3LYP/6-31G* guess=read geom=check nosymm integral(ultrafinegrid)
 -------------------------------------------------------------------

 ------------------------------------------------------
 Candidate Structure: Conf:197 Charge calc in gas phase
 ------------------------------------------------------
 Structure from the checkpoint file:  "conf-197.chk"
 Charge =  1 Multiplicity = 1

                          Input orientation:
 ---------------------------------------------------------------------
 Center     Atomic      Atomic             Coordinates (Angstroms)
 Number     Number       Type             X           Y           Z
 ---------------------------------------------------------------------
      1          7           0       -3.380427   -1.838926   -3.103599
      2          1           0       -3.785817   -2.682620   -2.688382
      3          1           0       -3.624514   -0.998109   -2.490871
      4          1           0       -3.753412   -1.729389   -4.051283
      5          6           0       -1.862496   -1.813993   -3.055891
      6          1           0       -1.514031   -2.822088   -2.816029
      7          6           0       -1.595379   -0.824352   -1.881837
      8          6           0       -1.319995   -1.348514   -4.417203
      9          1           0       -1.631435   -0.312221   -4.597109
     10          1           0       -1.778016   -1.956671   -5.206349
     11          8           0       -2.555967   -0.141514   -1.488509
     12          6           0        0.200907   -1.468440   -4.570014
     13          1           0        0.752967   -0.762264   -3.942192
     14          1           0        0.553430   -2.471015   -4.290328
     15          6           0        0.592905   -1.239404   -6.023041
     16          8           0       -0.192673   -1.163495   -6.940538
     17          8           0        1.926732   -1.145661   -6.156867
     18          7           0       -0.361824   -0.776740   -1.403609
     19          1           0        0.404717   -1.333979   -1.786243
     20          6           0        0.105937    0.154406   -0.369499
     21          1           0       -0.392941    1.115266   -0.523490
     22          6           0        1.621834    0.272543   -0.652932
     23          6           0       -0.221678   -0.401515    1.040336
     24          1           0        0.331165   -1.341418    1.167508
     25          1           0       -1.289514   -0.656367    1.031401
     26          8           0        2.180549   -0.593921   -1.335014
     27          6           0        0.046680    0.525784    2.244793
     28          1           0        1.116459    0.767851    2.279489
     29          6           0       -0.746205    1.840554    2.166639
     30          1           0       -1.824805    1.647405    2.106769
     31          1           0       -0.564673    2.449419    3.058064
     32          1           0       -0.475520    2.457706    1.300171
     33          6           0       -0.290970   -0.228760    3.540913
     34          1           0       -1.355981   -0.490921    3.580126
     35          1           0        0.287868   -1.155397    3.629248
     36          1           0       -0.068077    0.389216    4.416816
     37          7           0        2.245438    1.343634   -0.132347
     38          1           0        1.740811    1.967060    0.488469
     39          6           0        3.694636    1.529557   -0.150952
     40          1           0        4.154790    0.562868   -0.376036
     41          6           0        4.104622    1.964237    1.253694
     42          6           0        4.145052    2.583271   -1.191427
     43          1           0        5.196156    2.826148   -0.999505
     44          1           0        3.564056    3.497096   -1.023114
     45          8           0        3.328415    2.339031    2.107492
     46          6           0        3.983907    2.109106   -2.641447
     47          1           0        4.626607    1.235421   -2.817213
     48          1           0        2.953746    1.768328   -2.812492
     49          6           0        4.323660    3.191739   -3.683182
     50          1           0        4.341270    2.732934   -4.679131
     51          1           0        5.325724    3.589360   -3.499225
     52          7           0        3.381659    4.314304   -3.720662
     53          1           0        2.412257    4.018042   -3.778882
     54          7           0        4.741241    5.917970   -2.704275
     55          1           0        4.783716    6.782983   -2.179598
     56          1           0        5.254527    5.979538   -3.577236
     57          7           0        2.395039    5.740689   -2.191900
     58          1           0        2.540019    6.622892   -1.696259
     59          6           0        3.457644    5.380112   -2.820611
     60          8           0        5.435811    1.914317    1.419943
     61          1           0        5.629376    2.239397    2.320557
     62          1           0        2.115697   -1.026631   -7.108002
 ---------------------------------------------------------------------

 SCF Done:  E(RB3LYP) =  -1447.38192577     A.U. after    3 cycles

 Alpha  occ. eigenvalues --  -19.30167 -19.28960 -19.27750 -19.24822 -19.23558
 Alpha  occ. eigenvalues --  -19.23076 -14.60837 -14.50339 -14.46896 -14.41275
 Alpha  occ. eigenvalues --  -14.40588 -14.34830 -10.44519 -10.43295 -10.41994
 Alpha  occ. eigenvalues --  -10.41524 -10.40173 -10.35301 -10.35019 -10.34330
 Alpha  occ. eigenvalues --  -10.33350 -10.33281 -10.29079 -10.28991 -10.27809
 Alpha  occ. eigenvalues --  -10.27196 -10.26492 -10.25693 -10.25155  -1.21280
 Alpha  occ. eigenvalues --   -1.20207  -1.20043  -1.15136  -1.14507  -1.12461
 Alpha  occ. eigenvalues --   -1.11154  -1.06959  -1.03744  -1.03406  -0.95687
 Alpha  occ. eigenvalues --   -0.95064  -0.91318  -0.90564  -0.88383  -0.88216
 Alpha  occ. eigenvalues --   -0.85066  -0.82421  -0.80021  -0.76908  -0.76159
 Alpha  occ. eigenvalues --   -0.75265  -0.74818  -0.73903  -0.73228  -0.70940
 Alpha  occ. eigenvalues --   -0.70020  -0.68677  -0.68191  -0.66702  -0.66151
 Alpha  occ. eigenvalues --   -0.65277  -0.64329  -0.62522  -0.60740  -0.60186
 Alpha  occ. eigenvalues --   -0.59328  -0.59069  -0.58707  -0.58535  -0.57555
 Alpha  occ. eigenvalues --   -0.57287  -0.56930  -0.56586  -0.56001  -0.55388
 Alpha  occ. eigenvalues --   -0.54740  -0.53467  -0.53099  -0.52930  -0.52766
 Alpha  occ. eigenvalues --   -0.52068  -0.51604  -0.51221  -0.51048  -0.50241
 Alpha  occ. eigenvalues --   -0.49283  -0.49167  -0.48928  -0.48326  -0.47320
 Alpha  occ. eigenvalues --   -0.47117  -0.46500  -0.46339  -0.45450  -0.45068
 Alpha  occ. eigenvalues --   -0.44028  -0.43059  -0.42517  -0.42361  -0.42178
 Alpha  occ. eigenvalues --   -0.41607  -0.41485  -0.41266  -0.40613  -0.39297
 Alpha  occ. eigenvalues --   -0.38538  -0.37597  -0.36723  -0.36103  -0.32637
 Alpha  occ. eigenvalues --   -0.32104  -0.28975
 Alpha virt. eigenvalues --   -0.13136  -0.11904  -0.09821  -0.08810  -0.08245
 Alpha virt. eigenvalues --   -0.07268  -0.05601  -0.02753  -0.01801  -0.01724
 Alpha virt. eigenvalues --   -0.01632  -0.01327  -0.00687  -0.00029   0.00200

 Mulliken charges:
               1
     1  N   -0.759412
     2  H    0.418437
     3  H    0.437031
     4  H    0.417502
     5  C   -0.114167
     6  H    0.214533
     7  C    0.652945
     8  C   -0.291989
     9  H    0.196545
    10  H    0.197357
    11  O   -0.540394
    12  C   -0.391518
    13  H    0.212764
    14  H    0.199343
    15  C    0.595223
    16  O   -0.445337
    17  O   -0.553337
    18  N   -0.607654
    19  H    0.378760
    20  C   -0.082012
    21  H    0.199308
    22  C    0.630525
    23  C   -0.254861
    24  H    0.152291
    25  H    0.157758
    26  O   -0.549038
    27  C   -0.106422
    28  H    0.154513
    29  C   -0.457666
    30  H    0.153773
    31  H    0.173175
    32  H    0.135681
    33  C   -0.447574
    34  H    0.146186
    35  H    0.149533
    36  H    0.165261
    37  N   -0.596405
    38  H    0.370002
    39  C   -0.064986
    40  H    0.206854
    41  C    0.592001
    42  C   -0.277298
    43  H    0.175141
    44  H    0.183404
    45  O   -0.462081
    46  C   -0.263460
    47  H    0.149831
    48  H    0.130132
    49  C   -0.155516
    50  H    0.152318
    51  H    0.165008
    52  N   -0.563888
    53  H    0.317891
    54  N   -0.739906
    55  H    0.329825
    56  H    0.335555
    57  N   -0.648052
    58  H    0.270151
    59  C    0.549088
    60  O   -0.553196
    61  H    0.429424
    62  H    0.431102
 Sum of Mulliken charges =   1.00000

 Dipole moment (field-independent basis, Debye):
    X=             -1.7606    Y=             -3.7494    Z=            -11.5633  Tot=             12.2828
 Quadrupole moment (field-independent basis, Debye-Ang):
   XX=            -96.1659   YY=           -129.1602   ZZ=           -115.8775
   XY=             55.6636   XZ=             16.4031   YZ=             19.4790

 Normal termination of Gaussian 16 at Thu May 26 19:11:14 2022.
