 Gaussian 16, Revision C.01,
 Gaussian 16:  ES64L-G16RevC.01  3-Jul-2019

 -------------------------------------------------------------------
 # B3LYP/6-31G* guess=read geom=check nosymm integral(ultrafinegrid)
 -------------------------------------------------------------------

 ------------------------------------------------------
 Candidate Structure: Conf:156 Charge calc in gas phase
 ------------------------------------------------------
 Structure from the checkpoint file:  "conf-156.chk"
 Charge =  1 Multiplicity = 1

                          Input orientation:
 ---------------------------------------------------------------------
 Center     Atomic      Atomic             Coordinates (Angstroms)
 Number     Number       Type             X           Y           Z
 ---------------------------------------------------------------------
      1          7           0       -1.142071    0.565069   -4.616026
      2          1           0       -1.671635    1.313500   -4.144777
      3          1           0       -0.248218    1.034018   -5.041082
      4          1           0       -1.668786    0.128681   -5.389212
      5          6           0       -0.893436   -0.497195   -3.590842
      6          1           0       -1.795769   -1.116977   -3.579064
      7          6           0       -0.811169    0.242829   -2.233073
      8          6           0        0.322949   -1.376164   -3.940559
      9          1           0        0.256069   -2.290241   -3.339568
     10          1           0        1.246630   -0.872386   -3.634154
     11          8           0       -1.171458    1.419187   -2.178838
     12          6           0        0.467930   -1.768352   -5.431750
     13          1           0        0.769590   -0.886155   -6.010966
     14          1           0        1.262916   -2.510937   -5.527623
     15          6           0       -0.803941   -2.299862   -6.063665
     16          8           0       -1.848003   -1.667223   -6.146552
     17          8           0       -0.673179   -3.539657   -6.539663
     18          7           0       -0.403223   -0.482525   -1.169018
     19          1           0        0.106318   -1.341266   -1.344191
     20          6           0       -0.048137    0.162163    0.103501
     21          1           0       -0.637882    1.078251    0.162715
     22          6           0        1.456292    0.483832    0.013613
     23          6           0       -0.338988   -0.761175    1.299378
     24          1           0        0.009890   -0.247579    2.206011
     25          1           0        0.287611   -1.657865    1.198634
     26          8           0        2.225214   -0.329181   -0.498159
     27          6           0       -1.814922   -1.169447    1.480024
     28          1           0       -2.141383   -1.667490    0.555493
     29          6           0       -1.932308   -2.182656    2.628874
     30          1           0       -1.623178   -1.735353    3.581920
     31          1           0       -2.966531   -2.524512    2.743701
     32          1           0       -1.304599   -3.064370    2.454790
     33          6           0       -2.734024    0.037918    1.719647
     34          1           0       -2.423937    0.597236    2.611966
     35          1           0       -2.745345    0.732622    0.871635
     36          1           0       -3.766251   -0.290844    1.881421
     37          7           0        1.843532    1.694435    0.488307
     38          1           0        1.161993    2.312357    0.908174
     39          6           0        3.219211    2.163002    0.372947
     40          1           0        3.846693    1.268203    0.314811
     41          6           0        3.680031    2.954523    1.592579
     42          6           0        3.461163    3.012648   -0.904795
     43          1           0        4.532922    3.234591   -0.948612
     44          1           0        2.938060    3.974052   -0.809442
     45          8           0        4.807438    3.364587    1.724435
     46          6           0        2.986599    2.284193   -2.165427
     47          1           0        3.432889    1.281895   -2.191765
     48          1           0        1.900366    2.145738   -2.111388
     49          6           0        3.294581    3.001985   -3.483269
     50          1           0        4.377482    3.112177   -3.623393
     51          1           0        2.852257    4.002987   -3.496326
     52          7           0        2.714294    2.227755   -4.590063
     53          1           0        2.661517    1.228530   -4.442387
     54          7           0        1.954402    3.987170   -5.885573
     55          1           0        1.316584    4.351806   -6.578864
     56          1           0        2.886129    4.380281   -5.913918
     57          7           0        0.866467    1.872855   -5.936247
     58          1           0        0.420052    2.247839   -6.773216
     59          6           0        1.807811    2.678983   -5.502571
     60          8           0        2.687257    3.183580    2.483618
     61          1           0        3.076557    3.710701    3.208292
     62          1           0       -1.522534   -3.797294   -6.950927
 ---------------------------------------------------------------------

 SCF Done:  E(RB3LYP) =  -1447.42258638     A.U. after    1 cycles

 Alpha  occ. eigenvalues --  -19.32088 -19.29257 -19.26956 -19.25091 -19.22975
 Alpha  occ. eigenvalues --  -19.21884 -14.53489 -14.48496 -14.47198 -14.46793
 Alpha  occ. eigenvalues --  -14.46792 -14.41968 -10.45127 -10.42232 -10.41600
 Alpha  occ. eigenvalues --  -10.41458 -10.39135 -10.38317 -10.34100 -10.33958
 Alpha  occ. eigenvalues --  -10.33894 -10.33076 -10.32905 -10.29300 -10.29058
 Alpha  occ. eigenvalues --  -10.28311 -10.27590 -10.25350 -10.24898  -1.23286
 Alpha  occ. eigenvalues --   -1.19922  -1.17180  -1.14193  -1.13900  -1.10912
 Alpha  occ. eigenvalues --   -1.10288  -1.09055  -1.04944  -1.03136  -1.00860
 Alpha  occ. eigenvalues --   -0.96716  -0.93634  -0.90842  -0.89731  -0.87009
 Alpha  occ. eigenvalues --   -0.85390  -0.83221  -0.78652  -0.78289  -0.76184
 Alpha  occ. eigenvalues --   -0.74508  -0.72929  -0.72175  -0.71624  -0.71474
 Alpha  occ. eigenvalues --   -0.70369  -0.69630  -0.68777  -0.67394  -0.65564
 Alpha  occ. eigenvalues --   -0.65369  -0.63810  -0.63312  -0.62857  -0.61686
 Alpha  occ. eigenvalues --   -0.60424  -0.60075  -0.59848  -0.59028  -0.58296
 Alpha  occ. eigenvalues --   -0.57776  -0.57616  -0.57115  -0.56471  -0.55729
 Alpha  occ. eigenvalues --   -0.55451  -0.55136  -0.53920  -0.53533  -0.53483
 Alpha  occ. eigenvalues --   -0.52776  -0.51937  -0.51576  -0.50992  -0.50526
 Alpha  occ. eigenvalues --   -0.49967  -0.49391  -0.49153  -0.48831  -0.48500
 Alpha  occ. eigenvalues --   -0.48232  -0.47331  -0.46959  -0.46239  -0.46054
 Alpha  occ. eigenvalues --   -0.45441  -0.44667  -0.44221  -0.44100  -0.41393
 Alpha  occ. eigenvalues --   -0.41074  -0.40971  -0.40918  -0.40849  -0.40625
 Alpha  occ. eigenvalues --   -0.39114  -0.38546  -0.37754  -0.37703  -0.35810
 Alpha  occ. eigenvalues --   -0.35088  -0.34544
 Alpha virt. eigenvalues --   -0.12350  -0.11141  -0.08582  -0.08049  -0.07731
 Alpha virt. eigenvalues --   -0.06091  -0.04091  -0.03582  -0.02998  -0.02576
 Alpha virt. eigenvalues --   -0.01967  -0.00315  -0.00167   0.00399   0.00667

 Mulliken charges:
               1
     1  N   -0.797129
     2  H    0.400934
     3  H    0.435462
     4  H    0.411194
     5  C   -0.097169
     6  H    0.223423
     7  C    0.642234
     8  C   -0.318389
     9  H    0.187639
    10  H    0.188327
    11  O   -0.531730
    12  C   -0.387034
    13  H    0.214711
    14  H    0.210430
    15  C    0.602453
    16  O   -0.487214
    17  O   -0.529568
    18  N   -0.581312
    19  H    0.353677
    20  C   -0.096857
    21  H    0.187188
    22  C    0.640060
    23  C   -0.274941
    24  H    0.157119
    25  H    0.156283
    26  O   -0.544243
    27  C   -0.070079
    28  H    0.125887
    29  C   -0.446338
    30  H    0.152323
    31  H    0.158353
    32  H    0.148060
    33  C   -0.459241
    34  H    0.148700
    35  H    0.146605
    36  H    0.162628
    37  N   -0.604961
    38  H    0.352734
    39  C   -0.065682
    40  H    0.221729
    41  C    0.597418
    42  C   -0.271618
    43  H    0.186636
    44  H    0.151522
    45  O   -0.440760
    46  C   -0.303702
    47  H    0.168855
    48  H    0.153151
    49  C   -0.138367
    50  H    0.171782
    51  H    0.174955
    52  N   -0.583527
    53  H    0.337603
    54  N   -0.739537
    55  H    0.351842
    56  H    0.359773
    57  N   -0.770968
    58  H    0.297841
    59  C    0.674098
    60  O   -0.577167
    61  H    0.429725
    62  H    0.434173
 Sum of Mulliken charges =   1.00000

 Dipole moment (field-independent basis, Debye):
    X=              0.9080    Y=              4.1914    Z=            -17.5013  Tot=             18.0191
 Quadrupole moment (field-independent basis, Debye-Ang):
   XX=           -163.5390   YY=           -125.5654   ZZ=            -46.2564
   XY=             22.4408   XZ=             -8.1143   YZ=            -12.6860

 Normal termination of Gaussian 16 at Thu May 26 19:10:56 2022.
