 Gaussian 16, Revision C.01,
 Gaussian 16:  ES64L-G16RevC.01  3-Jul-2019

 -------------------------------------------------------------------
 # B3LYP/6-31G* guess=read geom=check nosymm integral(ultrafinegrid)
 -------------------------------------------------------------------

 ------------------------------------------------------
 Candidate Structure: Conf:684 Charge calc in gas phase
 ------------------------------------------------------
 Structure from the checkpoint file:  "conf-684.chk"
 Charge =  1 Multiplicity = 1

                          Input orientation:
 ---------------------------------------------------------------------
 Center     Atomic      Atomic             Coordinates (Angstroms)
 Number     Number       Type             X           Y           Z
 ---------------------------------------------------------------------
      1          7           0       -2.204788   -0.120073   -3.784735
      2          1           0       -2.489369   -1.100995   -3.854922
      3          1           0       -2.856598    0.346354   -3.117049
      4          1           0       -2.214866    0.325375   -4.740090
      5          6           0       -0.845557    0.047255   -3.146396
      6          1           0       -0.253462   -0.845729   -3.366366
      7          6           0       -1.159407    0.161375   -1.633315
      8          6           0       -0.151216    1.318119   -3.663660
      9          1           0        0.681327    1.578378   -2.994713
     10          1           0       -0.854466    2.157517   -3.588131
     11          8           0       -2.291363    0.528938   -1.303237
     12          6           0        0.453244    1.246671   -5.076146
     13          1           0        1.200354    2.039055   -5.175322
     14          1           0        1.012047    0.310081   -5.218901
     15          6           0       -0.529346    1.357782   -6.219295
     16          8           0       -1.720593    1.061149   -6.168002
     17          8           0        0.033355    1.804821   -7.338420
     18          7           0       -0.154188   -0.145795   -0.809450
     19          1           0        0.782172   -0.319326   -1.175121
     20          6           0       -0.141599    0.102933    0.633194
     21          1           0       -0.849931    0.907871    0.849667
     22          6           0        1.302955    0.552667    0.938821
     23          6           0       -0.482754   -1.160104    1.459915
     24          1           0       -0.293855   -0.930619    2.517658
     25          1           0        0.236329   -1.941228    1.179605
     26          8           0        2.216342    0.260298    0.155460
     27          6           0       -1.920549   -1.698904    1.319101
     28          1           0       -2.122326   -1.860253    0.250438
     29          6           0       -2.025573   -3.058533    2.028070
     30          1           0       -1.829201   -2.958241    3.102910
     31          1           0       -3.030044   -3.480445    1.914795
     32          1           0       -1.308576   -3.782725    1.623605
     33          6           0       -2.969732   -0.716419    1.860030
     34          1           0       -2.785348   -0.488266    2.917902
     35          1           0       -2.984778    0.222388    1.297636
     36          1           0       -3.972959   -1.150903    1.789579
     37          7           0        1.481763    1.220768    2.088163
     38          1           0        0.697320    1.439404    2.696580
     39          6           0        2.784350    1.643514    2.599025
     40          1           0        3.414390    0.757352    2.753099
     41          6           0        2.510734    2.233733    3.979544
     42          6           0        3.535124    2.632759    1.656159
     43          1           0        3.853104    3.513053    2.223475
     44          1           0        2.815967    2.982868    0.909701
     45          8           0        1.404234    2.365608    4.458578
     46          6           0        4.758455    2.006664    0.960306
     47          1           0        5.637255    2.073334    1.612193
     48          1           0        4.577337    0.941817    0.777777
     49          6           0        5.085002    2.676602   -0.379286
     50          1           0        6.062291    2.313129   -0.730152
     51          1           0        5.168989    3.761819   -0.244762
     52          7           0        4.042701    2.392166   -1.363447
     53          1           0        3.407186    1.633317   -1.143519
     54          7           0        4.359503    4.394642   -2.506828
     55          1           0        4.101183    4.949307   -3.312342
     56          1           0        5.360222    4.246772   -2.453788
     57          7           0        2.405440    3.058409   -2.852306
     58          1           0        2.219205    3.785513   -3.544666
     59          6           0        3.555913    3.277225   -2.288614
     60          8           0        3.647188    2.579318    4.601686
     61          1           0        3.404113    2.945910    5.473799
     62          1           0       -0.647535    1.821921   -8.040302
 ---------------------------------------------------------------------

 SCF Done:  E(RB3LYP) =  -1447.41265797     A.U. after    2 cycles

 Alpha  occ. eigenvalues --  -19.32736 -19.29609 -19.28336 -19.25433 -19.24298
 Alpha  occ. eigenvalues --  -19.23135 -14.56824 -14.48584 -14.46918 -14.42917
 Alpha  occ. eigenvalues --  -14.42043 -14.36354 -10.46041 -10.42428 -10.42290
 Alpha  occ. eigenvalues --  -10.40050 -10.39328 -10.36416 -10.34516 -10.34194
 Alpha  occ. eigenvalues --  -10.32855 -10.32318 -10.30165 -10.28475 -10.28073
 Alpha  occ. eigenvalues --  -10.27577 -10.27023 -10.24988 -10.24826  -1.24280
 Alpha  occ. eigenvalues --   -1.20779  -1.17668  -1.15246  -1.14850  -1.11955
 Alpha  occ. eigenvalues --   -1.11451  -1.05515  -1.05269  -1.03465  -0.96570
 Alpha  occ. eigenvalues --   -0.93811  -0.92122  -0.90867  -0.88773  -0.87405
 Alpha  occ. eigenvalues --   -0.84757  -0.82877  -0.78941  -0.76518  -0.75956
 Alpha  occ. eigenvalues --   -0.75342  -0.72997  -0.72373  -0.71685  -0.70558
 Alpha  occ. eigenvalues --   -0.70043  -0.69176  -0.68341  -0.67899  -0.66426
 Alpha  occ. eigenvalues --   -0.64247  -0.63238  -0.62375  -0.61409  -0.60950
 Alpha  occ. eigenvalues --   -0.60091  -0.59663  -0.59235  -0.58773  -0.58475
 Alpha  occ. eigenvalues --   -0.57386  -0.56840  -0.56049  -0.55747  -0.54951
 Alpha  occ. eigenvalues --   -0.54845  -0.53904  -0.53479  -0.53061  -0.52848
 Alpha  occ. eigenvalues --   -0.52646  -0.51985  -0.51345  -0.50325  -0.49925
 Alpha  occ. eigenvalues --   -0.49459  -0.49227  -0.49069  -0.48622  -0.48089
 Alpha  occ. eigenvalues --   -0.47467  -0.47055  -0.46119  -0.45885  -0.45300
 Alpha  occ. eigenvalues --   -0.44588  -0.44145  -0.43108  -0.42528  -0.41954
 Alpha  occ. eigenvalues --   -0.41691  -0.41631  -0.41062  -0.40827  -0.39738
 Alpha  occ. eigenvalues --   -0.38416  -0.37789  -0.36815  -0.36176  -0.35359
 Alpha  occ. eigenvalues --   -0.33681  -0.29461
 Alpha virt. eigenvalues --   -0.12809  -0.11090  -0.09412  -0.08308  -0.08117
 Alpha virt. eigenvalues --   -0.03609  -0.03394  -0.02707  -0.01991  -0.01416
 Alpha virt. eigenvalues --   -0.00562  -0.00540   0.00086   0.00960   0.01739

 Mulliken charges:
               1
     1  N   -0.773894
     2  H    0.401152
     3  H    0.417286
     4  H    0.446970
     5  C   -0.119963
     6  H    0.196388
     7  C    0.649966
     8  C   -0.319985
     9  H    0.251573
    10  H    0.179162
    11  O   -0.530644
    12  C   -0.375281
    13  H    0.225773
    14  H    0.201705
    15  C    0.613465
    16  O   -0.503721
    17  O   -0.524290
    18  N   -0.596930
    19  H    0.366826
    20  C   -0.083071
    21  H    0.193382
    22  C    0.643699
    23  C   -0.255973
    24  H    0.152132
    25  H    0.151754
    26  O   -0.554080
    27  C   -0.069056
    28  H    0.118490
    29  C   -0.447290
    30  H    0.153320
    31  H    0.156997
    32  H    0.145222
    33  C   -0.461788
    34  H    0.146014
    35  H    0.162769
    36  H    0.157758
    37  N   -0.632200
    38  H    0.368379
    39  C   -0.006572
    40  H    0.204640
    41  C    0.568934
    42  C   -0.283457
    43  H    0.176691
    44  H    0.176157
    45  O   -0.459151
    46  C   -0.306345
    47  H    0.161242
    48  H    0.173345
    49  C   -0.137281
    50  H    0.153448
    51  H    0.167311
    52  N   -0.609526
    53  H    0.359077
    54  N   -0.747738
    55  H    0.332062
    56  H    0.339360
    57  N   -0.709154
    58  H    0.262753
    59  C    0.614947
    60  O   -0.554878
    61  H    0.433591
    62  H    0.438526
 Sum of Mulliken charges =   1.00000

 Dipole moment (field-independent basis, Debye):
    X=              2.8960    Y=              3.9767    Z=            -11.5939  Tot=             12.5944
 Quadrupole moment (field-independent basis, Debye-Ang):
   XX=           -128.7325   YY=           -144.1301   ZZ=            -63.1876
   XY=             31.5609   XZ=             22.9131   YZ=             -7.8720

 Normal termination of Gaussian 16 at Thu May 26 19:18:32 2022.
