 Gaussian 16, Revision C.01,
 Gaussian 16:  ES64L-G16RevC.01  3-Jul-2019

 -------------------------------------------------------------------
 # B3LYP/6-31G* guess=read geom=check nosymm integral(ultrafinegrid)
 -------------------------------------------------------------------

 ------------------------------------------------------
 Candidate Structure: Conf:747 Charge calc in gas phase
 ------------------------------------------------------
 Structure from the checkpoint file:  "conf-747.chk"
 Charge =  1 Multiplicity = 1

                          Input orientation:
 ---------------------------------------------------------------------
 Center     Atomic      Atomic             Coordinates (Angstroms)
 Number     Number       Type             X           Y           Z
 ---------------------------------------------------------------------
      1          7           0       -3.557352   -1.315140   -3.040143
      2          1           0       -4.009665   -2.227854   -2.944239
      3          1           0       -3.662773   -0.753874   -2.127917
      4          1           0       -3.994502   -0.816040   -3.819591
      5          6           0       -2.044321   -1.388758   -3.151335
      6          1           0       -1.764780   -2.446204   -3.143210
      7          6           0       -1.588171   -0.700307   -1.826795
      8          6           0       -1.529109   -0.691022   -4.413596
      9          1           0       -0.438245   -0.633257   -4.351177
     10          1           0       -1.870553    0.351934   -4.422267
     11          8           0       -2.477329   -0.214955   -1.105159
     12          6           0       -1.907756   -1.394313   -5.721796
     13          1           0       -1.581405   -2.442777   -5.718395
     14          1           0       -2.990513   -1.415876   -5.903895
     15          6           0       -1.250778   -0.705760   -6.910921
     16          8           0       -0.448035    0.193602   -6.820426
     17          8           0       -1.677143   -1.236863   -8.069896
     18          7           0       -0.289527   -0.683917   -1.581822
     19          1           0        0.403786   -1.085060   -2.218079
     20          6           0        0.347462   -0.049599   -0.420000
     21          1           0       -0.160587    0.899336   -0.226767
     22          6           0        1.798747    0.178304   -0.895187
     23          6           0        0.257726   -0.977583    0.818162
     24          1           0        0.761552   -1.918268    0.561767
     25          1           0       -0.806259   -1.208117    0.960670
     26          8           0        2.261793   -0.535743   -1.788247
     27          6           0        0.830668   -0.436126    2.144837
     28          1           0        1.905468   -0.251011    2.022740
     29          6           0        0.149842    0.864958    2.599743
     30          1           0       -0.930908    0.722023    2.725825
     31          1           0        0.556678    1.193485    3.561589
     32          1           0        0.283845    1.696713    1.894257
     33          6           0        0.694569   -1.515259    3.230337
     34          1           0       -0.359161   -1.738016    3.441905
     35          1           0        1.182848   -2.448039    2.925441
     36          1           0        1.164959   -1.181575    4.160444
     37          7           0        2.485650    1.168677   -0.298073
     38          1           0        2.040689    1.692501    0.443068
     39          6           0        3.916547    1.403195   -0.536740
     40          1           0        4.123982    2.380847   -0.082627
     41          6           0        4.214834    1.577436   -2.031583
     42          6           0        4.802856    0.337081    0.129995
     43          1           0        4.800795   -0.566415   -0.488389
     44          1           0        4.328830    0.081737    1.083317
     45          8           0        5.207352    1.166475   -2.582330
     46          6           0        6.241969    0.798206    0.399010
     47          1           0        6.783940    0.930741   -0.543204
     48          1           0        6.226179    1.782037    0.894613
     49          6           0        7.018160   -0.182928    1.295066
     50          1           0        8.039937    0.190770    1.433613
     51          1           0        7.093252   -1.159175    0.808118
     52          7           0        6.396938   -0.381007    2.611342
     53          1           0        6.021043    0.468257    3.020061
     54          7           0        6.042845   -2.678739    2.474742
     55          1           0        5.514030   -3.477965    2.800192
     56          1           0        7.041414   -2.800116    2.604008
     57          7           0        4.408386   -1.215953    3.458727
     58          1           0        3.975929   -2.089849    3.765555
     59          6           0        5.543450   -1.443489    2.888787
     60          8           0        3.274921    2.325333   -2.652711
     61          1           0        3.572958    2.416771   -3.577945
     62          1           0       -1.212562   -0.774210   -8.794326
 ---------------------------------------------------------------------

 SCF Done:  E(RB3LYP) =  -1447.37462025     A.U. after    3 cycles

 Alpha  occ. eigenvalues --  -19.30580 -19.28051 -19.27348 -19.25255 -19.22862
 Alpha  occ. eigenvalues --  -19.21727 -14.60839 -14.50432 -14.47092 -14.41018
 Alpha  occ. eigenvalues --  -14.40050 -14.34673 -10.44667 -10.43759 -10.42129
 Alpha  occ. eigenvalues --  -10.40053 -10.39834 -10.35297 -10.35200 -10.34226
 Alpha  occ. eigenvalues --  -10.34151 -10.33164 -10.28858 -10.28027 -10.27675
 Alpha  occ. eigenvalues --  -10.26054 -10.25755 -10.25213 -10.24953  -1.21679
 Alpha  occ. eigenvalues --   -1.20420  -1.18375  -1.15036  -1.14489  -1.12924
 Alpha  occ. eigenvalues --   -1.09362  -1.07078  -1.03399  -1.03299  -0.96002
 Alpha  occ. eigenvalues --   -0.94580  -0.91379  -0.90203  -0.88734  -0.87616
 Alpha  occ. eigenvalues --   -0.84837  -0.81415  -0.80047  -0.77029  -0.76150
 Alpha  occ. eigenvalues --   -0.75191  -0.74798  -0.73749  -0.72773  -0.71445
 Alpha  occ. eigenvalues --   -0.70531  -0.68094  -0.67360  -0.65928  -0.65519
 Alpha  occ. eigenvalues --   -0.64946  -0.64464  -0.62035  -0.61565  -0.60443
 Alpha  occ. eigenvalues --   -0.60158  -0.58947  -0.58813  -0.58527  -0.57387
 Alpha  occ. eigenvalues --   -0.57034  -0.56730  -0.55932  -0.55321  -0.54643
 Alpha  occ. eigenvalues --   -0.53756  -0.53510  -0.53228  -0.52319  -0.51929
 Alpha  occ. eigenvalues --   -0.51824  -0.51713  -0.51117  -0.50969  -0.49779
 Alpha  occ. eigenvalues --   -0.49615  -0.49395  -0.48547  -0.48020  -0.47509
 Alpha  occ. eigenvalues --   -0.46576  -0.46286  -0.45407  -0.44942  -0.44261
 Alpha  occ. eigenvalues --   -0.43310  -0.42895  -0.42873  -0.42546  -0.41609
 Alpha  occ. eigenvalues --   -0.41486  -0.40764  -0.40472  -0.39378  -0.39260
 Alpha  occ. eigenvalues --   -0.38975  -0.36774  -0.36720  -0.34663  -0.32411
 Alpha  occ. eigenvalues --   -0.31739  -0.28503
 Alpha virt. eigenvalues --   -0.13287  -0.12506  -0.10216  -0.08659  -0.07392
 Alpha virt. eigenvalues --   -0.07246  -0.05452  -0.02950  -0.02834  -0.02112
 Alpha virt. eigenvalues --   -0.01833  -0.01579  -0.00349   0.00209   0.00403

 Mulliken charges:
               1
     1  N   -0.762835
     2  H    0.417080
     3  H    0.439324
     4  H    0.412758
     5  C   -0.110662
     6  H    0.219284
     7  C    0.660760
     8  C   -0.302665
     9  H    0.223390
    10  H    0.192874
    11  O   -0.546504
    12  C   -0.378068
    13  H    0.204506
    14  H    0.171300
    15  C    0.599210
    16  O   -0.437392
    17  O   -0.555614
    18  N   -0.608464
    19  H    0.377159
    20  C   -0.075619
    21  H    0.190955
    22  C    0.645619
    23  C   -0.256947
    24  H    0.154272
    25  H    0.158385
    26  O   -0.542901
    27  C   -0.106096
    28  H    0.168018
    29  C   -0.460984
    30  H    0.156351
    31  H    0.175463
    32  H    0.120450
    33  C   -0.444439
    34  H    0.142357
    35  H    0.142911
    36  H    0.173921
    37  N   -0.608203
    38  H    0.355090
    39  C   -0.053044
    40  H    0.182334
    41  C    0.615131
    42  C   -0.280088
    43  H    0.178382
    44  H    0.181718
    45  O   -0.446874
    46  C   -0.290566
    47  H    0.180111
    48  H    0.127587
    49  C   -0.152736
    50  H    0.158901
    51  H    0.169871
    52  N   -0.568673
    53  H    0.323818
    54  N   -0.737457
    55  H    0.325437
    56  H    0.337654
    57  N   -0.664202
    58  H    0.264287
    59  C    0.562466
    60  O   -0.572475
    61  H    0.420478
    62  H    0.433895
 Sum of Mulliken charges =   1.00000

 Dipole moment (field-independent basis, Debye):
    X=             -6.9091    Y=             -5.9917    Z=            -11.9725  Tot=             15.0657
 Quadrupole moment (field-independent basis, Debye-Ang):
   XX=           -102.9234   YY=           -142.1604   ZZ=            -97.7049
   XY=             14.5016   XZ=             58.0600   YZ=             13.2287

 Normal termination of Gaussian 16 at Thu May 26 19:18:50 2022.
