 Gaussian 16, Revision C.01,
 Gaussian 16:  ES64L-G16RevC.01  3-Jul-2019

 ----------------------------------------------------------------------
 # B3LYP/6-31G* empiricaldispersion=gd3 guess=read geom=check nosymm in
 tegral(ultrafinegrid)
 ----------------------------------------------------------------------

 ------------------------------------------------------
 Candidate Structure: Conf:156 Charge calc in gas phase
 ------------------------------------------------------
 Structure from the checkpoint file:  "conf-156.chk"
 Charge =  1 Multiplicity = 1

                          Input orientation:
 ---------------------------------------------------------------------
 Center     Atomic      Atomic             Coordinates (Angstroms)
 Number     Number       Type             X           Y           Z
 ---------------------------------------------------------------------
      1          7           0       -5.498681   -1.862285   -7.758512
      2          1           0       -6.402618   -1.381537   -7.757898
      3          1           0       -4.747951   -1.164469   -7.884541
      4          1           0       -5.466723   -2.569991   -8.505886
      5          6           0       -5.211312   -2.541416   -6.460141
      6          1           0       -6.116285   -3.030207   -6.087389
      7          6           0       -4.692256   -1.456576   -5.517730
      8          6           0       -4.137087   -3.605842   -6.719865
      9          1           0       -3.211363   -3.088273   -7.013547
     10          8           0       -3.960016   -0.577985   -5.999979
     11          6           0       -3.888487   -4.506401   -5.522159
     12          1           0       -3.531807   -3.935814   -4.659876
     13          1           0       -3.133359   -5.256941   -5.771233
     14          1           0       -4.811833   -5.025653   -5.246876
     15          8           0       -4.646967   -4.340641   -7.841000
     16          1           0       -4.005381   -5.018943   -8.092990
     17          7           0       -5.043433   -1.553391   -4.234774
     18          1           0       -5.743073   -2.233020   -3.962613
     19          6           0       -4.697842   -0.538673   -3.226498
     20          1           0       -4.811445    0.439826   -3.702906
     21          6           0       -3.231102   -0.744539   -2.807939
     22          6           0       -5.661335   -0.665968   -2.040772
     23          1           0       -5.457256   -1.605771   -1.521940
     24          1           0       -5.465866    0.137478   -1.319254
     25          8           0       -2.932391   -1.435264   -1.835163
     26          6           0       -7.094634   -0.616722   -2.507348
     27          6           0       -7.644062    0.574474   -2.995408
     28          1           0       -7.037124    1.475822   -2.993630
     29          6           0       -7.882979   -1.772282   -2.518943
     30          1           0       -7.468824   -2.704067   -2.139695
     31          6           0       -8.953580    0.612204   -3.470647
     32          1           0       -9.366477    1.547925   -3.835933
     33          6           0       -9.192304   -1.742443   -3.004574
     34          1           0       -9.789812   -2.649282   -3.002909
     35          6           0       -9.730631   -0.548688   -3.481870
     36          1           0      -10.750441   -0.519238   -3.853483
     37          7           0       -2.301491   -0.136493   -3.588244
     38          1           0       -2.594415    0.206697   -4.496005
     39          6           0       -0.871882   -0.301472   -3.303234
     40          1           0       -0.757057   -1.327470   -2.935447
     41          6           0       -0.413822    0.669909   -2.186861
     42          6           0       -0.054400   -0.080994   -4.566900
     43          1           0        1.006948   -0.234553   -4.359234
     44          1           0       -0.183483    0.942682   -4.928349
     45          1           0       -0.366425   -0.782869   -5.346873
     46          8           0        0.222213    1.701357   -2.444771
     47          7           0       -0.776774    0.310417   -0.944689
     48          1           0       -1.422030   -0.471142   -0.863966
     49          6           0       -0.631956    1.170254    0.233613
     50          1           0       -0.637475    2.213998   -0.107182
     51          6           0        0.735067    0.890394    0.881389
     52          6           0       -1.808465    0.946040    1.183942
     53          1           0       -1.622886    1.489210    2.114741
     54          1           0       -1.871291   -0.111308    1.460938
     55          8           0        0.880600    0.484247    2.023483
     56          6           0       -3.119651    1.384985    0.544344
     57          1           0       -3.164666    2.467297    0.391643
     58          1           0       -3.212571    0.912892   -0.439527
     59          6           0       -4.397984    0.903310    1.305148
     60          8           0       -5.420104    1.589811    1.046933
     61          8           0       -4.283128   -0.136600    1.980798
     62          7           0        1.784872    1.120229    0.030893
     63          1           0        1.599900    1.653490   -0.812490
     64          6           0        3.153491    0.997359    0.469044
     65          1           0        3.144849    0.376742    1.368603
     66          6           0        3.726872    2.366055    0.837420
     67          6           0        4.015496    0.357021   -0.627715
     68          1           0        5.057311    0.257577   -0.309630
     69          1           0        4.004763    0.984966   -1.525307
     70          1           0        3.618930   -0.628092   -0.884108
     71          8           0        3.356026    3.403483    0.284618
     72          7           0        4.729119    2.353707    1.776046
     73          1           0        5.235222    1.479979    1.836276
     74          6           0        5.526404    3.572728    1.826047
     75          1           0        4.798761    4.374066    1.975147
     76          6           0        6.095273    3.771481    0.415942
     77          6           0        6.569219    3.574575    2.937053
     78          1           0        7.262933    2.743419    2.758464
     79          1           0        7.160595    4.495176    2.854271
     80          8           0        6.396837    2.838679   -0.319870
     81          6           0        6.000159    3.470356    4.362661
     82          1           0        5.385797    2.563685    4.420417
     83          6           0        7.152430    3.333862    5.363742
     84          1           0        7.798689    4.218777    5.330450
     85          1           0        7.771504    2.457457    5.144731
     86          1           0        6.776070    3.232528    6.386536
     87          6           0        5.118466    4.670634    4.719466
     88          1           0        5.702073    5.599074    4.684541
     89          1           0        4.716785    4.568312    5.732209
     90          1           0        4.268177    4.778570    4.038382
     91          7           0        6.062841    5.063359    0.008110
     92          1           0        5.859251    5.795122    0.671606
     93          6           0        6.246226    5.426163   -1.377167
     94          1           0        6.769517    4.614788   -1.886163
     95          6           0        7.064394    6.683133   -1.590809
     96          6           0        4.818905    5.542971   -1.959401
     97          1           0        4.857210    5.832269   -3.016516
     98          1           0        4.284455    6.336218   -1.426306
     99          8           0        7.664219    6.934269   -2.605920
    100          6           0        4.113317    4.183963   -1.801607
    101          1           0        4.066349    3.873865   -0.750504
    102          1           0        4.708265    3.423053   -2.314867
    103          6           0        2.693089    4.169537   -2.341973
    104          1           0        2.283778    3.152364   -2.336330
    105          1           0        2.668976    4.544733   -3.371575
    106          7           0        1.862984    5.040085   -1.474450
    107          1           0        2.108456    4.951378   -0.491751
    108          7           0       -0.015787    4.928412   -2.849632
    109          1           0       -0.887486    5.360317   -3.120886
    110          1           0        0.569199    4.611287   -3.608380
    111          7           0       -0.169821    5.849545   -0.715227
    112          1           0        0.312304    6.364250    0.010047
    113          1           0       -1.088159    6.204704   -0.941265
    114          6           0        0.567974    5.282972   -1.692278
    115          8           0        6.994417    7.527449   -0.531923
    116          1           0        7.520356    8.313121   -0.762309
 ---------------------------------------------------------------------

 SCF Done:  E(RB3LYP) =  -2782.28673901     A.U. after    1 cycles

 Alpha  occ. eigenvalues --  -19.30673 -19.27606 -19.27292 -19.22444 -19.21447
 Alpha  occ. eigenvalues --  -19.20419 -19.19141 -19.19011 -19.16063 -19.01258
 Alpha  occ. eigenvalues --  -19.00877 -14.62216 -14.50928 -14.50760 -14.50545
 Alpha  occ. eigenvalues --  -14.49554 -14.44907 -14.44336 -14.43882 -14.41709
 Alpha  occ. eigenvalues --  -14.40507 -10.46685 -10.44255 -10.41693 -10.40399
 Alpha  occ. eigenvalues --  -10.39688 -10.37577 -10.37424 -10.36111 -10.35545
 Alpha  occ. eigenvalues --  -10.33596 -10.32876 -10.32574 -10.31512 -10.31410
 Alpha  occ. eigenvalues --  -10.31319 -10.30754 -10.29916 -10.27079 -10.26871
 Alpha  occ. eigenvalues --  -10.26762 -10.26544 -10.26116 -10.25895 -10.25832
 Alpha  occ. eigenvalues --  -10.25799 -10.25659 -10.25623 -10.25515 -10.25263
 Alpha  occ. eigenvalues --  -10.25243 -10.23726 -10.23403 -10.22863 -10.20086
 Alpha  occ. eigenvalues --  -10.18452 -10.15544  -1.20348  -1.18335  -1.18124
 Alpha  occ. eigenvalues --   -1.15633  -1.15440  -1.15074  -1.12510  -1.11345
 Alpha  occ. eigenvalues --   -1.10331  -1.09361  -1.07996  -1.06869  -1.04193
 Alpha  occ. eigenvalues --   -1.04043  -1.01520  -1.01175  -1.01110  -0.98589
 Alpha  occ. eigenvalues --   -0.97540  -0.94917  -0.94583  -0.92583  -0.88844
 Alpha  occ. eigenvalues --   -0.88549  -0.88162  -0.86004  -0.85906  -0.85472
 Alpha  occ. eigenvalues --   -0.85112  -0.84015  -0.81662  -0.81268  -0.81202
 Alpha  occ. eigenvalues --   -0.80368  -0.78686  -0.78361  -0.76365  -0.76214
 Alpha  occ. eigenvalues --   -0.74705  -0.74344  -0.73740  -0.73352  -0.73165
 Alpha  occ. eigenvalues --   -0.73056  -0.72861  -0.72011  -0.70930  -0.70477
 Alpha  occ. eigenvalues --   -0.68735  -0.68556  -0.68116  -0.67342  -0.67234
 Alpha  occ. eigenvalues --   -0.66888  -0.66677  -0.65664  -0.64933  -0.64665
 Alpha  occ. eigenvalues --   -0.63760  -0.63506  -0.63280  -0.63185  -0.62456
 Alpha  occ. eigenvalues --   -0.62087  -0.61424  -0.61125  -0.60809  -0.60208
 Alpha  occ. eigenvalues --   -0.59399  -0.58734  -0.58659  -0.58015  -0.57766
 Alpha  occ. eigenvalues --   -0.57651  -0.56712  -0.56499  -0.55814  -0.55372
 Alpha  occ. eigenvalues --   -0.54947  -0.54619  -0.54302  -0.53827  -0.53794
 Alpha  occ. eigenvalues --   -0.53344  -0.53098  -0.52576  -0.52519  -0.52210
 Alpha  occ. eigenvalues --   -0.52127  -0.51829  -0.51738  -0.51389  -0.51039
 Alpha  occ. eigenvalues --   -0.50348  -0.50056  -0.49573  -0.49460  -0.48965
 Alpha  occ. eigenvalues --   -0.48892  -0.48852  -0.48706  -0.47876  -0.47557
 Alpha  occ. eigenvalues --   -0.47149  -0.46948  -0.46708  -0.46584  -0.46503
 Alpha  occ. eigenvalues --   -0.46326  -0.46198  -0.45840  -0.45377  -0.45140
 Alpha  occ. eigenvalues --   -0.44969  -0.44331  -0.44123  -0.44086  -0.43912
 Alpha  occ. eigenvalues --   -0.43574  -0.43321  -0.43227  -0.43105  -0.42611
 Alpha  occ. eigenvalues --   -0.42476  -0.42405  -0.42067  -0.41749  -0.41661
 Alpha  occ. eigenvalues --   -0.40888  -0.40521  -0.40226  -0.39578  -0.39487
 Alpha  occ. eigenvalues --   -0.39289  -0.39112  -0.38940  -0.38870  -0.38047
 Alpha  occ. eigenvalues --   -0.36762  -0.36348  -0.36037  -0.35937  -0.35380
 Alpha  occ. eigenvalues --   -0.34072  -0.33729  -0.33446  -0.33163  -0.32817
 Alpha  occ. eigenvalues --   -0.32020  -0.31976  -0.31964  -0.31217  -0.31195
 Alpha  occ. eigenvalues --   -0.30702  -0.29332  -0.28448  -0.17206  -0.16043
 Alpha  occ. eigenvalues --   -0.15390
 Alpha virt. eigenvalues --   -0.14344  -0.11476  -0.11055  -0.08388  -0.08034
 Alpha virt. eigenvalues --   -0.07620  -0.07057  -0.06940  -0.06747  -0.06740
 Alpha virt. eigenvalues --   -0.05611  -0.05313  -0.05216  -0.03736  -0.03192

 Mulliken charges:
               1
     1  N   -0.730345
     2  H    0.427816
     3  H    0.420945
     4  H    0.434835
     5  C   -0.133429
     6  H    0.220674
     7  C    0.646729
     8  C    0.127707
     9  H    0.167493
    10  O   -0.555648
    11  C   -0.483919
    12  H    0.197452
    13  H    0.187521
    14  H    0.184254
    15  O   -0.648678
    16  H    0.433652
    17  N   -0.580862
    18  H    0.356295
    19  C   -0.069027
    20  H    0.182140
    21  C    0.643801
    22  C   -0.425417
    23  H    0.201222
    24  H    0.262255
    25  O   -0.512790
    26  C    0.169539
    27  C   -0.174659
    28  H    0.142384
    29  C   -0.221018
    30  H    0.136428
    31  C   -0.132400
    32  H    0.141953
    33  C   -0.131961
    34  H    0.142302
    35  C   -0.135006
    36  H    0.142889
    37  N   -0.612713
    38  H    0.356546
    39  C   -0.052521
    40  H    0.181180
    41  C    0.636838
    42  C   -0.462476
    43  H    0.175947
    44  H    0.157256
    45  H    0.138344
    46  O   -0.591075
    47  N   -0.592720
    48  H    0.394128
    49  C   -0.075502
    50  H    0.141384
    51  C    0.612472
    52  C   -0.266128
    53  H    0.152123
    54  H    0.177050
    55  O   -0.498050
    56  C   -0.356740
    57  H    0.090050
    58  H    0.081649
    59  C    0.558944
    60  O   -0.646378
    61  O   -0.593699
    62  N   -0.618336
    63  H    0.359153
    64  C   -0.082846
    65  H    0.198822
    66  C    0.630348
    67  C   -0.450543
    68  H    0.170881
    69  H    0.152802
    70  H    0.174038
    71  O   -0.581983
    72  N   -0.561914
    73  H    0.349294
    74  C   -0.066686
    75  H    0.161425
    76  C    0.597497
    77  C   -0.280513
    78  H    0.153158
    79  H    0.147762
    80  O   -0.530055
    81  C   -0.073514
    82  H    0.145943
    83  C   -0.445485
    84  H    0.144885
    85  H    0.148022
    86  H    0.158321
    87  C   -0.453843
    88  H    0.139624
    89  H    0.164914
    90  H    0.140809
    91  N   -0.589014
    92  H    0.345127
    93  C   -0.060691
    94  H    0.215970
    95  C    0.589454
    96  C   -0.254186
    97  H    0.151073
    98  H    0.128537
    99  O   -0.443308
   100  C   -0.382220
   101  H    0.334961
   102  H    0.162635
   103  C   -0.172422
   104  H    0.214079
   105  H    0.149609
   106  N   -0.594600
   107  H    0.380405
   108  N   -0.715127
   109  H    0.368625
   110  H    0.387581
   111  N   -0.733344
   112  H    0.380017
   113  H    0.375426
   114  C    0.785676
   115  O   -0.581642
   116  H    0.424362
 Sum of Mulliken charges =   1.00000

 Dipole moment (field-independent basis, Debye):
    X=             -2.2753    Y=              8.0086    Z=            -40.2389  Tot=             41.0912
 Quadrupole moment (field-independent basis, Debye-Ang):
   XX=           -239.6679   YY=           -157.1705   ZZ=           -100.2577
   XY=             93.0838   XZ=            231.1835   YZ=             68.1404

 Normal termination of Gaussian 16 at Sat Jun 25 09:29:54 2022.
