 Gaussian 16, Revision C.01,
 Gaussian 16:  ES64L-G16RevC.01  3-Jul-2019

 ----------------------------------------------------------------------
 # B3LYP/6-31G* empiricaldispersion=gd3 guess=read geom=check nosymm in
 tegral(ultrafinegrid)
 ----------------------------------------------------------------------

 ------------------------------------------------------
 Candidate Structure: Conf:304 Charge calc in gas phase
 ------------------------------------------------------
 Structure from the checkpoint file:  "conf-304.chk"
 Charge =  1 Multiplicity = 1

                          Input orientation:
 ---------------------------------------------------------------------
 Center     Atomic      Atomic             Coordinates (Angstroms)
 Number     Number       Type             X           Y           Z
 ---------------------------------------------------------------------
      1          7           0       -8.176114   -2.334977   -6.162889
      2          1           0       -8.492905   -2.588138   -5.210631
      3          1           0       -8.243554   -1.300864   -6.228833
      4          1           0       -8.725702   -2.803809   -6.897643
      5          6           0       -6.719695   -2.649330   -6.369565
      6          1           0       -6.524163   -3.629477   -5.926867
      7          6           0       -6.003041   -1.500387   -5.639275
      8          6           0       -6.465992   -2.664134   -7.895305
      9          1           0       -6.578777   -1.635073   -8.257063
     10          8           0       -6.543516   -0.391816   -5.675291
     11          6           0       -5.076457   -3.187442   -8.230793
     12          1           0       -4.301340   -2.571367   -7.763838
     13          1           0       -4.924019   -3.167424   -9.313091
     14          1           0       -4.949406   -4.219381   -7.877725
     15          8           0       -7.520771   -3.405488   -8.510165
     16          1           0       -7.234867   -4.324640   -8.639465
     17          7           0       -4.881038   -1.802574   -4.982135
     18          1           0       -4.435432   -2.715320   -5.036975
     19          6           0       -4.305271   -0.924069   -3.974118
     20          1           0       -4.483582    0.109605   -4.277555
     21          6           0       -2.808152   -1.272432   -3.908245
     22          6           0       -4.952370   -1.204001   -2.574216
     23          1           0       -4.479408   -2.103135   -2.163487
     24          1           0       -4.694724   -0.371023   -1.911313
     25          8           0       -2.440711   -2.406044   -4.231557
     26          6           0       -6.450464   -1.408837   -2.639551
     27          6           0       -6.977830   -2.702904   -2.752223
     28          1           0       -6.306965   -3.558044   -2.710057
     29          6           0       -7.336697   -0.322949   -2.665583
     30          1           0       -6.944774    0.687578   -2.588301
     31          6           0       -8.356676   -2.911866   -2.889410
     32          1           0       -8.749964   -3.925522   -2.922954
     33          6           0       -8.709947   -0.520020   -2.807432
     34          1           0       -9.378864    0.335461   -2.818162
     35          6           0       -9.228132   -1.815343   -2.920611
     36          1           0      -10.301108   -1.970402   -2.997714
     37          7           0       -2.012813   -0.308206   -3.432196
     38          1           0       -2.365084    0.600977   -3.133606
     39          6           0       -0.593379   -0.486975   -3.158278
     40          1           0       -0.458637   -1.418491   -2.594342
     41          6           0       -0.199313    0.715966   -2.274685
     42          6           0        0.236906   -0.553579   -4.449951
     43          1           0        1.296628   -0.708920   -4.225185
     44          1           0        0.135970    0.378396   -5.015255
     45          1           0       -0.114589   -1.387103   -5.063196
     46          8           0       -0.997885    1.637788   -2.077650
     47          7           0        1.044499    0.686935   -1.775160
     48          1           0        1.679149   -0.090833   -1.930410
     49          6           0        1.591798    1.772320   -0.973480
     50          1           0        1.360865    2.721957   -1.463647
     51          6           0        3.109683    1.553384   -0.944523
     52          6           0        1.008630    1.798430    0.479866
     53          1           0        1.811328    1.608138    1.204243
     54          1           0        0.318052    0.952884    0.557894
     55          8           0        3.596648    0.426213   -1.137779
     56          6           0        0.270680    3.091467    0.868072
     57          1           0       -0.344989    3.417918    0.020216
     58          1           0       -0.409607    2.890602    1.700731
     59          6           0        1.202150    4.238211    1.294183
     60          8           0        0.882587    4.879763    2.327543
     61          8           0        2.235846    4.457074    0.577714
     62          7           0        3.811424    2.656999   -0.639661
     63          1           0        3.243606    3.449654   -0.265580
     64          6           0        5.215560    2.584676   -0.229503
     65          1           0        5.706994    1.827497   -0.847563
     66          6           0        5.181502    2.120195    1.235860
     67          6           0        5.894091    3.937862   -0.395595
     68          1           0        6.935401    3.886503   -0.063202
     69          1           0        5.382159    4.701902    0.196616
     70          1           0        5.871412    4.241479   -1.445660
     71          8           0        5.145761    2.916509    2.181593
     72          7           0        5.071939    0.784420    1.403413
     73          1           0        4.927046    0.240475    0.558152
     74          6           0        4.617939    0.190099    2.657024
     75          1           0        3.560083    0.453985    2.804264
     76          6           0        5.441926    0.725851    3.844820
     77          6           0        4.766473   -1.339700    2.614276
     78          1           0        5.838839   -1.564211    2.583878
     79          1           0        4.387206   -1.726524    3.570107
     80          8           0        6.656995    0.602691    3.902656
     81          6           0        4.041758   -2.067330    1.462586
     82          1           0        4.487548   -1.759199    0.505624
     83          6           0        4.265203   -3.580331    1.602959
     84          1           0        3.808188   -3.957088    2.527058
     85          1           0        5.332868   -3.826080    1.633530
     86          1           0        3.817389   -4.122919    0.762646
     87          6           0        2.544715   -1.735394    1.401155
     88          1           0        2.054068   -1.949423    2.359780
     89          1           0        2.049281   -2.336809    0.630085
     90          1           0        2.371730   -0.685140    1.150306
     91          7           0        4.684263    1.260289    4.845969
     92          1           0        3.707747    1.442603    4.663071
     93          6           0        5.251932    1.839532    6.047263
     94          1           0        6.253225    1.404172    6.154231
     95          6           0        4.475090    1.447790    7.304560
     96          6           0        5.374789    3.376920    5.949884
     97          1           0        5.480415    3.788119    6.959331
     98          1           0        4.425201    3.747591    5.539010
     99          8           0        4.633350    1.978010    8.380994
    100          6           0        6.546350    3.820416    5.062920
    101          1           0        6.656179    3.139328    4.214480
    102          1           0        7.481067    3.761424    5.634033
    103          6           0        6.389893    5.247419    4.519113
    104          1           0        7.317767    5.558365    4.025913
    105          1           0        6.206464    5.974758    5.316293
    106          7           0        5.315466    5.329242    3.527873
    107          1           0        5.373533    4.634617    2.777714
    108          7           0        3.737946    6.466598    4.842176
    109          1           0        2.823207    6.893878    4.878843
    110          1           0        4.099618    6.107323    5.712650
    111          7           0        3.279831    5.977684    2.631760
    112          1           0        3.526309    5.523229    1.751016
    113          1           0        2.245111    5.816596    2.736685
    114          6           0        4.108235    5.892194    3.666371
    115          8           0        3.594980    0.441597    7.099201
    116          1           0        3.181999    0.264542    7.966202
 ---------------------------------------------------------------------

 SCF Done:  E(RB3LYP) =  -2782.47069869     A.U. after    1 cycles

 Alpha  occ. eigenvalues --  -19.29590 -19.25724 -19.25392 -19.21050 -19.19697
 Alpha  occ. eigenvalues --  -19.19006 -19.18792 -19.18267 -19.16463 -19.12956
 Alpha  occ. eigenvalues --  -19.12519 -14.58571 -14.48972 -14.44747 -14.43901
 Alpha  occ. eigenvalues --  -14.42754 -14.42592 -14.41905 -14.41641 -14.40353
 Alpha  occ. eigenvalues --  -14.39442 -10.42753 -10.39581 -10.38972 -10.38853
 Alpha  occ. eigenvalues --  -10.38301 -10.37962 -10.35965 -10.35064 -10.34603
 Alpha  occ. eigenvalues --  -10.34569 -10.34048 -10.31460 -10.31089 -10.30728
 Alpha  occ. eigenvalues --  -10.30667 -10.30539 -10.30313 -10.30257 -10.30217
 Alpha  occ. eigenvalues --  -10.29847 -10.29805 -10.29678 -10.29200 -10.29185
 Alpha  occ. eigenvalues --  -10.29079 -10.28919 -10.25527 -10.25151 -10.24451
 Alpha  occ. eigenvalues --  -10.24240 -10.24222 -10.24043 -10.23648 -10.22647
 Alpha  occ. eigenvalues --  -10.22288 -10.21538  -1.18454  -1.16834  -1.16520
 Alpha  occ. eigenvalues --   -1.13157  -1.12504  -1.10933  -1.10549  -1.09371
 Alpha  occ. eigenvalues --   -1.08466  -1.07503  -1.07414  -1.05709  -1.05611
 Alpha  occ. eigenvalues --   -1.01399  -0.99269  -0.98899  -0.98436  -0.98009
 Alpha  occ. eigenvalues --   -0.97512  -0.96664  -0.96572  -0.94736  -0.92839
 Alpha  occ. eigenvalues --   -0.89865  -0.86882  -0.86511  -0.85712  -0.85475
 Alpha  occ. eigenvalues --   -0.85392  -0.84181  -0.82904  -0.82157  -0.81389
 Alpha  occ. eigenvalues --   -0.79438  -0.78033  -0.76506  -0.76290  -0.74860
 Alpha  occ. eigenvalues --   -0.73749  -0.73512  -0.73291  -0.71891  -0.71682
 Alpha  occ. eigenvalues --   -0.70996  -0.70819  -0.70212  -0.69777  -0.69201
 Alpha  occ. eigenvalues --   -0.68213  -0.67459  -0.66972  -0.66164  -0.65840
 Alpha  occ. eigenvalues --   -0.65431  -0.64797  -0.64447  -0.64301  -0.63512
 Alpha  occ. eigenvalues --   -0.62961  -0.62489  -0.61795  -0.61191  -0.60677
 Alpha  occ. eigenvalues --   -0.60486  -0.59274  -0.59043  -0.58470  -0.58295
 Alpha  occ. eigenvalues --   -0.57566  -0.57195  -0.56859  -0.56434  -0.56177
 Alpha  occ. eigenvalues --   -0.55848  -0.55570  -0.55033  -0.54722  -0.54168
 Alpha  occ. eigenvalues --   -0.53799  -0.53730  -0.53475  -0.53084  -0.52950
 Alpha  occ. eigenvalues --   -0.52803  -0.52735  -0.52457  -0.52122  -0.51874
 Alpha  occ. eigenvalues --   -0.51712  -0.51254  -0.51073  -0.50884  -0.50648
 Alpha  occ. eigenvalues --   -0.50452  -0.50257  -0.50018  -0.49414  -0.49240
 Alpha  occ. eigenvalues --   -0.48644  -0.48299  -0.48211  -0.48138  -0.47479
 Alpha  occ. eigenvalues --   -0.47336  -0.47136  -0.47016  -0.46699  -0.46690
 Alpha  occ. eigenvalues --   -0.46292  -0.46050  -0.45561  -0.45436  -0.45334
 Alpha  occ. eigenvalues --   -0.44926  -0.44733  -0.44656  -0.44606  -0.44247
 Alpha  occ. eigenvalues --   -0.44092  -0.43866  -0.43564  -0.43476  -0.43178
 Alpha  occ. eigenvalues --   -0.43079  -0.42867  -0.42463  -0.41943  -0.41714
 Alpha  occ. eigenvalues --   -0.41319  -0.41173  -0.40797  -0.40707  -0.39964
 Alpha  occ. eigenvalues --   -0.39851  -0.39069  -0.38817  -0.38137  -0.37891
 Alpha  occ. eigenvalues --   -0.37697  -0.37586  -0.37429  -0.36021  -0.35925
 Alpha  occ. eigenvalues --   -0.34868  -0.34576  -0.34357  -0.34204  -0.34068
 Alpha  occ. eigenvalues --   -0.33300  -0.32635  -0.32380  -0.32120  -0.31635
 Alpha  occ. eigenvalues --   -0.30811  -0.30079  -0.29785  -0.28317  -0.27535
 Alpha  occ. eigenvalues --   -0.26649
 Alpha virt. eigenvalues --   -0.12929  -0.11769  -0.11402  -0.07580  -0.06833
 Alpha virt. eigenvalues --   -0.05588  -0.05080  -0.04869  -0.04605  -0.04053
 Alpha virt. eigenvalues --   -0.03928  -0.02928  -0.02649  -0.02256  -0.01102

 Mulliken charges:
               1
     1  N   -0.747711
     2  H    0.409698
     3  H    0.419752
     4  H    0.416008
     5  C   -0.131110
     6  H    0.189887
     7  C    0.662932
     8  C    0.131445
     9  H    0.191059
    10  O   -0.532634
    11  C   -0.501074
    12  H    0.194487
    13  H    0.207404
    14  H    0.161873
    15  O   -0.629019
    16  H    0.420118
    17  N   -0.601506
    18  H    0.359577
    19  C   -0.064228
    20  H    0.199415
    21  C    0.636770
    22  C   -0.369754
    23  H    0.179107
    24  H    0.187049
    25  O   -0.551596
    26  C    0.165374
    27  C   -0.192287
    28  H    0.146161
    29  C   -0.144530
    30  H    0.159160
    31  C   -0.200154
    32  H    0.157698
    33  C   -0.129382
    34  H    0.165346
    35  C   -0.163094
    36  H    0.161134
    37  N   -0.618834
    38  H    0.363530
    39  C   -0.043853
    40  H    0.180972
    41  C    0.624762
    42  C   -0.452123
    43  H    0.165246
    44  H    0.165651
    45  H    0.184506
    46  O   -0.544669
    47  N   -0.632175
    48  H    0.355693
    49  C   -0.014451
    50  H    0.197470
    51  C    0.578785
    52  C   -0.284043
    53  H    0.151994
    54  H    0.151845
    55  O   -0.577573
    56  C   -0.344946
    57  H    0.176367
    58  H    0.147660
    59  C    0.600523
    60  O   -0.589415
    61  O   -0.631013
    62  N   -0.617278
    63  H    0.421659
    64  C   -0.069332
    65  H    0.177245
    66  C    0.645477
    67  C   -0.461853
    68  H    0.164203
    69  H    0.164502
    70  H    0.170310
    71  O   -0.567542
    72  N   -0.613087
    73  H    0.382123
    74  C   -0.045283
    75  H    0.143908
    76  C    0.659895
    77  C   -0.286569
    78  H    0.176688
    79  H    0.148280
    80  O   -0.532655
    81  C   -0.096644
    82  H    0.143492
    83  C   -0.443350
    84  H    0.143841
    85  H    0.152278
    86  H    0.143931
    87  C   -0.456549
    88  H    0.138295
    89  H    0.138412
    90  H    0.155456
    91  N   -0.595006
    92  H    0.333745
    93  C   -0.067184
    94  H    0.221381
    95  C    0.582114
    96  C   -0.277640
    97  H    0.175261
    98  H    0.128651
    99  O   -0.456128
   100  C   -0.284585
   101  H    0.204353
   102  H    0.157108
   103  C   -0.172482
   104  H    0.178463
   105  H    0.157702
   106  N   -0.597610
   107  H    0.396482
   108  N   -0.750759
   109  H    0.370880
   110  H    0.358969
   111  N   -0.768539
   112  H    0.375323
   113  H    0.385344
   114  C    0.733867
   115  O   -0.563000
   116  H    0.418153
 Sum of Mulliken charges =   1.00000

 Dipole moment (field-independent basis, Debye):
    X=            -23.0279    Y=             -8.7922    Z=            -17.1973  Tot=             30.0555
 Quadrupole moment (field-independent basis, Debye-Ang):
   XX=            -88.7746   YY=           -275.7614   ZZ=           -151.3426
   XY=            116.6487   XZ=            181.4218   YZ=            100.6648

 Normal termination of Gaussian 16 at Sat Jun 25 09:29:52 2022.
