 Gaussian 16, Revision C.01,
 Gaussian 16:  ES64L-G16RevC.01  3-Jul-2019

 ----------------------------------------------------------------------
 # B3LYP/6-31G* empiricaldispersion=gd3 guess=read geom=check nosymm in
 tegral(ultrafinegrid)
 ----------------------------------------------------------------------

 -----------------------------------------------------
 Candidate Structure: Conf:14 Charge calc in gas phase
 -----------------------------------------------------
 Structure from the checkpoint file:  "conf-14.chk"
 Charge =  1 Multiplicity = 1

                          Input orientation:
 ---------------------------------------------------------------------
 Center     Atomic      Atomic             Coordinates (Angstroms)
 Number     Number       Type             X           Y           Z
 ---------------------------------------------------------------------
      1          7           0       -8.464157   -2.644069   -3.544655
      2          1           0       -8.149842   -3.368842   -2.889429
      3          1           0       -8.623730   -1.782861   -3.013516
      4          1           0       -9.345163   -2.928295   -3.978635
      5          6           0       -7.440683   -2.389825   -4.583260
      6          1           0       -7.257945   -3.318330   -5.135302
      7          6           0       -6.168080   -1.950148   -3.876134
      8          6           0       -7.946242   -1.341536   -5.572228
      9          1           0       -8.224766   -0.448441   -5.006736
     10          8           0       -6.071707   -0.827341   -3.347530
     11          6           0       -6.922863   -0.994182   -6.634391
     12          1           0       -6.018630   -0.593473   -6.173773
     13          1           0       -7.333315   -0.245854   -7.315248
     14          1           0       -6.658975   -1.886340   -7.205783
     15          8           0       -9.156938   -1.803774   -6.167082
     16          1           0       -8.919636   -2.467833   -6.818101
     17          7           0       -5.171089   -2.872624   -3.848314
     18          1           0       -5.391400   -3.794161   -4.183566
     19          6           0       -4.194165   -2.818647   -2.766444
     20          1           0       -4.534859   -2.029022   -2.088262
     21          6           0       -2.844904   -2.379935   -3.326610
     22          6           0       -4.151759   -4.135347   -1.990566
     23          1           0       -3.679866   -4.907292   -2.595411
     24          1           0       -3.521752   -4.002237   -1.110935
     25          8           0       -1.825474   -3.067617   -3.241153
     26          6           0       -5.552540   -4.549031   -1.617252
     27          6           0       -6.280272   -3.813597   -0.686866
     28          1           0       -5.817502   -2.950657   -0.217051
     29          6           0       -6.177909   -5.605692   -2.268766
     30          1           0       -5.631275   -6.175661   -3.015232
     31          6           0       -7.588743   -4.161602   -0.369029
     32          1           0       -8.145277   -3.563690    0.345354
     33          6           0       -7.498164   -5.934961   -1.984463
     34          1           0       -7.983580   -6.735150   -2.531227
     35          6           0       -8.204714   -5.222470   -1.024371
     36          1           0       -9.245566   -5.457864   -0.823363
     37          7           0       -2.857160   -1.172049   -3.930847
     38          1           0       -3.711664   -0.634958   -3.908995
     39          6           0       -1.639579   -0.551523   -4.435115
     40          1           0       -1.033631   -1.369174   -4.838901
     41          6           0       -0.873677    0.079199   -3.267009
     42          6           0       -1.968253    0.464016   -5.511122
     43          1           0       -1.055104    0.929662   -5.884015
     44          1           0       -2.610616    1.248986   -5.108725
     45          1           0       -2.481639   -0.032807   -6.336797
     46          8           0       -0.803942    1.294776   -3.085376
     47          7           0       -0.292469   -0.803756   -2.427227
     48          1           0       -0.460907   -1.790232   -2.588022
     49          6           0        0.194258   -0.393463   -1.123341
     50          1           0       -0.369513    0.503489   -0.834202
     51          6           0        1.672113   -0.001543   -1.227786
     52          6           0       -0.018004   -1.499646   -0.089821
     53          1           0        0.501419   -1.221997    0.827888
     54          1           0        0.442341   -2.421559   -0.445435
     55          8           0        2.555760   -0.548385   -0.584538
     56          6           0       -1.495154   -1.745759    0.198062
     57          1           0       -1.969198   -0.847364    0.589879
     58          1           0       -2.010652   -2.063869   -0.711952
     59          6           0       -1.585062   -2.889030    1.238998
     60          8           0       -1.406918   -4.021831    0.759224
     61          8           0       -1.800009   -2.564997    2.419115
     62          7           0        1.930095    0.986489   -2.129421
     63          1           0        1.162480    1.528663   -2.507832
     64          6           0        3.260505    1.537061   -2.253155
     65          1           0        3.935128    0.826834   -1.773892
     66          6           0        3.307591    2.877944   -1.516554
     67          6           0        3.626537    1.744007   -3.716590
     68          1           0        4.649897    2.116754   -3.801254
     69          1           0        2.954779    2.477487   -4.166801
     70          1           0        3.544877    0.803932   -4.265612
     71          8           0        2.442058    3.727729   -1.684564
     72          7           0        4.375916    3.086237   -0.719628
     73          1           0        5.152625    2.445149   -0.659799
     74          6           0        4.560102    4.369333   -0.083562
     75          1           0        4.299273    5.142259   -0.812738
     76          6           0        6.043348    4.456281    0.282662
     77          6           0        3.644566    4.526047    1.136438
     78          1           0        2.666986    4.137609    0.835751
     79          1           0        4.010121    3.874368    1.935251
     80          8           0        6.750759    3.467221    0.346002
     81          6           0        3.437559    5.949437    1.661433
     82          1           0        4.370329    6.327425    2.087774
     83          6           0        2.983810    6.886345    0.545149
     84          1           0        2.188608    6.410588   -0.040343
     85          1           0        3.801662    7.138644   -0.136205
     86          1           0        2.596557    7.823957    0.949685
     87          6           0        2.405606    5.912954    2.787591
     88          1           0        1.440709    5.573737    2.404193
     89          1           0        2.268498    6.903011    3.227374
     90          1           0        2.714114    5.232328    3.584315
     91          7           0        6.490776    5.697356    0.569875
     92          1           0        5.873464    6.490601    0.590993
     93          6           0        7.821467    5.925124    1.093990
     94          1           0        8.054172    5.141296    1.822811
     95          6           0        7.772885    7.262806    1.789115
     96          6           0        8.877584    5.871008   -0.021668
     97          1           0        8.740897    6.726143   -0.688217
     98          1           0        8.644128    4.975618   -0.601232
     99          8           0        6.879752    8.065573    1.672278
    100          6           0       10.312332    5.791151    0.482995
    101          1           0       10.393750    4.968271    1.196072
    102          1           0       10.596631    6.696783    1.013060
    103          6           0       11.287890    5.561828   -0.661388
    104          1           0       11.188480    6.356231   -1.408920
    105          1           0       11.042124    4.624642   -1.165485
    106          7           0       12.699633    5.441889   -0.255240
    107          1           0       12.965468    4.549905    0.137851
    108          7           0       12.921382    7.733407    0.129736
    109          1           0       13.539868    8.526835    0.181054
    110          1           0       12.059005    7.875133   -0.369243
    111          7           0       14.651850    6.249558    0.695180
    112          1           0       15.115964    5.397433    0.409737
    113          1           0       15.264172    7.042291    0.819718
    114          6           0       13.425213    6.486037    0.168382
    115          8           0        8.853528    7.473118    2.563438
    116          1           0        8.752718    8.354063    2.945415
 ---------------------------------------------------------------------

 SCF Done:  E(RB3LYP) =  -2782.29121241     A.U. after    3 cycles

 Alpha  occ. eigenvalues --  -19.29473 -19.27809 -19.24277 -19.23722 -19.18359
 Alpha  occ. eigenvalues --  -19.17360 -19.14139 -19.13579 -19.11402 -19.01271
 Alpha  occ. eigenvalues --  -19.01168 -14.60838 -14.53162 -14.52723 -14.52601
 Alpha  occ. eigenvalues --  -14.47847 -14.42904 -14.41860 -14.38640 -14.37149
 Alpha  occ. eigenvalues --  -14.35397 -10.48138 -10.41553 -10.41552 -10.39422
 Alpha  occ. eigenvalues --  -10.37446 -10.36358 -10.34964 -10.34608 -10.32812
 Alpha  occ. eigenvalues --  -10.31125 -10.30866 -10.30467 -10.30218 -10.29208
 Alpha  occ. eigenvalues --  -10.29181 -10.28230 -10.27714 -10.27693 -10.27596
 Alpha  occ. eigenvalues --  -10.27595 -10.27534 -10.27186 -10.27162 -10.26732
 Alpha  occ. eigenvalues --  -10.25063 -10.24427 -10.22779 -10.22686 -10.22532
 Alpha  occ. eigenvalues --  -10.21821 -10.20983 -10.20669 -10.20470 -10.19262
 Alpha  occ. eigenvalues --  -10.16002 -10.13485  -1.20833  -1.17749  -1.17550
 Alpha  occ. eigenvalues --   -1.15372  -1.14221  -1.11863  -1.11002  -1.09501
 Alpha  occ. eigenvalues --   -1.06872  -1.06234  -1.06226  -1.06073  -1.04389
 Alpha  occ. eigenvalues --   -1.03532  -1.00597  -0.98369  -0.95718  -0.95054
 Alpha  occ. eigenvalues --   -0.94647  -0.94193  -0.92647  -0.92571  -0.92137
 Alpha  occ. eigenvalues --   -0.87479  -0.86892  -0.86215  -0.85074  -0.84678
 Alpha  occ. eigenvalues --   -0.83192  -0.83056  -0.81578  -0.80824  -0.79952
 Alpha  occ. eigenvalues --   -0.78499  -0.77743  -0.76871  -0.76788  -0.75087
 Alpha  occ. eigenvalues --   -0.75004  -0.73662  -0.73645  -0.72124  -0.71812
 Alpha  occ. eigenvalues --   -0.71168  -0.71038  -0.70673  -0.70638  -0.69304
 Alpha  occ. eigenvalues --   -0.68983  -0.68161  -0.67400  -0.66541  -0.66302
 Alpha  occ. eigenvalues --   -0.66133  -0.65536  -0.65425  -0.64900  -0.62862
 Alpha  occ. eigenvalues --   -0.62201  -0.61731  -0.61284  -0.60894  -0.60394
 Alpha  occ. eigenvalues --   -0.59841  -0.59577  -0.59466  -0.59361  -0.58686
 Alpha  occ. eigenvalues --   -0.58203  -0.58026  -0.57707  -0.57638  -0.56383
 Alpha  occ. eigenvalues --   -0.56204  -0.55624  -0.55470  -0.55074  -0.54456
 Alpha  occ. eigenvalues --   -0.53799  -0.53246  -0.53197  -0.52986  -0.52088
 Alpha  occ. eigenvalues --   -0.51909  -0.51394  -0.51127  -0.50878  -0.50598
 Alpha  occ. eigenvalues --   -0.50306  -0.50057  -0.49819  -0.49516  -0.49444
 Alpha  occ. eigenvalues --   -0.49142  -0.48575  -0.48381  -0.48311  -0.48244
 Alpha  occ. eigenvalues --   -0.47901  -0.47077  -0.46271  -0.46244  -0.45944
 Alpha  occ. eigenvalues --   -0.45628  -0.45389  -0.45241  -0.44964  -0.44805
 Alpha  occ. eigenvalues --   -0.44400  -0.44152  -0.43987  -0.43904  -0.43461
 Alpha  occ. eigenvalues --   -0.42950  -0.42622  -0.42566  -0.42251  -0.42035
 Alpha  occ. eigenvalues --   -0.41889  -0.41709  -0.41432  -0.41332  -0.41177
 Alpha  occ. eigenvalues --   -0.41100  -0.40912  -0.40813  -0.40497  -0.40174
 Alpha  occ. eigenvalues --   -0.39413  -0.38643  -0.38147  -0.37986  -0.37890
 Alpha  occ. eigenvalues --   -0.37832  -0.37472  -0.36818  -0.36586  -0.36290
 Alpha  occ. eigenvalues --   -0.36128  -0.34614  -0.34027  -0.33550  -0.33262
 Alpha  occ. eigenvalues --   -0.33036  -0.32910  -0.32372  -0.32051  -0.30767
 Alpha  occ. eigenvalues --   -0.30504  -0.29376  -0.28518  -0.28266  -0.27809
 Alpha  occ. eigenvalues --   -0.27457  -0.25518  -0.23954  -0.17069  -0.15529
 Alpha  occ. eigenvalues --   -0.14826
 Alpha virt. eigenvalues --   -0.14235  -0.12980  -0.09642  -0.09205  -0.08744
 Alpha virt. eigenvalues --   -0.08705  -0.08396  -0.06130  -0.06102  -0.04820
 Alpha virt. eigenvalues --   -0.04591  -0.03990  -0.03556  -0.03520  -0.02141

 Mulliken charges:
               1
     1  N   -0.723893
     2  H    0.434467
     3  H    0.426644
     4  H    0.421352
     5  C   -0.151415
     6  H    0.188575
     7  C    0.608442
     8  C    0.123311
     9  H    0.188510
    10  O   -0.519615
    11  C   -0.484063
    12  H    0.196442
    13  H    0.207193
    14  H    0.153584
    15  O   -0.614903
    16  H    0.407290
    17  N   -0.563535
    18  H    0.340251
    19  C   -0.111136
    20  H    0.218041
    21  C    0.664574
    22  C   -0.402698
    23  H    0.179689
    24  H    0.272603
    25  O   -0.526543
    26  C    0.172195
    27  C   -0.194435
    28  H    0.182763
    29  C   -0.222191
    30  H    0.147069
    31  C   -0.155704
    32  H    0.158814
    33  C   -0.149580
    34  H    0.149345
    35  C   -0.168346
    36  H    0.149927
    37  N   -0.600587
    38  H    0.344704
    39  C   -0.060323
    40  H    0.184052
    41  C    0.621149
    42  C   -0.459406
    43  H    0.179227
    44  H    0.167603
    45  H    0.135243
    46  O   -0.548023
    47  N   -0.601212
    48  H    0.383664
    49  C   -0.073122
    50  H    0.172524
    51  C    0.615168
    52  C   -0.279558
    53  H    0.170815
    54  H    0.162596
    55  O   -0.522820
    56  C   -0.330398
    57  H    0.103007
    58  H    0.074783
    59  C    0.536719
    60  O   -0.593611
    61  O   -0.569875
    62  N   -0.608090
    63  H    0.367944
    64  C   -0.057110
    65  H    0.171393
    66  C    0.631556
    67  C   -0.448614
    68  H    0.133275
    69  H    0.164601
    70  H    0.160977
    71  O   -0.544913
    72  N   -0.619312
    73  H    0.351216
    74  C   -0.043940
    75  H    0.174627
    76  C    0.610265
    77  C   -0.261132
    78  H    0.188263
    79  H    0.144535
    80  O   -0.538226
    81  C   -0.090440
    82  H    0.110760
    83  C   -0.461860
    84  H    0.181257
    85  H    0.124170
    86  H    0.148081
    87  C   -0.446125
    88  H    0.157037
    89  H    0.142170
    90  H    0.147025
    91  N   -0.640437
    92  H    0.377695
    93  C   -0.020062
    94  H    0.200843
    95  C    0.578735
    96  C   -0.280945
    97  H    0.148699
    98  H    0.197824
    99  O   -0.447574
   100  C   -0.284952
   101  H    0.171749
   102  H    0.165286
   103  C   -0.199400
   104  H    0.176036
   105  H    0.207403
   106  N   -0.570926
   107  H    0.369251
   108  N   -0.731844
   109  H    0.376598
   110  H    0.385081
   111  N   -0.734045
   112  H    0.378530
   113  H    0.372200
   114  C    0.742952
   115  O   -0.567498
   116  H    0.424073
 Sum of Mulliken charges =   1.00000

 Dipole moment (field-independent basis, Debye):
    X=             25.0906    Y=             25.4632    Z=            -22.1022  Tot=             42.0288
 Quadrupole moment (field-independent basis, Debye-Ang):
   XX=            688.0750   YY=           -125.3593   ZZ=           -253.9557
   XY=            482.0618   XZ=            152.8725   YZ=             89.7115

 Normal termination of Gaussian 16 at Sat Jun 25 09:31:13 2022.
