 Gaussian 16, Revision C.01,
 Gaussian 16:  ES64L-G16RevC.01  3-Jul-2019

 ----------------------------------------------------------------------
 # B3LYP/6-31G* empiricaldispersion=gd3 guess=read geom=check nosymm in
 tegral(ultrafinegrid)
 ----------------------------------------------------------------------

 ------------------------------------------------------
 Candidate Structure: Conf:705 Charge calc in gas phase
 ------------------------------------------------------
 Structure from the checkpoint file:  "conf-705.chk"
 Charge =  1 Multiplicity = 1

                          Input orientation:
 ---------------------------------------------------------------------
 Center     Atomic      Atomic             Coordinates (Angstroms)
 Number     Number       Type             X           Y           Z
 ---------------------------------------------------------------------
      1          7           0       -2.490050   -0.253840    0.436663
      2          1           0       -1.697598   -1.765474    1.172951
      3          1           0       -1.584114    0.216243    0.501622
      4          1           0       -3.162298    0.318738    0.942220
      5          6           0       -2.851088   -0.325337   -0.992685
      6          1           0       -3.928171   -0.511044   -1.074503
      7          6           0       -2.058911   -1.497630   -1.561182
      8          6           0       -2.492566    0.965244   -1.794659
      9          1           0       -2.663460    0.748181   -2.863471
     10          8           0       -0.826661   -1.446919   -1.567104
     11          6           0       -3.360364    2.148476   -1.387792
     12          1           0       -4.420915    1.942244   -1.566884
     13          1           0       -3.072373    3.030349   -1.966434
     14          1           0       -3.221240    2.383876   -0.327420
     15          8           0       -1.139880    1.339292   -1.577688
     16          1           0       -0.570655    0.631747   -1.935535
     17          7           0       -2.726411   -2.566814   -2.066394
     18          1           0       -3.721301   -2.649402   -1.881825
     19          6           0       -2.020804   -3.840153   -2.260639
     20          1           0       -1.720409   -4.225542   -1.280157
     21          6           0       -0.708888   -3.698188   -3.039977
     22          6           0       -2.954740   -4.864626   -2.944743
     23          1           0       -3.185226   -4.517455   -3.958460
     24          1           0       -2.389843   -5.798248   -3.039829
     25          8           0        0.260281   -4.391518   -2.733315
     26          6           0       -4.225371   -5.081090   -2.151886
     27          6           0       -4.197946   -5.818338   -0.959243
     28          1           0       -3.267062   -6.279508   -0.636166
     29          6           0       -5.433173   -4.495924   -2.555896
     30          1           0       -5.472244   -3.936455   -3.488688
     31          6           0       -5.351660   -5.971141   -0.192322
     32          1           0       -5.317078   -6.552274    0.724840
     33          6           0       -6.591107   -4.646108   -1.787012
     34          1           0       -7.522098   -4.195228   -2.119139
     35          6           0       -6.551631   -5.383258   -0.603663
     36          1           0       -7.450812   -5.505716   -0.006863
     37          7           0       -0.696379   -2.824488   -4.087264
     38          1           0       -1.470331   -2.171374   -4.126836
     39          6           0        0.582755   -2.309544   -4.597674
     40          1           0        1.229843   -3.176639   -4.753693
     41          6           0        1.194474   -1.398606   -3.507753
     42          6           0        0.370633   -1.553994   -5.902929
     43          1           0        1.330493   -1.221567   -6.308593
     44          1           0       -0.241766   -0.662719   -5.734842
     45          1           0       -0.116692   -2.200836   -6.637608
     46          8           0        0.977532   -0.177640   -3.491487
     47          7           0        1.933883   -2.035555   -2.567557
     48          1           0        1.878109   -3.051255   -2.572047
     49          6           0        2.244472   -1.386154   -1.286984
     50          1           0        1.396029   -0.745052   -1.037953
     51          6           0        3.470198   -0.465004   -1.423056
     52          6           0        2.440598   -2.393920   -0.146519
     53          1           0        2.898829   -1.854756    0.687011
     54          1           0        3.156427   -3.165267   -0.450780
     55          8           0        4.578278   -0.747827   -0.940021
     56          6           0        1.138837   -3.033366    0.346144
     57          1           0        0.631175   -3.583569   -0.451074
     58          1           0        1.359637   -3.767188    1.131910
     59          6           0        0.168526   -2.012588    0.914694
     60          8           0       -1.051027   -2.526054    1.109205
     61          8           0        0.461098   -0.847729    1.149563
     62          7           0        3.201877    0.708076   -2.033651
     63          1           0        2.311942    0.754474   -2.540957
     64          6           0        4.144227    1.811910   -2.119692
     65          1           0        5.153033    1.413825   -2.259529
     66          6           0        4.189195    2.661344   -0.830885
     67          6           0        3.785569    2.724113   -3.299502
     68          1           0        4.484609    3.561820   -3.339347
     69          1           0        2.771014    3.123486   -3.185893
     70          1           0        3.835119    2.165534   -4.238568
     71          8           0        5.023630    3.558366   -0.712954
     72          7           0        3.254909    2.394873    0.117643
     73          1           0        2.561079    1.686303   -0.080306
     74          6           0        2.962652    3.335571    1.196689
     75          1           0        2.800236    4.323804    0.750000
     76          6           0        4.138675    3.443488    2.186220
     77          6           0        1.706174    2.894517    1.963503
     78          1           0        1.935066    1.958073    2.485091
     79          1           0        1.522589    3.648530    2.740177
     80          8           0        4.407348    2.534387    2.989656
     81          6           0        0.426656    2.724781    1.119235
     82          1           0        0.550548    1.880296    0.426519
     83          6           0       -0.729556    2.350135    2.057803
     84          1           0       -0.868495    3.109857    2.836941
     85          1           0       -0.543792    1.384552    2.540873
     86          1           0       -1.667637    2.280174    1.497567
     87          6           0        0.087707    3.966774    0.287091
     88          1           0       -0.078704    4.841492    0.929035
     89          1           0       -0.816470    3.785943   -0.300574
     90          1           0        0.884021    4.216520   -0.424216
     91          7           0        4.831920    4.593595    2.129006
     92          1           0        4.560157    5.274102    1.430784
     93          6           0        5.824817    5.039895    3.091065
     94          1           0        5.897258    4.288596    3.882014
     95          6           0        5.308995    6.345027    3.707899
     96          6           0        7.213032    5.311946    2.456153
     97          1           0        7.736492    6.011939    3.116302
     98          1           0        7.055192    5.836375    1.504949
     99          8           0        4.470850    7.053180    3.200229
    100          6           0        8.156741    4.115792    2.243300
    101          1           0        8.340290    3.603245    3.196932
    102          1           0        9.122346    4.535549    1.940378
    103          6           0        7.770470    3.074804    1.181833
    104          1           0        8.685705    2.575475    0.840722
    105          1           0        7.286449    3.552670    0.320111
    106          7           0        6.877867    2.056070    1.741174
    107          1           0        6.338674    2.293412    2.570292
    108          7           0        6.906800    0.661378   -0.135259
    109          1           0        6.330238    0.050340   -0.714821
    110          1           0        7.569241    1.265554   -0.595992
    111          7           0        5.408980    0.273296    1.588113
    112          1           0        4.811217    0.739252    2.269575
    113          1           0        4.969191   -0.402645    0.969508
    114          6           0        6.388916    1.019871    1.051488
    115          8           0        5.946534    6.619226    4.860899
    116          1           0        5.613547    7.478452    5.184865
 ---------------------------------------------------------------------

 SCF Done:  E(RB3LYP) =  -2782.54645221     A.U. after    1 cycles

 Alpha  occ. eigenvalues --  -19.28910 -19.24284 -19.23349 -19.22988 -19.22599
 Alpha  occ. eigenvalues --  -19.21967 -19.21741 -19.21586 -19.21460 -19.20776
 Alpha  occ. eigenvalues --  -19.20473 -14.47064 -14.46883 -14.46692 -14.46168
 Alpha  occ. eigenvalues --  -14.45972 -14.45751 -14.45334 -14.44984 -14.44839
 Alpha  occ. eigenvalues --  -14.41968 -10.43010 -10.41380 -10.39439 -10.39203
 Alpha  occ. eigenvalues --  -10.38602 -10.38502 -10.38490 -10.37991 -10.37861
 Alpha  occ. eigenvalues --  -10.34061 -10.33321 -10.33063 -10.32894 -10.32429
 Alpha  occ. eigenvalues --  -10.32372 -10.32185 -10.31836 -10.31723 -10.29394
 Alpha  occ. eigenvalues --  -10.29374 -10.28049 -10.27487 -10.27434 -10.27375
 Alpha  occ. eigenvalues --  -10.26999 -10.26679 -10.26502 -10.26444 -10.26200
 Alpha  occ. eigenvalues --  -10.26181 -10.26139 -10.26055 -10.25910 -10.25635
 Alpha  occ. eigenvalues --  -10.24304 -10.24172  -1.19872  -1.16035  -1.14603
 Alpha  occ. eigenvalues --   -1.14385  -1.14226  -1.13116  -1.12940  -1.12241
 Alpha  occ. eigenvalues --   -1.11844  -1.11095  -1.09472  -1.07244  -1.03493
 Alpha  occ. eigenvalues --   -1.03327  -1.02663  -1.01965  -1.01602  -1.01424
 Alpha  occ. eigenvalues --   -1.00822  -0.99597  -0.98309  -0.92979  -0.90593
 Alpha  occ. eigenvalues --   -0.89283  -0.88651  -0.87712  -0.86745  -0.85924
 Alpha  occ. eigenvalues --   -0.85185  -0.84378  -0.82962  -0.81659  -0.81459
 Alpha  occ. eigenvalues --   -0.80857  -0.78764  -0.78207  -0.75507  -0.75126
 Alpha  occ. eigenvalues --   -0.74422  -0.74317  -0.73879  -0.73107  -0.72352
 Alpha  occ. eigenvalues --   -0.71331  -0.70003  -0.69706  -0.69300  -0.68461
 Alpha  occ. eigenvalues --   -0.68269  -0.67989  -0.67738  -0.67124  -0.67026
 Alpha  occ. eigenvalues --   -0.66393  -0.65508  -0.65044  -0.64871  -0.64062
 Alpha  occ. eigenvalues --   -0.62468  -0.62148  -0.61871  -0.61499  -0.60972
 Alpha  occ. eigenvalues --   -0.60233  -0.60151  -0.59706  -0.59673  -0.59349
 Alpha  occ. eigenvalues --   -0.58692  -0.58514  -0.58418  -0.57955  -0.57689
 Alpha  occ. eigenvalues --   -0.57220  -0.56615  -0.56525  -0.56097  -0.55649
 Alpha  occ. eigenvalues --   -0.55513  -0.55235  -0.55029  -0.54745  -0.53883
 Alpha  occ. eigenvalues --   -0.53724  -0.53358  -0.53100  -0.52949  -0.52595
 Alpha  occ. eigenvalues --   -0.52194  -0.52036  -0.51796  -0.51666  -0.51314
 Alpha  occ. eigenvalues --   -0.50979  -0.50852  -0.50522  -0.50226  -0.50073
 Alpha  occ. eigenvalues --   -0.49776  -0.49395  -0.49372  -0.49108  -0.48908
 Alpha  occ. eigenvalues --   -0.48701  -0.48271  -0.48144  -0.47976  -0.47923
 Alpha  occ. eigenvalues --   -0.47791  -0.47656  -0.46984  -0.46852  -0.46435
 Alpha  occ. eigenvalues --   -0.46331  -0.45984  -0.45815  -0.45668  -0.45582
 Alpha  occ. eigenvalues --   -0.45396  -0.45245  -0.44985  -0.44912  -0.44757
 Alpha  occ. eigenvalues --   -0.44700  -0.44454  -0.44312  -0.43989  -0.43660
 Alpha  occ. eigenvalues --   -0.43392  -0.42743  -0.41963  -0.41383  -0.41327
 Alpha  occ. eigenvalues --   -0.41138  -0.41003  -0.40123  -0.40078  -0.39813
 Alpha  occ. eigenvalues --   -0.38931  -0.38158  -0.38147  -0.37931  -0.37773
 Alpha  occ. eigenvalues --   -0.37231  -0.37103  -0.36701  -0.36491  -0.36385
 Alpha  occ. eigenvalues --   -0.35825  -0.35747  -0.34605  -0.34597  -0.34446
 Alpha  occ. eigenvalues --   -0.34090  -0.33707  -0.33206  -0.32598  -0.32291
 Alpha  occ. eigenvalues --   -0.31664
 Alpha virt. eigenvalues --   -0.09378  -0.09265  -0.09046  -0.08504  -0.08421
 Alpha virt. eigenvalues --   -0.08279  -0.07655  -0.07526  -0.07277  -0.06106
 Alpha virt. eigenvalues --   -0.05131  -0.02859  -0.02156  -0.01320  -0.01026

 Mulliken charges:
               1
     1  N   -0.788091
     2  H    0.444765
     3  H    0.382831
     4  H    0.332348
     5  C   -0.081393
     6  H    0.146796
     7  C    0.640105
     8  C    0.124988
     9  H    0.123612
    10  O   -0.556484
    11  C   -0.466495
    12  H    0.152126
    13  H    0.178807
    14  H    0.155843
    15  O   -0.650239
    16  H    0.441019
    17  N   -0.645147
    18  H    0.352656
    19  C   -0.032246
    20  H    0.202686
    21  C    0.646012
    22  C   -0.384393
    23  H    0.163822
    24  H    0.191278
    25  O   -0.551271
    26  C    0.146209
    27  C   -0.174779
    28  H    0.142835
    29  C   -0.209308
    30  H    0.133512
    31  C   -0.126161
    32  H    0.150390
    33  C   -0.126393
    34  H    0.146975
    35  C   -0.128087
    36  H    0.149707
    37  N   -0.570900
    38  H    0.335878
    39  C   -0.063226
    40  H    0.186658
    41  C    0.653498
    42  C   -0.462885
    43  H    0.170672
    44  H    0.169760
    45  H    0.171938
    46  O   -0.575494
    47  N   -0.602569
    48  H    0.377803
    49  C   -0.070364
    50  H    0.212707
    51  C    0.617199
    52  C   -0.295389
    53  H    0.157370
    54  H    0.166081
    55  O   -0.567927
    56  C   -0.381164
    57  H    0.208779
    58  H    0.186064
    59  C    0.631385
    60  O   -0.607762
    61  O   -0.515400
    62  N   -0.640218
    63  H    0.399184
    64  C   -0.028908
    65  H    0.167833
    66  C    0.623556
    67  C   -0.476375
    68  H    0.193090
    69  H    0.169219
    70  H    0.178402
    71  O   -0.553002
    72  N   -0.621195
    73  H    0.363320
    74  C   -0.037976
    75  H    0.167637
    76  C    0.653331
    77  C   -0.301977
    78  H    0.173620
    79  H    0.157000
    80  O   -0.586119
    81  C   -0.094452
    82  H    0.149378
    83  C   -0.466720
    84  H    0.147326
    85  H    0.167775
    86  H    0.135322
    87  C   -0.454769
    88  H    0.144564
    89  H    0.171884
    90  H    0.133847
    91  N   -0.550709
    92  H    0.360454
    93  C   -0.075791
    94  H    0.201357
    95  C    0.584979
    96  C   -0.276603
    97  H    0.186189
    98  H    0.167899
    99  O   -0.448425
   100  C   -0.316683
   101  H    0.170521
   102  H    0.177523
   103  C   -0.150920
   104  H    0.167464
   105  H    0.205356
   106  N   -0.615696
   107  H    0.380122
   108  N   -0.778764
   109  H    0.403914
   110  H    0.366687
   111  N   -0.791167
   112  H    0.391116
   113  H    0.395462
   114  C    0.776027
   115  O   -0.556394
   116  H    0.429958
 Sum of Mulliken charges =   1.00000

 Dipole moment (field-independent basis, Debye):
    X=             10.0131    Y=              5.0712    Z=             -2.1268  Tot=             11.4237
 Quadrupole moment (field-independent basis, Debye-Ang):
   XX=           -165.4900   YY=           -273.3181   ZZ=           -288.8465
   XY=             79.9604   XZ=             29.6226   YZ=             36.1140

 Normal termination of Gaussian 16 at Sat Jun 25 09:45:50 2022.
