 Gaussian 16, Revision C.01,
 Gaussian 16:  ES64L-G16RevC.01  3-Jul-2019

 ----------------------------------------------------------------------
 # B3LYP/6-31G* empiricaldispersion=gd3 guess=read geom=check nosymm in
 tegral(ultrafinegrid)
 ----------------------------------------------------------------------

 ------------------------------------------------------
 Candidate Structure: Conf:129 Charge calc in gas phase
 ------------------------------------------------------
 Structure from the checkpoint file:  "conf-129.chk"
 Charge =  1 Multiplicity = 1

                          Input orientation:
 ---------------------------------------------------------------------
 Center     Atomic      Atomic             Coordinates (Angstroms)
 Number     Number       Type             X           Y           Z
 ---------------------------------------------------------------------
      1          7           0       -8.354406   -6.211637   -2.762811
      2          1           0       -8.306318   -5.993785   -1.766440
      3          1           0       -9.081239   -5.636213   -3.194974
      4          1           0       -8.584504   -7.198794   -2.891784
      5          6           0       -7.072335   -5.920674   -3.436352
      6          1           0       -6.244345   -6.355534   -2.868853
      7          6           0       -6.904417   -4.416103   -3.541373
      8          6           0       -7.081088   -6.550318   -4.828171
      9          1           0       -7.889015   -6.076810   -5.400908
     10          8           0       -7.805224   -3.710245   -3.986480
     11          6           0       -5.764708   -6.419804   -5.562018
     12          1           0       -5.506127   -5.371091   -5.723287
     13          1           0       -5.828156   -6.913354   -6.533306
     14          1           0       -4.972442   -6.894893   -4.978172
     15          8           0       -7.387583   -7.934063   -4.617364
     16          1           0       -7.440905   -8.360766   -5.475926
     17          7           0       -5.714088   -3.913792   -3.145347
     18          1           0       -5.022465   -4.502509   -2.705439
     19          6           0       -5.450884   -2.484620   -3.178737
     20          1           0       -5.840763   -2.092740   -4.117347
     21          6           0       -3.945287   -2.309574   -3.118345
     22          6           0       -6.136005   -1.752599   -2.017554
     23          1           0       -7.204272   -1.965364   -2.099306
     24          1           0       -5.780604   -2.179189   -1.077522
     25          8           0       -3.279610   -2.855334   -2.241020
     26          6           0       -5.868720   -0.268824   -2.016730
     27          6           0       -5.336468    0.350189   -0.882823
     28          1           0       -5.111154   -0.239884    0.000686
     29          6           0       -6.147405    0.515352   -3.138258
     30          1           0       -6.575460    0.046138   -4.016770
     31          6           0       -5.100240    1.722333   -0.874434
     32          1           0       -4.674324    2.178057    0.015112
     33          6           0       -5.906909    1.888626   -3.128799
     34          1           0       -6.138274    2.476001   -4.009214
     35          6           0       -5.386968    2.500531   -1.991894
     36          1           0       -5.204498    3.568150   -1.977944
     37          7           0       -3.395323   -1.547435   -4.094154
     38          1           0       -3.993230   -0.900295   -4.577978
     39          6           0       -1.972174   -1.247231   -4.097841
     40          1           0       -1.440633   -2.200348   -4.025885
     41          6           0       -1.630069   -0.400830   -2.875353
     42          6           0       -1.622600   -0.508220   -5.378329
     43          1           0       -0.557190   -0.268719   -5.412256
     44          1           0       -2.187661    0.423886   -5.434106
     45          1           0       -1.870039   -1.124140   -6.245217
     46          8           0       -2.234640    0.638164   -2.626717
     47          7           0       -0.628379   -0.878584   -2.107184
     48          1           0       -0.119597   -1.706605   -2.367777
     49          6           0       -0.188589   -0.203771   -0.911694
     50          1           0       -0.470655    0.846438   -1.016187
     51          6           0        1.332905   -0.366440   -0.821374
     52          6           0       -0.855945   -0.766980    0.346591
     53          1           0       -0.495836   -0.219809    1.220200
     54          1           0       -0.555055   -1.808076    0.479504
     55          8           0        1.907324   -1.339211   -1.280388
     56          6           0       -2.376622   -0.648612    0.280380
     57          1           0       -2.661761    0.356785   -0.048004
     58          1           0       -2.825963   -1.348117   -0.422230
     59          6           0       -3.016633   -0.852657    1.677573
     60          8           0       -4.243120   -1.082741    1.672895
     61          8           0       -2.287377   -0.730917    2.672718
     62          7           0        1.982042    0.609892   -0.149369
     63          1           0        1.509270    1.394359    0.271254
     64          6           0        3.405092    0.542190    0.089670
     65          1           0        3.660402   -0.473741    0.400519
     66          6           0        3.684725    1.535361    1.226185
     67          6           0        4.207461    0.879944   -1.166683
     68          1           0        5.279038    0.832231   -0.961675
     69          1           0        3.961205    1.884764   -1.518553
     70          1           0        3.959116    0.164061   -1.949128
     71          8           0        2.896459    2.425858    1.501237
     72          7           0        4.864415    1.349193    1.871119
     73          1           0        5.562848    0.741201    1.471579
     74          6           0        5.406176    2.333596    2.781705
     75          1           0        4.842013    3.260245    2.655265
     76          6           0        6.870101    2.548766    2.378168
     77          6           0        5.325159    1.893558    4.243762
     78          1           0        5.877664    0.957042    4.352352
     79          1           0        5.840873    2.636810    4.856950
     80          8           0        7.477038    1.736992    1.699256
     81          6           0        3.912822    1.700637    4.801365
     82          1           0        3.387889    0.986181    4.166838
     83          6           0        4.000848    1.107746    6.205057
     84          1           0        4.534690    1.788955    6.872803
     85          1           0        4.532606    0.153868    6.192876
     86          1           0        3.005935    0.933347    6.621150
     87          6           0        3.122896    3.006641    4.820766
     88          1           0        3.633891    3.746040    5.444669
     89          1           0        2.127823    2.841229    5.241745
     90          1           0        2.998454    3.422908    3.821129
     91          7           0        7.433054    3.683972    2.859394
     92          1           0        6.900677    4.293511    3.457575
     93          6           0        8.847416    3.951237    2.699803
     94          1           0        9.343399    3.006696    2.463481
     95          6           0        9.460424    4.471467    3.983795
     96          6           0        9.149839    4.943970    1.568299
     97          1           0       10.227210    5.132778    1.589389
     98          1           0        8.649907    5.891165    1.762359
     99          8           0       10.612590    4.323805    4.294827
    100          6           0        8.747388    4.391262    0.210192
    101          1           0        7.671468    4.234289    0.178808
    102          1           0        9.206355    3.406701    0.074639
    103          6           0        9.159563    5.278534   -0.957885
    104          1           0        8.902544    4.780148   -1.894531
    105          1           0       10.241818    5.418515   -0.963208
    106          7           0        8.470070    6.584639   -0.966603
    107          1           0        7.461516    6.522333   -0.945342
    108          7           0       10.252819    7.868970   -0.121723
    109          1           0       10.635943    8.798178   -0.041722
    110          1           0       10.914748    7.175292   -0.436933
    111          7           0        8.118400    8.793864   -0.367513
    112          1           0        7.285205    8.794072   -0.941321
    113          1           0        8.535611    9.705776   -0.253614
    114          6           0        8.964185    7.741142   -0.511708
    115          8           0        8.579925    5.179698    4.731740
    116          1           0        9.063017    5.489421    5.508530
 ---------------------------------------------------------------------

 SCF Done:  E(RB3LYP) =  -2782.30092076     A.U. after    3 cycles

 Alpha  occ. eigenvalues --  -19.28891 -19.27684 -19.22889 -19.22640 -19.20119
 Alpha  occ. eigenvalues --  -19.17129 -19.16455 -19.13441 -19.11912 -19.01436
 Alpha  occ. eigenvalues --  -19.01382 -14.60701 -14.53113 -14.52988 -14.52664
 Alpha  occ. eigenvalues --  -14.46302 -14.44937 -14.41146 -14.40569 -14.37819
 Alpha  occ. eigenvalues --  -14.36637 -10.48336 -10.41076 -10.40125 -10.38803
 Alpha  occ. eigenvalues --  -10.37474 -10.36810 -10.36714 -10.33841 -10.33441
 Alpha  occ. eigenvalues --  -10.33216 -10.30311 -10.30120 -10.29990 -10.29404
 Alpha  occ. eigenvalues --  -10.29383 -10.29351 -10.28908 -10.27162 -10.26728
 Alpha  occ. eigenvalues --  -10.23897 -10.22843 -10.22520 -10.22510 -10.22503
 Alpha  occ. eigenvalues --  -10.22483 -10.20625 -10.20417 -10.20225 -10.20043
 Alpha  occ. eigenvalues --  -10.19819 -10.19367 -10.19328 -10.18624 -10.17413
 Alpha  occ. eigenvalues --  -10.15894 -10.12441  -1.20008  -1.17629  -1.17537
 Alpha  occ. eigenvalues --   -1.14908  -1.13670  -1.12698  -1.10925  -1.09496
 Alpha  occ. eigenvalues --   -1.08670  -1.07185  -1.06092  -1.06019  -1.04199
 Alpha  occ. eigenvalues --   -1.02275  -1.02162  -0.98499  -0.97145  -0.95326
 Alpha  occ. eigenvalues --   -0.95148  -0.93437  -0.92458  -0.92370  -0.87751
 Alpha  occ. eigenvalues --   -0.86978  -0.86277  -0.85909  -0.84770  -0.83058
 Alpha  occ. eigenvalues --   -0.82296  -0.81524  -0.80879  -0.79401  -0.78442
 Alpha  occ. eigenvalues --   -0.77534  -0.76878  -0.75512  -0.75084  -0.74681
 Alpha  occ. eigenvalues --   -0.74640  -0.73333  -0.71947  -0.71524  -0.71177
 Alpha  occ. eigenvalues --   -0.70926  -0.70639  -0.70429  -0.70125  -0.69464
 Alpha  occ. eigenvalues --   -0.68668  -0.67435  -0.66672  -0.65945  -0.65672
 Alpha  occ. eigenvalues --   -0.65207  -0.64819  -0.64247  -0.63509  -0.62755
 Alpha  occ. eigenvalues --   -0.61291  -0.61143  -0.61077  -0.60687  -0.60216
 Alpha  occ. eigenvalues --   -0.60188  -0.59754  -0.59316  -0.58637  -0.58304
 Alpha  occ. eigenvalues --   -0.57921  -0.57475  -0.56886  -0.56546  -0.56037
 Alpha  occ. eigenvalues --   -0.55113  -0.54431  -0.54282  -0.54112  -0.53901
 Alpha  occ. eigenvalues --   -0.53217  -0.52676  -0.52294  -0.52119  -0.51889
 Alpha  occ. eigenvalues --   -0.51422  -0.50758  -0.50650  -0.50425  -0.50091
 Alpha  occ. eigenvalues --   -0.49453  -0.49222  -0.49098  -0.49014  -0.48851
 Alpha  occ. eigenvalues --   -0.48078  -0.47934  -0.47830  -0.47157  -0.46535
 Alpha  occ. eigenvalues --   -0.46486  -0.46251  -0.45989  -0.45910  -0.45781
 Alpha  occ. eigenvalues --   -0.45596  -0.45445  -0.44883  -0.44621  -0.44384
 Alpha  occ. eigenvalues --   -0.43857  -0.43716  -0.43288  -0.43154  -0.42791
 Alpha  occ. eigenvalues --   -0.42513  -0.42328  -0.42029  -0.42003  -0.41830
 Alpha  occ. eigenvalues --   -0.41705  -0.41483  -0.41089  -0.40910  -0.40659
 Alpha  occ. eigenvalues --   -0.40304  -0.40112  -0.39858  -0.39635  -0.38919
 Alpha  occ. eigenvalues --   -0.38299  -0.37615  -0.37382  -0.37328  -0.36791
 Alpha  occ. eigenvalues --   -0.36623  -0.36462  -0.36405  -0.35573  -0.35075
 Alpha  occ. eigenvalues --   -0.34396  -0.34085  -0.33924  -0.33723  -0.33524
 Alpha  occ. eigenvalues --   -0.32603  -0.31307  -0.31157  -0.30779  -0.30416
 Alpha  occ. eigenvalues --   -0.30173  -0.28472  -0.27788  -0.27599  -0.25771
 Alpha  occ. eigenvalues --   -0.25353  -0.25172  -0.24825  -0.17266  -0.15952
 Alpha  occ. eigenvalues --   -0.15078
 Alpha virt. eigenvalues --   -0.14375  -0.11166  -0.09684  -0.08488  -0.08312
 Alpha virt. eigenvalues --   -0.06628  -0.05285  -0.04866  -0.04754  -0.03915
 Alpha virt. eigenvalues --   -0.03796  -0.03361  -0.02663  -0.01812  -0.01563

 Mulliken charges:
               1
     1  N   -0.717848
     2  H    0.434543
     3  H    0.424464
     4  H    0.434496
     5  C   -0.142549
     6  H    0.214992
     7  C    0.628273
     8  C    0.127133
     9  H    0.168485
    10  O   -0.520606
    11  C   -0.476529
    12  H    0.192129
    13  H    0.178483
    14  H    0.181310
    15  O   -0.647652
    16  H    0.427590
    17  N   -0.608171
    18  H    0.355259
    19  C   -0.032544
    20  H    0.169434
    21  C    0.624940
    22  C   -0.360973
    23  H    0.153847
    24  H    0.198130
    25  O   -0.523978
    26  C    0.146522
    27  C   -0.192280
    28  H    0.231720
    29  C   -0.210894
    30  H    0.097464
    31  C   -0.136630
    32  H    0.144286
    33  C   -0.127264
    34  H    0.112036
    35  C   -0.115802
    36  H    0.119378
    37  N   -0.587938
    38  H    0.341152
    39  C   -0.042120
    40  H    0.152053
    41  C    0.650063
    42  C   -0.477596
    43  H    0.167556
    44  H    0.176411
    45  H    0.149411
    46  O   -0.539600
    47  N   -0.586619
    48  H    0.334049
    49  C   -0.074858
    50  H    0.162977
    51  C    0.623667
    52  C   -0.233775
    53  H    0.155794
    54  H    0.130394
    55  O   -0.554878
    56  C   -0.400690
    57  H    0.147707
    58  H    0.152818
    59  C    0.557304
    60  O   -0.587193
    61  O   -0.570998
    62  N   -0.623822
    63  H    0.358675
    64  C   -0.024925
    65  H    0.180925
    66  C    0.603942
    67  C   -0.452258
    68  H    0.133291
    69  H    0.142906
    70  H    0.197026
    71  O   -0.523673
    72  N   -0.601881
    73  H    0.353128
    74  C   -0.080438
    75  H    0.172768
    76  C    0.621207
    77  C   -0.248357
    78  H    0.147986
    79  H    0.120449
    80  O   -0.532098
    81  C   -0.073264
    82  H    0.157174
    83  C   -0.444470
    84  H    0.132529
    85  H    0.143764
    86  H    0.163395
    87  C   -0.466186
    88  H    0.116355
    89  H    0.166191
    90  H    0.173561
    91  N   -0.618957
    92  H    0.356878
    93  C   -0.046540
    94  H    0.218828
    95  C    0.583960
    96  C   -0.276918
    97  H    0.159590
    98  H    0.145640
    99  O   -0.440136
   100  C   -0.275277
   101  H    0.169900
   102  H    0.198629
   103  C   -0.182941
   104  H    0.208811
   105  H    0.168467
   106  N   -0.572130
   107  H    0.366360
   108  N   -0.723139
   109  H    0.373567
   110  H    0.380625
   111  N   -0.728706
   112  H    0.375828
   113  H    0.370934
   114  C    0.726041
   115  O   -0.578380
   116  H    0.428882
 Sum of Mulliken charges =   1.00000

 Dipole moment (field-independent basis, Debye):
    X=             19.8319    Y=             11.0320    Z=            -20.7949  Tot=             30.7805
 Quadrupole moment (field-independent basis, Debye-Ang):
   XX=            191.0619   YY=             94.7542   ZZ=           -266.4045
   XY=            491.1268   XZ=            111.0048   YZ=             91.1481

 Normal termination of Gaussian 16 at Sat Jun 25 09:30:34 2022.
