 Gaussian 16, Revision C.01,
 Gaussian 16:  ES64L-G16RevC.01  3-Jul-2019

 ----------------------------------------------------------------------
 # B3LYP/6-31G* empiricaldispersion=gd3 guess=read geom=check nosymm in
 tegral(ultrafinegrid)
 ----------------------------------------------------------------------

 ------------------------------------------------------
 Candidate Structure: Conf:607 Charge calc in gas phase
 ------------------------------------------------------
 Structure from the checkpoint file:  "conf-607.chk"
 Charge =  1 Multiplicity = 1

                          Input orientation:
 ---------------------------------------------------------------------
 Center     Atomic      Atomic             Coordinates (Angstroms)
 Number     Number       Type             X           Y           Z
 ---------------------------------------------------------------------
      1          7           0       -8.116813   -1.694379   -5.702616
      2          1           0       -8.656629   -1.916157   -4.861837
      3          1           0       -7.895930   -0.677402   -5.687520
      4          1           0       -8.640904   -1.964090   -6.548143
      5          6           0       -6.783171   -2.367275   -5.731529
      6          1           0       -6.857434   -3.359563   -5.275407
      7          6           0       -5.850560   -1.429047   -4.950433
      8          6           0       -6.369661   -2.514521   -7.215617
      9          1           0       -6.244752   -1.508109   -7.630720
     10          8           0       -6.151393   -0.230105   -4.918658
     11          6           0       -5.103513   -3.335405   -7.408102
     12          1           0       -4.238821   -2.891233   -6.908278
     13          1           0       -4.888170   -3.412534   -8.476568
     14          1           0       -5.240446   -4.349667   -7.011532
     15          8           0       -7.479191   -3.061042   -7.934243
     16          1           0       -7.530098   -4.011758   -7.743702
     17          7           0       -4.785612   -1.988830   -4.393014
     18          1           0       -4.513057   -2.954479   -4.583105
     19          6           0       -3.704348   -1.236550   -3.772482
     20          1           0       -3.507825   -0.336176   -4.367462
     21          6           0       -2.491019   -2.180046   -3.861974
     22          6           0       -4.051682   -0.796501   -2.328284
     23          1           0       -3.311219   -0.054215   -2.011492
     24          1           0       -5.014228   -0.276061   -2.388871
     25          8           0       -2.614076   -3.308607   -4.349668
     26          6           0       -4.112206   -1.937718   -1.337423
     27          6           0       -5.198107   -2.826222   -1.351269
     28          1           0       -6.000644   -2.677917   -2.071358
     29          6           0       -3.096786   -2.128989   -0.393248
     30          1           0       -2.247446   -1.454525   -0.323676
     31          6           0       -5.259389   -3.890932   -0.453815
     32          1           0       -6.107535   -4.570722   -0.478504
     33          6           0       -3.160155   -3.188200    0.513994
     34          1           0       -2.359154   -3.269453    1.240015
     35          6           0       -4.236982   -4.073713    0.480674
     36          1           0       -4.288608   -4.898045    1.186941
     37          7           0       -1.342473   -1.699263   -3.374680
     38          1           0       -1.258576   -0.758766   -3.002416
     39          6           0       -0.131469   -2.502946   -3.284239
     40          1           0       -0.420103   -3.510809   -2.970146
     41          6           0        0.721946   -1.818602   -2.211069
     42          6           0        0.610136   -2.573576   -4.624607
     43          1           0        1.521168   -3.172663   -4.530375
     44          1           0        0.885762   -1.567458   -4.954763
     45          1           0       -0.040204   -3.030675   -5.374546
     46          8           0        0.699120   -0.584528   -2.110242
     47          7           0        1.473984   -2.618168   -1.440357
     48          1           0        1.407860   -3.620250   -1.555017
     49          6           0        2.174450   -2.131251   -0.246450
     50          1           0        1.568778   -1.311759    0.156470
     51          6           0        3.544604   -1.526397   -0.566741
     52          6           0        2.255134   -3.226249    0.815622
     53          1           0        2.919735   -2.867954    1.603099
     54          1           0        2.703999   -4.132840    0.387259
     55          8           0        4.603448   -1.995466   -0.137622
     56          6           0        0.874135   -3.458233    1.433305
     57          1           0        0.159692   -3.863713    0.705861
     58          1           0        0.959556   -4.161024    2.270289
     59          6           0        0.366545   -2.077821    1.976737
     60          8           0       -0.773900   -1.713365    1.591437
     61          8           0        1.179677   -1.468906    2.706936
     62          7           0        3.496129   -0.362156   -1.262493
     63          1           0        2.583780   -0.014494   -1.550138
     64          6           0        4.667934    0.505511   -1.357183
     65          1           0        5.537241   -0.159815   -1.390362
     66          6           0        4.727762    1.332408   -0.050748
     67          6           0        4.614949    1.389599   -2.593809
     68          1           0        5.493053    2.039485   -2.630498
     69          1           0        3.729131    2.031318   -2.572714
     70          1           0        4.590235    0.770707   -3.495140
     71          8           0        4.622069    2.566339   -0.031086
     72          7           0        4.810372    0.573710    1.062720
     73          1           0        5.028840   -0.414971    0.959193
     74          6           0        4.655278    1.109254    2.412160
     75          1           0        3.934261    1.928303    2.327834
     76          6           0        5.989703    1.700128    2.887866
     77          6           0        4.122459    0.010467    3.332978
     78          1           0        3.283690   -0.480041    2.822331
     79          1           0        4.912870   -0.738919    3.458823
     80          8           0        6.753867    1.159577    3.678852
     81          6           0        3.653072    0.494413    4.716169
     82          1           0        4.473743    1.066828    5.170100
     83          6           0        2.413648    1.393128    4.618743
     84          1           0        1.569337    0.834024    4.198499
     85          1           0        2.583714    2.271862    3.986276
     86          1           0        2.120104    1.754741    5.610625
     87          6           0        3.365463   -0.720437    5.607345
     88          1           0        2.579385   -1.344233    5.166280
     89          1           0        3.031056   -0.407020    6.602881
     90          1           0        4.261282   -1.338966    5.731978
     91          7           0        6.280783    2.906035    2.317510
     92          1           0        5.701439    3.219067    1.540024
     93          6           0        7.552898    3.524974    2.595990
     94          1           0        8.374198    2.851272    2.317341
     95          6           0        7.674178    3.807615    4.095986
     96          6           0        7.657095    4.841000    1.810412
     97          1           0        6.852153    5.505300    2.147348
     98          1           0        7.474395    4.615343    0.752118
     99          8           0        6.782594    4.194054    4.809008
    100          6           0        9.013942    5.531883    1.962846
    101          1           0        9.813151    4.835486    1.676825
    102          1           0        9.189128    5.808093    3.007184
    103          6           0        9.094064    6.783276    1.093701
    104          1           0        8.316516    7.491161    1.403862
    105          1           0        8.925275    6.530058    0.038402
    106          7           0       10.412173    7.431043    1.257195
    107          1           0       11.176788    6.786892    1.428657
    108          7           0        9.862549    9.261872   -0.077975
    109          1           0       10.039832   10.229180   -0.311694
    110          1           0        8.891406    8.984766   -0.067072
    111          7           0       12.039411    8.989939    0.704604
    112          1           0       12.611627    8.657356    1.470445
    113          1           0       12.262771    9.926467    0.394873
    114          6           0       10.757544    8.567815    0.640615
    115          8           0        8.956601    3.654747    4.517920
    116          1           0        8.951885    3.861128    5.470185
 ---------------------------------------------------------------------

 SCF Done:  E(RB3LYP) =  -2782.35464980     A.U. after    1 cycles

 Alpha  occ. eigenvalues --  -19.28788 -19.24695 -19.23906 -19.19041 -19.18521
 Alpha  occ. eigenvalues --  -19.16752 -19.15032 -19.14222 -19.14101 -19.03021
 Alpha  occ. eigenvalues --  -19.02907 -14.58977 -14.54851 -14.54310 -14.54107
 Alpha  occ. eigenvalues --  -14.46543 -14.42334 -14.40741 -14.38536 -14.38116
 Alpha  occ. eigenvalues --  -14.37807 -10.50758 -10.40941 -10.38778 -10.38054
 Alpha  occ. eigenvalues --  -10.36958 -10.36660 -10.35881 -10.33574 -10.31424
 Alpha  occ. eigenvalues --  -10.31385 -10.30835 -10.30645 -10.30382 -10.29422
 Alpha  occ. eigenvalues --  -10.29380 -10.28957 -10.28199 -10.26372 -10.25084
 Alpha  occ. eigenvalues --  -10.24377 -10.24092 -10.23478 -10.22430 -10.21953
 Alpha  occ. eigenvalues --  -10.21698 -10.21549 -10.21452 -10.20690 -10.19978
 Alpha  occ. eigenvalues --  -10.19284 -10.18014 -10.17399 -10.16917 -10.15341
 Alpha  occ. eigenvalues --  -10.15215 -10.15109  -1.19256  -1.17575  -1.15727
 Alpha  occ. eigenvalues --   -1.15355  -1.12536  -1.11040  -1.08550  -1.08298
 Alpha  occ. eigenvalues --   -1.07683  -1.06882  -1.06482  -1.05890  -1.05505
 Alpha  occ. eigenvalues --   -1.03474  -0.99083  -0.96991  -0.96253  -0.96216
 Alpha  occ. eigenvalues --   -0.95350  -0.94092  -0.91852  -0.91762  -0.88328
 Alpha  occ. eigenvalues --   -0.87653  -0.85715  -0.85047  -0.83678  -0.82401
 Alpha  occ. eigenvalues --   -0.81367  -0.80793  -0.79829  -0.78574  -0.78129
 Alpha  occ. eigenvalues --   -0.77851  -0.76242  -0.76193  -0.75986  -0.74602
 Alpha  occ. eigenvalues --   -0.73174  -0.72651  -0.72337  -0.72195  -0.71267
 Alpha  occ. eigenvalues --   -0.71240  -0.70758  -0.68051  -0.67605  -0.67352
 Alpha  occ. eigenvalues --   -0.67036  -0.66472  -0.66131  -0.65740  -0.64823
 Alpha  occ. eigenvalues --   -0.63962  -0.63404  -0.63115  -0.62808  -0.62442
 Alpha  occ. eigenvalues --   -0.61560  -0.61309  -0.60917  -0.60855  -0.60622
 Alpha  occ. eigenvalues --   -0.60073  -0.59796  -0.58979  -0.57426  -0.57141
 Alpha  occ. eigenvalues --   -0.56428  -0.56159  -0.55957  -0.55890  -0.55493
 Alpha  occ. eigenvalues --   -0.53976  -0.53819  -0.53466  -0.53085  -0.52444
 Alpha  occ. eigenvalues --   -0.52387  -0.52190  -0.51779  -0.51495  -0.51246
 Alpha  occ. eigenvalues --   -0.50640  -0.50384  -0.50051  -0.49776  -0.49614
 Alpha  occ. eigenvalues --   -0.49497  -0.49207  -0.48926  -0.48322  -0.48195
 Alpha  occ. eigenvalues --   -0.47578  -0.46549  -0.46525  -0.46091  -0.45945
 Alpha  occ. eigenvalues --   -0.45893  -0.45781  -0.45349  -0.45195  -0.44740
 Alpha  occ. eigenvalues --   -0.44414  -0.44039  -0.43898  -0.43736  -0.43671
 Alpha  occ. eigenvalues --   -0.43543  -0.43159  -0.43053  -0.42911  -0.42670
 Alpha  occ. eigenvalues --   -0.42330  -0.42245  -0.41956  -0.41834  -0.41619
 Alpha  occ. eigenvalues --   -0.41580  -0.41042  -0.40878  -0.40044  -0.39806
 Alpha  occ. eigenvalues --   -0.38997  -0.38609  -0.38354  -0.38137  -0.37971
 Alpha  occ. eigenvalues --   -0.36983  -0.36562  -0.36428  -0.36361  -0.36059
 Alpha  occ. eigenvalues --   -0.35850  -0.35469  -0.35264  -0.34693  -0.34339
 Alpha  occ. eigenvalues --   -0.33302  -0.32494  -0.32364  -0.32271  -0.31793
 Alpha  occ. eigenvalues --   -0.31226  -0.31092  -0.30770  -0.30597  -0.30373
 Alpha  occ. eigenvalues --   -0.30256  -0.29439  -0.28690  -0.26995  -0.26846
 Alpha  occ. eigenvalues --   -0.26760  -0.26609  -0.26066  -0.19030  -0.17505
 Alpha  occ. eigenvalues --   -0.17096
 Alpha virt. eigenvalues --   -0.15341  -0.10602  -0.10328  -0.08873  -0.06395
 Alpha virt. eigenvalues --   -0.05492  -0.05136  -0.04780  -0.04479  -0.04161
 Alpha virt. eigenvalues --   -0.03463  -0.02744  -0.02730  -0.02257  -0.01920

 Mulliken charges:
               1
     1  N   -0.731501
     2  H    0.421059
     3  H    0.423613
     4  H    0.418193
     5  C   -0.152664
     6  H    0.203316
     7  C    0.649565
     8  C    0.115414
     9  H    0.189253
    10  O   -0.539784
    11  C   -0.489495
    12  H    0.198745
    13  H    0.204443
    14  H    0.163168
    15  O   -0.615505
    16  H    0.412012
    17  N   -0.592783
    18  H    0.375008
    19  C   -0.067049
    20  H    0.186412
    21  C    0.650720
    22  C   -0.369950
    23  H    0.173091
    24  H    0.172625
    25  O   -0.561262
    26  C    0.166922
    27  C   -0.171642
    28  H    0.057537
    29  C   -0.210640
    30  H    0.175888
    31  C   -0.126133
    32  H    0.110347
    33  C   -0.131579
    34  H    0.198251
    35  C   -0.133462
    36  H    0.131601
    37  N   -0.614064
    38  H    0.365105
    39  C   -0.029462
    40  H    0.182310
    41  C    0.641891
    42  C   -0.447802
    43  H    0.161172
    44  H    0.162717
    45  H    0.173864
    46  O   -0.566250
    47  N   -0.597566
    48  H    0.341077
    49  C   -0.086185
    50  H    0.236883
    51  C    0.626139
    52  C   -0.288926
    53  H    0.188161
    54  H    0.110037
    55  O   -0.550530
    56  C   -0.330311
    57  H    0.091845
    58  H    0.131464
    59  C    0.539635
    60  O   -0.600616
    61  O   -0.579787
    62  N   -0.606053
    63  H    0.373051
    64  C   -0.060709
    65  H    0.180240
    66  C    0.620190
    67  C   -0.447739
    68  H    0.148292
    69  H    0.165318
    70  H    0.149472
    71  O   -0.570426
    72  N   -0.614509
    73  H    0.381758
    74  C   -0.068814
    75  H    0.174775
    76  C    0.647438
    77  C   -0.311175
    78  H    0.214755
    79  H    0.137236
    80  O   -0.530869
    81  C   -0.067915
    82  H    0.124978
    83  C   -0.466428
    84  H    0.198859
    85  H    0.116274
    86  H    0.124714
    87  C   -0.459586
    88  H    0.187595
    89  H    0.123524
    90  H    0.127152
    91  N   -0.644459
    92  H    0.369521
    93  C    0.025258
    94  H    0.171493
    95  C    0.596752
    96  C   -0.323802
    97  H    0.177802
    98  H    0.167507
    99  O   -0.448942
   100  C   -0.309191
   101  H    0.165694
   102  H    0.186268
   103  C   -0.162712
   104  H    0.187207
   105  H    0.192711
   106  N   -0.592045
   107  H    0.373671
   108  N   -0.735866
   109  H    0.385558
   110  H    0.399604
   111  N   -0.737533
   112  H    0.388346
   113  H    0.381593
   114  C    0.796798
   115  O   -0.580781
   116  H    0.413619
 Sum of Mulliken charges =   1.00000

 Dipole moment (field-independent basis, Debye):
    X=             17.0818    Y=             30.0800    Z=            -27.9589  Tot=             44.4780
 Quadrupole moment (field-independent basis, Debye-Ang):
   XX=            354.2291   YY=             27.1547   ZZ=           -235.5442
   XY=            475.7908   XZ=            168.6015   YZ=             84.1980

 Normal termination of Gaussian 16 at Sat Jun 25 09:45:25 2022.
