 Gaussian 16, Revision C.01,
 Gaussian 16:  ES64L-G16RevC.01  3-Jul-2019

 ----------------------------------------------------------------------
 # B3LYP/6-31G* empiricaldispersion=gd3 guess=read geom=check nosymm in
 tegral(ultrafinegrid)
 ----------------------------------------------------------------------

 ------------------------------------------------------
 Candidate Structure: Conf:535 Charge calc in gas phase
 ------------------------------------------------------
 Structure from the checkpoint file:  "conf-535.chk"
 Charge =  1 Multiplicity = 1

                          Input orientation:
 ---------------------------------------------------------------------
 Center     Atomic      Atomic             Coordinates (Angstroms)
 Number     Number       Type             X           Y           Z
 ---------------------------------------------------------------------
      1          7           0       -7.607664   -2.788535   -2.182789
      2          1           0       -7.237046   -2.168291   -1.425093
      3          1           0       -8.341531   -2.261234   -2.681983
      4          1           0       -8.012697   -3.652091   -1.785184
      5          6           0       -6.545945   -3.165216   -3.180019
      6          1           0       -5.675569   -3.549595   -2.640650
      7          6           0       -6.210313   -1.877121   -3.945088
      8          6           0       -7.106828   -4.277850   -4.084637
      9          1           0       -7.981263   -3.879907   -4.613571
     10          8           0       -7.120077   -1.291056   -4.529780
     11          6           0       -6.070164   -4.790939   -5.079509
     12          1           0       -5.686002   -3.986900   -5.715349
     13          1           0       -6.526493   -5.553875   -5.714485
     14          1           0       -5.218328   -5.242131   -4.551152
     15          8           0       -7.625028   -5.311924   -3.238235
     16          1           0       -6.876240   -5.840494   -2.895547
     17          7           0       -4.929402   -1.511425   -3.865494
     18          1           0       -4.312992   -1.983387   -3.202275
     19          6           0       -4.458051   -0.173900   -4.189327
     20          1           0       -4.709675    0.089081   -5.222794
     21          6           0       -2.923965   -0.263253   -4.075543
     22          6           0       -5.162558    0.879953   -3.254251
     23          1           0       -4.533309    1.777101   -3.191446
     24          1           0       -6.100346    1.168544   -3.737432
     25          8           0       -2.399321   -1.222937   -3.501053
     26          6           0       -5.496870    0.290375   -1.895353
     27          6           0       -6.849269    0.044047   -1.596579
     28          1           0       -7.613517    0.330906   -2.318313
     29          6           0       -4.521845   -0.108674   -0.968384
     30          1           0       -3.474191    0.073496   -1.185117
     31          6           0       -7.214726   -0.595273   -0.397325
     32          1           0       -8.269015   -0.771351   -0.174420
     33          6           0       -4.865551   -0.775407    0.217999
     34          1           0       -4.091594   -1.131244    0.926532
     35          6           0       -6.216766   -1.020538    0.497013
     36          1           0       -6.485452   -1.535071    1.416130
     37          7           0       -2.214860    0.745447   -4.638033
     38          1           0       -2.701124    1.557784   -5.002305
     39          6           0       -0.737110    0.773757   -4.622963
     40          1           0       -0.407520   -0.242789   -4.862600
     41          6           0       -0.224508    1.140855   -3.208727
     42          6           0       -0.227350    1.771531   -5.657604
     43          1           0        0.865964    1.767336   -5.677948
     44          1           0       -0.557214    2.784199   -5.401666
     45          1           0       -0.592840    1.507923   -6.656466
     46          8           0       -0.114732    2.326878   -2.862788
     47          7           0        0.061101    0.079976   -2.426265
     48          1           0       -0.285074   -0.826060   -2.727336
     49          6           0        0.456664    0.185324   -1.013111
     50          1           0       -0.101235    1.029912   -0.586993
     51          6           0        1.949213    0.546625   -0.839507
     52          6           0        0.055188   -1.111052   -0.304441
     53          1           0        0.503659   -1.121010    0.689912
     54          1           0        0.460017   -1.998682   -0.802970
     55          8           0        2.762541   -0.207508   -0.308105
     56          6           0       -1.465030   -1.195686   -0.189303
     57          1           0       -1.851483   -0.260494    0.240029
     58          1           0       -1.903101   -1.318045   -1.190153
     59          6           0       -1.989827   -2.390119    0.675469
     60          8           0       -3.037229   -2.131240    1.354772
     61          8           0       -1.342267   -3.458309    0.564592
     62          7           0        2.288192    1.799809   -1.273362
     63          1           0        1.548042    2.386321   -1.661929
     64          6           0        3.587325    2.398291   -0.949457
     65          1           0        4.308374    1.574085   -0.965952
     66          6           0        3.525983    2.984068    0.478641
     67          6           0        3.954251    3.470649   -1.971137
     68          1           0        4.932982    3.902665   -1.736050
     69          1           0        3.220128    4.282385   -1.959078
     70          1           0        3.992397    3.032635   -2.974146
     71          8           0        3.416071    4.205636    0.674970
     72          7           0        3.552901    2.071860    1.482289
     73          1           0        3.590776    1.085364    1.226250
     74          6           0        3.213088    2.420587    2.872896
     75          1           0        2.543776    3.287214    2.823496
     76          6           0        4.459121    2.900183    3.642529
     77          6           0        2.518568    1.259054    3.593283
     78          1           0        3.247369    0.453719    3.757743
     79          1           0        2.236092    1.620595    4.590481
     80          8           0        4.835839    2.438492    4.714994
     81          6           0        1.278186    0.687848    2.870630
     82          1           0        1.630208    0.213384    1.947167
     83          6           0        0.626604   -0.405657    3.733615
     84          1           0        0.267587    0.013388    4.684553
     85          1           0        1.336827   -1.209839    3.961627
     86          1           0       -0.229394   -0.859379    3.220948
     87          6           0        0.246944    1.766737    2.496790
     88          1           0       -0.163307    2.242791    3.398348
     89          1           0       -0.591686    1.315042    1.954478
     90          1           0        0.669025    2.554209    1.859788
     91          7           0        5.135287    3.920285    3.013055
     92          1           0        4.654612    4.399296    2.249100
     93          6           0        6.212507    4.577141    3.716505
     94          1           0        6.971625    3.830357    3.972576
     95          6           0        5.710519    5.201108    5.029629
     96          6           0        6.815144    5.665504    2.813695
     97          1           0        6.054020    6.438654    2.632855
     98          1           0        7.039791    5.200661    1.842398
     99          8           0        4.623793    5.708384    5.182316
    100          6           0        8.083330    6.307452    3.402190
    101          1           0        8.810016    5.524376    3.669160
    102          1           0        7.849401    6.834817    4.331234
    103          6           0        8.744253    7.304763    2.444862
    104          1           0        9.575484    7.826401    2.940622
    105          1           0        8.005186    8.053803    2.133514
    106          7           0        9.238847    6.610022    1.235398
    107          1           0        9.636242    5.692015    1.426158
    108          7           0        9.633307    8.559277    0.004033
    109          1           0       10.240908    9.030238   -0.657980
    110          1           0        9.367911    9.125899    0.800886
    111          7           0       10.426036    6.515417   -0.767864
    112          1           0       10.230416    5.520557   -0.809853
    113          1           0       10.515379    6.929266   -1.691109
    114          6           0        9.769343    7.232714    0.174721
    115          8           0        6.674070    5.176501    5.986286
    116          1           0        6.289933    5.605846    6.781423
 ---------------------------------------------------------------------

 SCF Done:  E(RB3LYP) =  -2782.34273491     A.U. after    1 cycles

 Alpha  occ. eigenvalues --  -19.26484 -19.25420 -19.21231 -19.20408 -19.20404
 Alpha  occ. eigenvalues --  -19.17543 -19.17538 -19.16918 -19.16478 -19.04932
 Alpha  occ. eigenvalues --  -19.04168 -14.55517 -14.55240 -14.55080 -14.54443
 Alpha  occ. eigenvalues --  -14.45075 -14.44753 -14.41387 -14.41201 -14.40803
 Alpha  occ. eigenvalues --  -14.40376 -10.51627 -10.38578 -10.38460 -10.38142
 Alpha  occ. eigenvalues --  -10.37388 -10.35293 -10.34769 -10.34418 -10.34186
 Alpha  occ. eigenvalues --  -10.33531 -10.33197 -10.32221 -10.31700 -10.31306
 Alpha  occ. eigenvalues --  -10.30653 -10.29857 -10.28859 -10.27738 -10.27035
 Alpha  occ. eigenvalues --  -10.26952 -10.26840 -10.25622 -10.25227 -10.25067
 Alpha  occ. eigenvalues --  -10.25016 -10.24010 -10.23943 -10.23434 -10.23275
 Alpha  occ. eigenvalues --  -10.21758 -10.21437 -10.20360 -10.20085 -10.19556
 Alpha  occ. eigenvalues --  -10.18762 -10.16981  -1.20045  -1.16884  -1.14016
 Alpha  occ. eigenvalues --   -1.12590  -1.12048  -1.09269  -1.09219  -1.08882
 Alpha  occ. eigenvalues --   -1.08695  -1.08490  -1.08319  -1.07904  -1.07789
 Alpha  occ. eigenvalues --   -1.02272  -1.00509  -0.98370  -0.97792  -0.97470
 Alpha  occ. eigenvalues --   -0.97393  -0.96400  -0.92759  -0.91102  -0.89369
 Alpha  occ. eigenvalues --   -0.88632  -0.86311  -0.86244  -0.84363  -0.83895
 Alpha  occ. eigenvalues --   -0.82454  -0.81958  -0.81465  -0.80588  -0.79435
 Alpha  occ. eigenvalues --   -0.79272  -0.78908  -0.77744  -0.76592  -0.74200
 Alpha  occ. eigenvalues --   -0.73900  -0.73614  -0.72512  -0.72050  -0.71291
 Alpha  occ. eigenvalues --   -0.70597  -0.69922  -0.69330  -0.69091  -0.68143
 Alpha  occ. eigenvalues --   -0.67621  -0.67149  -0.66955  -0.66437  -0.65926
 Alpha  occ. eigenvalues --   -0.65261  -0.64882  -0.63576  -0.63435  -0.63134
 Alpha  occ. eigenvalues --   -0.62769  -0.62639  -0.62134  -0.61888  -0.61622
 Alpha  occ. eigenvalues --   -0.60647  -0.59194  -0.59142  -0.58510  -0.58382
 Alpha  occ. eigenvalues --   -0.57648  -0.57337  -0.56693  -0.56541  -0.55899
 Alpha  occ. eigenvalues --   -0.55265  -0.54850  -0.54560  -0.54215  -0.54081
 Alpha  occ. eigenvalues --   -0.53802  -0.53194  -0.53118  -0.53011  -0.52765
 Alpha  occ. eigenvalues --   -0.52444  -0.52093  -0.51061  -0.50781  -0.50527
 Alpha  occ. eigenvalues --   -0.50082  -0.49470  -0.48987  -0.48622  -0.48194
 Alpha  occ. eigenvalues --   -0.48171  -0.48078  -0.47613  -0.47515  -0.47252
 Alpha  occ. eigenvalues --   -0.47232  -0.46792  -0.46640  -0.46544  -0.46465
 Alpha  occ. eigenvalues --   -0.46190  -0.45851  -0.45784  -0.45510  -0.45373
 Alpha  occ. eigenvalues --   -0.45045  -0.44998  -0.44685  -0.44541  -0.44333
 Alpha  occ. eigenvalues --   -0.44186  -0.44100  -0.43709  -0.43548  -0.42957
 Alpha  occ. eigenvalues --   -0.42894  -0.42777  -0.42528  -0.42304  -0.41673
 Alpha  occ. eigenvalues --   -0.41374  -0.41213  -0.41094  -0.40954  -0.39885
 Alpha  occ. eigenvalues --   -0.39372  -0.38824  -0.38690  -0.38411  -0.38209
 Alpha  occ. eigenvalues --   -0.37508  -0.36824  -0.35833  -0.35271  -0.35226
 Alpha  occ. eigenvalues --   -0.35055  -0.34782  -0.34475  -0.34396  -0.34275
 Alpha  occ. eigenvalues --   -0.34203  -0.33267  -0.33019  -0.32696  -0.32407
 Alpha  occ. eigenvalues --   -0.31296  -0.31223  -0.30696  -0.30525  -0.29660
 Alpha  occ. eigenvalues --   -0.29191  -0.29053  -0.28567  -0.20427  -0.19354
 Alpha  occ. eigenvalues --   -0.18302
 Alpha virt. eigenvalues --   -0.16620  -0.11187  -0.08862  -0.07370  -0.07230
 Alpha virt. eigenvalues --   -0.06520  -0.06360  -0.05887  -0.05474  -0.05210
 Alpha virt. eigenvalues --   -0.04952  -0.04228  -0.03851  -0.02998  -0.02630

 Mulliken charges:
               1
     1  N   -0.742620
     2  H    0.419117
     3  H    0.404307
     4  H    0.406341
     5  C   -0.135003
     6  H    0.201410
     7  C    0.646205
     8  C    0.127523
     9  H    0.182729
    10  O   -0.541612
    11  C   -0.481816
    12  H    0.184902
    13  H    0.195791
    14  H    0.162310
    15  O   -0.623551
    16  H    0.410787
    17  N   -0.599001
    18  H    0.381152
    19  C   -0.054168
    20  H    0.188774
    21  C    0.646154
    22  C   -0.376248
    23  H    0.170082
    24  H    0.182690
    25  O   -0.531374
    26  C    0.167912
    27  C   -0.220647
    28  H    0.141040
    29  C   -0.218688
    30  H    0.144940
    31  C   -0.255808
    32  H    0.135167
    33  C   -0.130820
    34  H    0.285238
    35  C   -0.144048
    36  H    0.154790
    37  N   -0.610651
    38  H    0.342942
    39  C   -0.043020
    40  H    0.177513
    41  C    0.630964
    42  C   -0.477171
    43  H    0.174779
    44  H    0.178880
    45  H    0.159003
    46  O   -0.556242
    47  N   -0.599930
    48  H    0.371155
    49  C   -0.052563
    50  H    0.175122
    51  C    0.628166
    52  C   -0.303202
    53  H    0.181391
    54  H    0.166208
    55  O   -0.538752
    56  C   -0.389538
    57  H    0.117204
    58  H    0.142875
    59  C    0.576324
    60  O   -0.621715
    61  O   -0.586103
    62  N   -0.617893
    63  H    0.372729
    64  C   -0.047247
    65  H    0.173305
    66  C    0.623670
    67  C   -0.448745
    68  H    0.132400
    69  H    0.176902
    70  H    0.154476
    71  O   -0.563676
    72  N   -0.609205
    73  H    0.375781
    74  C   -0.088896
    75  H    0.193566
    76  C    0.642242
    77  C   -0.279464
    78  H    0.154023
    79  H    0.159031
    80  O   -0.519893
    81  C   -0.099391
    82  H    0.143618
    83  C   -0.453462
    84  H    0.135547
    85  H    0.146583
    86  H    0.185266
    87  C   -0.470456
    88  H    0.143762
    89  H    0.164521
    90  H    0.138069
    91  N   -0.646049
    92  H    0.370982
    93  C    0.012692
    94  H    0.180291
    95  C    0.594195
    96  C   -0.311322
    97  H    0.177116
    98  H    0.151731
    99  O   -0.452681
   100  C   -0.310924
   101  H    0.166003
   102  H    0.199655
   103  C   -0.177377
   104  H    0.193011
   105  H    0.192174
   106  N   -0.576496
   107  H    0.372789
   108  N   -0.730314
   109  H    0.389999
   110  H    0.395589
   111  N   -0.732054
   112  H    0.386181
   113  H    0.384968
   114  C    0.780204
   115  O   -0.574002
   116  H    0.418882
 Sum of Mulliken charges =   1.00000

 Dipole moment (field-independent basis, Debye):
    X=             26.9660    Y=             30.4925    Z=            -14.7218  Tot=             43.2861
 Quadrupole moment (field-independent basis, Debye-Ang):
   XX=            219.7632   YY=            -85.2795   ZZ=           -281.8433
   XY=            373.5937   XZ=             60.3094   YZ=             40.6438

 Normal termination of Gaussian 16 at Sat Jun 25 09:29:53 2022.
