 Gaussian 16, Revision C.01,
 Gaussian 16:  ES64L-G16RevC.01  3-Jul-2019

 ----------------------------------------------------------------------
 # B3LYP/6-31G* empiricaldispersion=gd3 guess=read geom=check nosymm in
 tegral(ultrafinegrid)
 ----------------------------------------------------------------------

 ------------------------------------------------------
 Candidate Structure: Conf:950 Charge calc in gas phase
 ------------------------------------------------------
 Structure from the checkpoint file:  "conf-950.chk"
 Charge =  1 Multiplicity = 1

                          Input orientation:
 ---------------------------------------------------------------------
 Center     Atomic      Atomic             Coordinates (Angstroms)
 Number     Number       Type             X           Y           Z
 ---------------------------------------------------------------------
      1          7           0       -4.161072   -4.696744   -0.665028
      2          1           0       -3.860973   -3.106116   -0.264734
      3          1           0       -5.165297   -4.826009   -0.506864
      4          1           0       -3.693813   -5.249961    0.054435
      5          6           0       -3.876419   -5.303859   -1.990616
      6          1           0       -2.786565   -5.353244   -2.109925
      7          6           0       -4.452721   -4.382252   -3.087693
      8          6           0       -4.500397   -6.712129   -2.132936
      9          1           0       -4.322071   -7.045007   -3.165036
     10          8           0       -5.283627   -4.787028   -3.903524
     11          6           0       -3.910568   -7.730413   -1.166480
     12          1           0       -2.826863   -7.822430   -1.300937
     13          1           0       -4.369442   -8.707664   -1.339187
     14          1           0       -4.116669   -7.453194   -0.126167
     15          8           0       -5.897905   -6.631217   -1.869026
     16          1           0       -6.271587   -6.109277   -2.604052
     17          7           0       -4.005467   -3.110791   -3.038954
     18          1           0       -3.205582   -2.874444   -2.452005
     19          6           0       -4.570159   -2.047241   -3.842627
     20          1           0       -4.932972   -2.494032   -4.776223
     21          6           0       -3.413924   -1.086489   -4.183391
     22          6           0       -5.768320   -1.356818   -3.119947
     23          1           0       -5.375380   -0.744659   -2.298915
     24          1           0       -6.262293   -0.680877   -3.832250
     25          8           0       -2.258231   -1.485772   -4.289317
     26          6           0       -6.784404   -2.336257   -2.575723
     27          6           0       -7.673907   -2.994810   -3.432240
     28          1           0       -7.660637   -2.769591   -4.495745
     29          6           0       -6.805967   -2.648805   -1.211459
     30          1           0       -6.123784   -2.140970   -0.535585
     31          6           0       -8.547004   -3.965512   -2.943472
     32          1           0       -9.221958   -4.476034   -3.624684
     33          6           0       -7.678789   -3.621555   -0.717601
     34          1           0       -7.683162   -3.855087    0.344145
     35          6           0       -8.545256   -4.289738   -1.584441
     36          1           0       -9.216904   -5.053809   -1.203894
     37          7           0       -3.728452    0.231680   -4.328185
     38          1           0       -4.668863    0.557038   -4.159060
     39          6           0       -2.703956    1.235841   -4.594539
     40          1           0       -1.878210    0.698228   -5.073246
     41          6           0       -2.150070    1.841672   -3.285713
     42          6           0       -3.238974    2.324539   -5.520907
     43          1           0       -2.460230    3.060419   -5.732387
     44          1           0       -4.072184    2.862016   -5.055995
     45          1           0       -3.577152    1.877347   -6.459959
     46          8           0       -2.148676    3.066610   -3.108824
     47          7           0       -1.654820    0.972748   -2.366516
     48          1           0       -1.591283   -0.023325   -2.571569
     49          6           0       -1.098306    1.464685   -1.099689
     50          1           0       -1.715568    2.323587   -0.810406
     51          6           0        0.345416    1.976854   -1.320447
     52          6           0       -1.113862    0.420536    0.019531
     53          1           0       -0.710732    0.916013    0.908640
     54          1           0       -0.410816   -0.378454   -0.227960
     55          8           0        1.334121    1.358935   -0.908583
     56          6           0       -2.495638   -0.168959    0.342983
     57          1           0       -2.615008   -0.331258    1.418783
     58          1           0       -3.307415    0.512867    0.053336
     59          6           0       -2.751992   -1.494186   -0.349872
     60          8           0       -2.092268   -1.875991   -1.314262
     61          8           0       -3.751330   -2.176525    0.178971
     62          7           0        0.431258    3.146899   -1.996634
     63          1           0       -0.441556    3.524936   -2.368884
     64          6           0        1.696706    3.655360   -2.534105
     65          1           0        2.302508    2.786017   -2.822674
     66          6           0        2.478434    4.414962   -1.439983
     67          6           0        1.427369    4.543043   -3.744151
     68          1           0        2.368565    4.891141   -4.176717
     69          1           0        0.849912    5.425284   -3.453712
     70          1           0        0.872087    3.983445   -4.502830
     71          8           0        2.688389    5.634499   -1.504717
     72          7           0        2.912371    3.637533   -0.422508
     73          1           0        2.631027    2.652994   -0.442626
     74          6           0        3.431862    4.191094    0.831291
     75          1           0        2.883023    5.120044    1.025885
     76          6           0        4.916534    4.563018    0.648291
     77          6           0        3.227332    3.185920    1.967266
     78          1           0        2.181563    2.851370    1.932230
     79          1           0        3.854948    2.310406    1.763305
     80          8           0        5.850700    3.956916    1.171263
     81          6           0        3.544493    3.717676    3.378323
     82          1           0        4.585657    4.063749    3.377760
     83          6           0        2.636468    4.889482    3.781396
     84          1           0        1.579420    4.594839    3.747493
     85          1           0        2.761259    5.761812    3.129207
     86          1           0        2.856336    5.214978    4.804495
     87          6           0        3.426159    2.572089    4.393854
     88          1           0        2.401430    2.179244    4.423145
     89          1           0        3.679513    2.913809    5.403830
     90          1           0        4.096254    1.742942    4.139474
     91          7           0        5.127118    5.649887   -0.144376
     92          1           0        4.328143    5.980959   -0.697368
     93          6           0        6.474869    5.974958   -0.568518
     94          1           0        6.818502    5.300400   -1.363458
     95          6           0        7.433042    5.791814    0.612434
     96          6           0        6.490777    7.434820   -1.071549
     97          1           0        6.007572    8.047888   -0.300025
     98          1           0        5.826690    7.484967   -1.940407
     99          8           0        7.377431    6.452376    1.647700
    100          6           0        7.891361    7.992336   -1.439304
    101          1           0        7.926475    8.260526   -2.500149
    102          1           0        8.667174    7.230925   -1.291219
    103          6           0        8.275614    9.248559   -0.638246
    104          1           0        7.553000   10.052861   -0.813291
    105          1           0        9.261462    9.605111   -0.949089
    106          7           0        8.311150    8.950141    0.803744
    107          1           0        7.586458    8.311743    1.135316
    108          7           0       10.354663    9.906350    1.394882
    109          1           0       11.222612    9.855418    1.908321
    110          1           0       10.199450   10.721330    0.819820
    111          7           0        9.444487    8.174290    2.652990
    112          1           0        8.793280    7.388470    2.684627
    113          1           0        9.987768    8.399800    3.474161
    114          6           0        9.367728    9.018283    1.612993
    115          8           0        8.456494    4.987902    0.316427
    116          1           0        9.003583    4.877241    1.116651
 ---------------------------------------------------------------------

 SCF Done:  E(RB3LYP) =  -2782.49472591     A.U. after    2 cycles

 Alpha  occ. eigenvalues --  -19.31034 -19.25998 -19.22558 -19.20556 -19.19673
 Alpha  occ. eigenvalues --  -19.19249 -19.18922 -19.18627 -19.17197 -19.17121
 Alpha  occ. eigenvalues --  -19.16038 -14.52637 -14.51384 -14.51349 -14.43911
 Alpha  occ. eigenvalues --  -14.42748 -14.42452 -14.42405 -14.42257 -14.39867
 Alpha  occ. eigenvalues --  -14.39516 -10.48378 -10.44261 -10.37264 -10.36768
 Alpha  occ. eigenvalues --  -10.36419 -10.36057 -10.35431 -10.35322 -10.34660
 Alpha  occ. eigenvalues --  -10.34316 -10.32935 -10.31504 -10.30929 -10.30601
 Alpha  occ. eigenvalues --  -10.30386 -10.29916 -10.29534 -10.28826 -10.27378
 Alpha  occ. eigenvalues --  -10.27322 -10.25700 -10.25143 -10.24987 -10.24917
 Alpha  occ. eigenvalues --  -10.24801 -10.24576 -10.23790 -10.23772 -10.23317
 Alpha  occ. eigenvalues --  -10.22892 -10.22785 -10.22759 -10.22754 -10.22741
 Alpha  occ. eigenvalues --  -10.22676 -10.21695  -1.22300  -1.16838  -1.14568
 Alpha  occ. eigenvalues --   -1.13249  -1.12284  -1.11173  -1.10604  -1.09966
 Alpha  occ. eigenvalues --   -1.09425  -1.07972  -1.06136  -1.05779  -1.04912
 Alpha  occ. eigenvalues --   -1.04619  -1.01397  -0.99786  -0.99210  -0.98854
 Alpha  occ. eigenvalues --   -0.97970  -0.97224  -0.95158  -0.92082  -0.89561
 Alpha  occ. eigenvalues --   -0.87798  -0.86724  -0.86228  -0.84393  -0.84061
 Alpha  occ. eigenvalues --   -0.82101  -0.81589  -0.80292  -0.80137  -0.79119
 Alpha  occ. eigenvalues --   -0.78887  -0.78264  -0.77949  -0.75348  -0.74155
 Alpha  occ. eigenvalues --   -0.74032  -0.73813  -0.72972  -0.72148  -0.71807
 Alpha  occ. eigenvalues --   -0.70609  -0.70245  -0.69552  -0.68678  -0.66467
 Alpha  occ. eigenvalues --   -0.66052  -0.65740  -0.65588  -0.65204  -0.64827
 Alpha  occ. eigenvalues --   -0.64626  -0.64161  -0.63493  -0.63244  -0.62530
 Alpha  occ. eigenvalues --   -0.62491  -0.62290  -0.62018  -0.61499  -0.60367
 Alpha  occ. eigenvalues --   -0.59613  -0.59535  -0.59080  -0.58052  -0.57736
 Alpha  occ. eigenvalues --   -0.57515  -0.56565  -0.56331  -0.56168  -0.55873
 Alpha  occ. eigenvalues --   -0.55432  -0.54980  -0.54921  -0.54855  -0.54655
 Alpha  occ. eigenvalues --   -0.54316  -0.53906  -0.53308  -0.52599  -0.52529
 Alpha  occ. eigenvalues --   -0.52381  -0.51772  -0.51705  -0.51229  -0.50700
 Alpha  occ. eigenvalues --   -0.50332  -0.49717  -0.49627  -0.49369  -0.49125
 Alpha  occ. eigenvalues --   -0.48874  -0.48721  -0.48623  -0.48432  -0.48277
 Alpha  occ. eigenvalues --   -0.47628  -0.47470  -0.46977  -0.46828  -0.46623
 Alpha  occ. eigenvalues --   -0.46207  -0.46064  -0.45876  -0.45702  -0.45666
 Alpha  occ. eigenvalues --   -0.45590  -0.45259  -0.45159  -0.44808  -0.44463
 Alpha  occ. eigenvalues --   -0.44337  -0.44074  -0.43992  -0.43632  -0.43540
 Alpha  occ. eigenvalues --   -0.43404  -0.43351  -0.42994  -0.42752  -0.42532
 Alpha  occ. eigenvalues --   -0.42354  -0.42018  -0.41989  -0.41745  -0.41321
 Alpha  occ. eigenvalues --   -0.41095  -0.40951  -0.40586  -0.40558  -0.40085
 Alpha  occ. eigenvalues --   -0.39977  -0.39472  -0.38952  -0.38460  -0.38380
 Alpha  occ. eigenvalues --   -0.38246  -0.37895  -0.36526  -0.36153  -0.35784
 Alpha  occ. eigenvalues --   -0.35051  -0.34465  -0.34278  -0.34126  -0.34057
 Alpha  occ. eigenvalues --   -0.32851  -0.32033  -0.31349  -0.31322  -0.30936
 Alpha  occ. eigenvalues --   -0.30588  -0.30188  -0.29943  -0.29206  -0.28612
 Alpha  occ. eigenvalues --   -0.27692
 Alpha virt. eigenvalues --   -0.12946  -0.11146  -0.07746  -0.06800  -0.06134
 Alpha virt. eigenvalues --   -0.05499  -0.04732  -0.04376  -0.04243  -0.04196
 Alpha virt. eigenvalues --   -0.03928  -0.03457  -0.02911  -0.02696  -0.02104

 Mulliken charges:
               1
     1  N   -0.791019
     2  H    0.481249
     3  H    0.355036
     4  H    0.333193
     5  C   -0.106521
     6  H    0.168256
     7  C    0.646216
     8  C    0.141040
     9  H    0.144365
    10  O   -0.544713
    11  C   -0.460747
    12  H    0.143761
    13  H    0.174632
    14  H    0.137512
    15  O   -0.651352
    16  H    0.421697
    17  N   -0.636815
    18  H    0.402510
    19  C   -0.038543
    20  H    0.203687
    21  C    0.604042
    22  C   -0.387140
    23  H    0.147959
    24  H    0.145134
    25  O   -0.523075
    26  C    0.166669
    27  C   -0.139140
    28  H    0.128497
    29  C   -0.206125
    30  H    0.147457
    31  C   -0.140227
    32  H    0.140694
    33  C   -0.146695
    34  H    0.134411
    35  C   -0.124601
    36  H    0.142201
    37  N   -0.607529
    38  H    0.340850
    39  C   -0.064469
    40  H    0.202383
    41  C    0.621656
    42  C   -0.448573
    43  H    0.171291
    44  H    0.159792
    45  H    0.161970
    46  O   -0.550905
    47  N   -0.623109
    48  H    0.397244
    49  C   -0.066290
    50  H    0.178097
    51  C    0.627234
    52  C   -0.280467
    53  H    0.153634
    54  H    0.195839
    55  O   -0.550815
    56  C   -0.364305
    57  H    0.184207
    58  H    0.180105
    59  C    0.595987
    60  O   -0.510047
    61  O   -0.611870
    62  N   -0.619453
    63  H    0.389485
    64  C   -0.056704
    65  H    0.181174
    66  C    0.629400
    67  C   -0.463341
    68  H    0.162650
    69  H    0.178151
    70  H    0.162133
    71  O   -0.559889
    72  N   -0.631330
    73  H    0.396222
    74  C   -0.062024
    75  H    0.177685
    76  C    0.652333
    77  C   -0.282607
    78  H    0.144326
    79  H    0.164195
    80  O   -0.530655
    81  C   -0.083283
    82  H    0.146438
    83  C   -0.450642
    84  H    0.144944
    85  H    0.137046
    86  H    0.149320
    87  C   -0.445337
    88  H    0.142508
    89  H    0.145520
    90  H    0.150663
    91  N   -0.647922
    92  H    0.388463
    93  C    0.016942
    94  H    0.187529
    95  C    0.621798
    96  C   -0.335757
    97  H    0.169492
    98  H    0.194899
    99  O   -0.530515
   100  C   -0.291854
   101  H    0.186387
   102  H    0.172845
   103  C   -0.174659
   104  H    0.197457
   105  H    0.173754
   106  N   -0.601458
   107  H    0.399559
   108  N   -0.747320
   109  H    0.382073
   110  H    0.385965
   111  N   -0.774648
   112  H    0.408920
   113  H    0.373410
   114  C    0.782786
   115  O   -0.534203
   116  H    0.421716
 Sum of Mulliken charges =   1.00000

 Dipole moment (field-independent basis, Debye):
    X=             32.6385    Y=             35.0861    Z=              3.2986  Tot=             48.0332
 Quadrupole moment (field-independent basis, Debye-Ang):
   XX=             47.7376   YY=             -9.0163   ZZ=           -300.4019
   XY=            340.4459   XZ=             55.9449   YZ=             22.0796

 Normal termination of Gaussian 16 at Sat Jun 25 09:46:02 2022.
