 Gaussian 16, Revision C.01,
 Gaussian 16:  ES64L-G16RevC.01  3-Jul-2019

 ----------------------------------------------------------------------
 # B3LYP/6-31G* empiricaldispersion=gd3 guess=read geom=check nosymm in
 tegral(ultrafinegrid)
 ----------------------------------------------------------------------

 ------------------------------------------------------
 Candidate Structure: Conf:102 Charge calc in gas phase
 ------------------------------------------------------
 Structure from the checkpoint file:  "conf-102.chk"
 Charge =  1 Multiplicity = 1

                          Input orientation:
 ---------------------------------------------------------------------
 Center     Atomic      Atomic             Coordinates (Angstroms)
 Number     Number       Type             X           Y           Z
 ---------------------------------------------------------------------
      1          7           0       -5.950983   -2.230236   -9.401580
      2          1           0       -6.700188   -2.885408   -9.163916
      3          1           0       -6.255144   -1.262122   -9.129623
      4          1           0       -5.708738   -2.322305  -10.401077
      5          6           0       -4.699311   -2.445014   -8.590448
      6          1           0       -4.662260   -3.488903   -8.271727
      7          6           0       -4.833839   -1.438440   -7.422993
      8          6           0       -3.490058   -2.116640   -9.498635
      9          1           0       -3.449292   -1.023391   -9.626473
     10          8           0       -5.622513   -0.495426   -7.575812
     11          6           0       -2.171902   -2.633279   -8.932120
     12          1           0       -1.917540   -2.164296   -7.976588
     13          1           0       -1.361303   -2.406942   -9.632851
     14          1           0       -2.213830   -3.719549   -8.800462
     15          8           0       -3.825782   -2.741140  -10.744111
     16          1           0       -3.149263   -2.527197  -11.406199
     17          7           0       -4.048862   -1.654369   -6.377979
     18          1           0       -3.362835   -2.411420   -6.358129
     19          6           0       -3.839097   -0.714175   -5.278642
     20          1           0       -4.014874    0.299676   -5.648611
     21          6           0       -2.351978   -0.906926   -4.904879
     22          6           0       -4.811650   -1.011697   -4.107514
     23          1           0       -5.825481   -0.943886   -4.521727
     24          1           0       -4.656448   -2.049462   -3.790592
     25          8           0       -1.762288   -1.934888   -5.276501
     26          6           0       -4.642182   -0.068437   -2.938655
     27          6           0       -4.137578   -0.528815   -1.715638
     28          1           0       -3.892764   -1.583022   -1.601096
     29          6           0       -4.951961    1.292220   -3.075923
     30          1           0       -5.359937    1.661106   -4.016110
     31          6           0       -3.953305    0.349387   -0.647998
     32          1           0       -3.569014    0.012219    0.309173
     33          6           0       -4.751735    2.175068   -2.012208
     34          1           0       -4.990214    3.228056   -2.135052
     35          6           0       -4.253091    1.704931   -0.796463
     36          1           0       -4.076972    2.360628    0.049610
     37          7           0       -1.789117    0.074770   -4.198174
     38          1           0       -2.327984    0.873722   -3.864488
     39          6           0       -0.422454    0.016107   -3.693971
     40          1           0       -0.279040   -0.937951   -3.172577
     41          6           0       -0.291175    1.186509   -2.701437
     42          6           0        0.614024    0.141046   -4.823591
     43          1           0        1.631097    0.091372   -4.421517
     44          1           0        0.491694    1.098319   -5.340716
     45          1           0        0.478045   -0.676068   -5.535851
     46          8           0       -1.101737    2.111688   -2.710109
     47          7           0        0.770088    1.111851   -1.871801
     48          1           0        1.470486    0.385561   -1.978143
     49          6           0        1.132425    2.178599   -0.953755
     50          1           0        0.781792    3.124821   -1.380875
     51          6           0        2.661448    2.160650   -0.830015
     52          6           0        0.526594    1.991811    0.458536
     53          1           0        0.781478    2.879736    1.050290
     54          1           0        1.018818    1.144819    0.949454
     55          8           0        3.335473    1.212959   -1.228809
     56          6           0       -0.985417    1.792300    0.485308
     57          1           0       -1.501800    2.618987   -0.012404
     58          1           0       -1.256926    0.898859   -0.087314
     59          6           0       -1.572378    1.621990    1.907143
     60          8           0       -2.803210    1.600801    2.030324
     61          8           0       -0.708102    1.484284    2.851945
     62          7           0        3.218855    3.231048   -0.193851
     63          1           0        2.599045    3.867238    0.290042
     64          6           0        4.582993    3.142050    0.305810
     65          1           0        5.224458    2.861557   -0.535410
     66          6           0        4.685723    2.083535    1.415393
     67          6           0        5.027084    4.484868    0.897372
     68          1           0        6.033426    4.398239    1.317254
     69          1           0        4.356109    4.772712    1.715093
     70          1           0        5.017285    5.267069    0.132681
     71          8           0        3.835562    2.003012    2.306809
     72          7           0        5.790843    1.308144    1.401552
     73          1           0        6.501229    1.487199    0.704932
     74          6           0        6.168040    0.534879    2.576454
     75          1           0        5.355529   -0.167513    2.785195
     76          6           0        6.330667    1.503574    3.766067
     77          6           0        7.482214   -0.217061    2.302536
     78          1           0        7.355480   -0.797036    1.377603
     79          1           0        8.261534    0.534133    2.112488
     80          8           0        6.786900    2.632462    3.618441
     81          6           0        7.953627   -1.161674    3.426370
     82          1           0        8.039326   -0.582644    4.355749
     83          6           0        6.969665   -2.315233    3.673298
     84          1           0        6.841876   -2.918198    2.765159
     85          1           0        5.975248   -1.970716    3.980618
     86          1           0        7.339459   -2.973265    4.466404
     87          6           0        9.346445   -1.710789    3.084886
     88          1           0        9.318412   -2.300938    2.159817
     89          1           0        9.716087   -2.362107    3.884323
     90          1           0       10.072887   -0.901726    2.945902
     91          7           0        5.934594    1.006638    4.966586
     92          1           0        5.653048    0.038394    5.052250
     93          6           0        6.068322    1.755428    6.200031
     94          1           0        6.865344    2.493300    6.060560
     95          6           0        6.478913    0.785816    7.299251
     96          6           0        4.761249    2.495292    6.580198
     97          1           0        4.929782    3.038663    7.517881
     98          1           0        3.979947    1.746963    6.769777
     99          8           0        6.500588   -0.420593    7.182618
    100          6           0        4.302606    3.447168    5.472193
    101          1           0        4.218054    2.894220    4.533901
    102          1           0        5.065020    4.216222    5.299541
    103          6           0        2.974233    4.150296    5.774001
    104          1           0        2.713902    4.818318    4.945088
    105          1           0        3.065110    4.769710    6.672504
    106          7           0        1.838282    3.250535    6.002582
    107          1           0        1.543983    3.089911    6.954444
    108          7           0        1.441414    2.739285    3.750570
    109          1           0        0.752509    2.276422    3.115544
    110          1           0        2.417614    2.698083    3.473085
    111          7           0       -0.128707    2.185247    5.337955
    112          1           0       -0.610548    2.480203    6.174925
    113          1           0       -0.678982    1.806653    4.528297
    114          6           0        1.059294    2.724592    5.027807
    115          8           0        6.786656    1.434793    8.439031
    116          1           0        7.019104    0.757007    9.102317
 ---------------------------------------------------------------------

 SCF Done:  E(RB3LYP) =  -2782.46580094     A.U. after    3 cycles

 Alpha  occ. eigenvalues --  -19.29659 -19.26798 -19.25378 -19.21273 -19.20373
 Alpha  occ. eigenvalues --  -19.18993 -19.18540 -19.17846 -19.17652 -19.11545
 Alpha  occ. eigenvalues --  -19.09631 -14.58727 -14.48171 -14.44541 -14.43549
 Alpha  occ. eigenvalues --  -14.43093 -14.42623 -14.42489 -14.41886 -14.41208
 Alpha  occ. eigenvalues --  -14.40233 -10.42449 -10.39755 -10.39200 -10.39135
 Alpha  occ. eigenvalues --  -10.38817 -10.37270 -10.35609 -10.35230 -10.35001
 Alpha  occ. eigenvalues --  -10.34845 -10.32910 -10.30657 -10.30425 -10.30325
 Alpha  occ. eigenvalues --  -10.30135 -10.29976 -10.29778 -10.28975 -10.28672
 Alpha  occ. eigenvalues --  -10.27105 -10.26089 -10.25301 -10.25141 -10.24957
 Alpha  occ. eigenvalues --  -10.24853 -10.24826 -10.24767 -10.23656 -10.23301
 Alpha  occ. eigenvalues --  -10.23117 -10.23090 -10.22907 -10.22479 -10.22104
 Alpha  occ. eigenvalues --  -10.21893 -10.20179  -1.18403  -1.17752  -1.16721
 Alpha  occ. eigenvalues --   -1.12586  -1.12031  -1.11247  -1.10415  -1.09676
 Alpha  occ. eigenvalues --   -1.09433  -1.08781  -1.07552  -1.04908  -1.03563
 Alpha  occ. eigenvalues --   -1.00250  -0.99557  -0.99275  -0.99248  -0.98547
 Alpha  occ. eigenvalues --   -0.97811  -0.94866  -0.94154  -0.92755  -0.90424
 Alpha  occ. eigenvalues --   -0.87832  -0.87114  -0.86510  -0.85584  -0.84203
 Alpha  occ. eigenvalues --   -0.83614  -0.82507  -0.81795  -0.80020  -0.79772
 Alpha  occ. eigenvalues --   -0.78512  -0.76519  -0.76021  -0.75436  -0.73709
 Alpha  occ. eigenvalues --   -0.73634  -0.73309  -0.73015  -0.72407  -0.71193
 Alpha  occ. eigenvalues --   -0.70924  -0.70297  -0.69734  -0.68163  -0.67337
 Alpha  occ. eigenvalues --   -0.67020  -0.66030  -0.65924  -0.65336  -0.65114
 Alpha  occ. eigenvalues --   -0.64928  -0.64768  -0.64622  -0.64234  -0.63624
 Alpha  occ. eigenvalues --   -0.62959  -0.62090  -0.61750  -0.60873  -0.60207
 Alpha  occ. eigenvalues --   -0.59519  -0.58280  -0.57983  -0.57465  -0.56757
 Alpha  occ. eigenvalues --   -0.56516  -0.56433  -0.55908  -0.55764  -0.55531
 Alpha  occ. eigenvalues --   -0.55214  -0.54917  -0.54674  -0.54352  -0.54120
 Alpha  occ. eigenvalues --   -0.53763  -0.53516  -0.53126  -0.52872  -0.52703
 Alpha  occ. eigenvalues --   -0.52131  -0.51478  -0.51375  -0.51041  -0.50918
 Alpha  occ. eigenvalues --   -0.50730  -0.50493  -0.50163  -0.49834  -0.49765
 Alpha  occ. eigenvalues --   -0.49523  -0.49215  -0.48921  -0.48622  -0.48447
 Alpha  occ. eigenvalues --   -0.48259  -0.47942  -0.47728  -0.47559  -0.47461
 Alpha  occ. eigenvalues --   -0.46839  -0.46770  -0.46423  -0.46103  -0.45861
 Alpha  occ. eigenvalues --   -0.45556  -0.45539  -0.45252  -0.44942  -0.44814
 Alpha  occ. eigenvalues --   -0.44711  -0.44140  -0.43675  -0.43632  -0.43402
 Alpha  occ. eigenvalues --   -0.43371  -0.43170  -0.42918  -0.42501  -0.42222
 Alpha  occ. eigenvalues --   -0.41993  -0.41902  -0.41492  -0.41218  -0.40933
 Alpha  occ. eigenvalues --   -0.40526  -0.40374  -0.40129  -0.39778  -0.38945
 Alpha  occ. eigenvalues --   -0.38705  -0.38625  -0.38415  -0.38293  -0.38154
 Alpha  occ. eigenvalues --   -0.37891  -0.37263  -0.36199  -0.34969  -0.34520
 Alpha  occ. eigenvalues --   -0.34197  -0.33661  -0.33460  -0.33190  -0.32926
 Alpha  occ. eigenvalues --   -0.32634  -0.31955  -0.31660  -0.31421  -0.31162
 Alpha  occ. eigenvalues --   -0.31057  -0.29206  -0.28559  -0.26645  -0.26401
 Alpha  occ. eigenvalues --   -0.23750
 Alpha virt. eigenvalues --   -0.11387  -0.09298  -0.06407  -0.06118  -0.05503
 Alpha virt. eigenvalues --   -0.05365  -0.04878  -0.04422  -0.04150  -0.03937
 Alpha virt. eigenvalues --   -0.03627  -0.03435  -0.03220  -0.01681  -0.00737

 Mulliken charges:
               1
     1  N   -0.747504
     2  H    0.415916
     3  H    0.424357
     4  H    0.428249
     5  C   -0.124679
     6  H    0.214539
     7  C    0.640986
     8  C    0.126096
     9  H    0.170398
    10  O   -0.537918
    11  C   -0.491354
    12  H    0.200611
    13  H    0.179238
    14  H    0.180801
    15  O   -0.647995
    16  H    0.432264
    17  N   -0.594640
    18  H    0.372325
    19  C   -0.081305
    20  H    0.195261
    21  C    0.637825
    22  C   -0.341422
    23  H    0.170515
    24  H    0.157092
    25  O   -0.567382
    26  C    0.150339
    27  C   -0.190695
    28  H    0.121839
    29  C   -0.210185
    30  H    0.120358
    31  C   -0.137968
    32  H    0.175429
    33  C   -0.116015
    34  H    0.135485
    35  C   -0.124395
    36  H    0.177547
    37  N   -0.616256
    38  H    0.384453
    39  C   -0.032134
    40  H    0.179158
    41  C    0.624621
    42  C   -0.457225
    43  H    0.164430
    44  H    0.162466
    45  H    0.179868
    46  O   -0.532854
    47  N   -0.611193
    48  H    0.351653
    49  C   -0.066968
    50  H    0.180217
    51  C    0.626169
    52  C   -0.265107
    53  H    0.127433
    54  H    0.163552
    55  O   -0.539572
    56  C   -0.362170
    57  H    0.162778
    58  H    0.150512
    59  C    0.587109
    60  O   -0.543580
    61  O   -0.637755
    62  N   -0.591745
    63  H    0.339306
    64  C   -0.057030
    65  H    0.170446
    66  C    0.673695
    67  C   -0.477570
    68  H    0.192797
    69  H    0.157632
    70  H    0.173351
    71  O   -0.566231
    72  N   -0.596229
    73  H    0.342549
    74  C   -0.031380
    75  H    0.173128
    76  C    0.636962
    77  C   -0.299325
    78  H    0.153259
    79  H    0.154061
    80  O   -0.544891
    81  C   -0.090895
    82  H    0.143421
    83  C   -0.448694
    84  H    0.147867
    85  H    0.133000
    86  H    0.163694
    87  C   -0.445304
    88  H    0.144745
    89  H    0.154719
    90  H    0.148365
    91  N   -0.604527
    92  H    0.355541
    93  C   -0.048340
    94  H    0.206914
    95  C    0.586029
    96  C   -0.267099
    97  H    0.161620
    98  H    0.144829
    99  O   -0.463766
   100  C   -0.290895
   101  H    0.191077
   102  H    0.166454
   103  C   -0.160669
   104  H    0.177272
   105  H    0.164135
   106  N   -0.604214
   107  H    0.342511
   108  N   -0.837012
   109  H    0.433672
   110  H    0.400229
   111  N   -0.777128
   112  H    0.337401
   113  H    0.415183
   114  C    0.760390
   115  O   -0.561047
   116  H    0.424126
 Sum of Mulliken charges =   1.00000

 Dipole moment (field-independent basis, Debye):
    X=             -3.3524    Y=             -3.3553    Z=            -22.8445  Tot=             23.3317
 Quadrupole moment (field-independent basis, Debye-Ang):
   XX=           -195.4117   YY=           -286.2866   ZZ=             91.4213
   XY=             66.7819   XZ=            213.9883   YZ=            114.1845

 Normal termination of Gaussian 16 at Sat Jun 25 09:30:43 2022.
