 Gaussian 16, Revision C.01,
 Gaussian 16:  ES64L-G16RevC.01  3-Jul-2019

 ----------------------------------------------------------------------
 # B3LYP/6-31G* empiricaldispersion=gd3 guess=read geom=check nosymm in
 tegral(ultrafinegrid)
 ----------------------------------------------------------------------

 ------------------------------------------------------
 Candidate Structure: Conf:472 Charge calc in gas phase
 ------------------------------------------------------
 Structure from the checkpoint file:  "conf-472.chk"
 Charge =  1 Multiplicity = 1

                          Input orientation:
 ---------------------------------------------------------------------
 Center     Atomic      Atomic             Coordinates (Angstroms)
 Number     Number       Type             X           Y           Z
 ---------------------------------------------------------------------
      1          7           0       -0.341513   -4.836871   -2.197896
      2          1           0       -1.151575   -5.244469   -1.673232
      3          1           0       -0.638405   -4.721391   -3.185902
      4          1           0        0.506356   -5.401131   -2.133425
      5          6           0       -0.214787   -3.430793   -1.667872
      6          1           0        0.528001   -3.408629   -0.867750
      7          6           0       -1.636929   -3.159615   -1.119583
      8          6           0        0.155199   -2.528781   -2.869100
      9          1           0        0.104195   -1.485503   -2.551570
     10          8           0       -2.394594   -4.127326   -0.958498
     11          6           0        1.555405   -2.813513   -3.399596
     12          1           0        2.303724   -2.650861   -2.616200
     13          1           0        1.765939   -2.142871   -4.236232
     14          1           0        1.656122   -3.839219   -3.775683
     15          8           0       -0.791821   -2.807713   -3.892415
     16          1           0       -1.595983   -2.261445   -3.723662
     17          7           0       -1.954976   -1.887017   -0.901564
     18          1           0       -1.293288   -1.138332   -1.118071
     19          6           0       -3.342956   -1.455309   -0.813628
     20          1           0       -3.952013   -2.357601   -0.714644
     21          6           0       -3.660118   -0.812095   -2.194206
     22          6           0       -3.548176   -0.530955    0.403301
     23          1           0       -3.147345    0.460103    0.165665
     24          1           0       -4.628002   -0.406638    0.568376
     25          8           0       -3.032002   -1.161305   -3.201586
     26          6           0       -2.885773   -1.030408    1.674672
     27          6           0       -2.865300   -2.386808    2.027535
     28          1           0       -3.325286   -3.130290    1.382210
     29          6           0       -2.267978   -0.106194    2.524742
     30          1           0       -2.273287    0.948271    2.268900
     31          6           0       -2.224594   -2.806309    3.194856
     32          1           0       -2.209782   -3.863108    3.447345
     33          6           0       -1.636137   -0.522331    3.696236
     34          1           0       -1.170110    0.204778    4.353117
     35          6           0       -1.599658   -1.877475    4.031213
     36          1           0       -1.084600   -2.192100    4.932767
     37          7           0       -4.601446    0.154428   -2.232511
     38          1           0       -5.017110    0.453823   -1.359538
     39          6           0       -4.699853    1.123873   -3.344865
     40          1           0       -4.298791    0.616447   -4.225536
     41          6           0       -3.788743    2.325591   -2.949073
     42          6           0       -6.139920    1.558482   -3.570835
     43          1           0       -6.183250    2.279610   -4.390992
     44          1           0       -6.538017    2.058651   -2.682702
     45          1           0       -6.765338    0.696087   -3.817834
     46          8           0       -4.253731    3.416210   -2.653633
     47          7           0       -2.470686    1.989627   -2.859421
     48          1           0       -2.219079    1.036901   -3.102355
     49          6           0       -1.489097    2.638866   -1.984222
     50          1           0       -1.031225    3.494492   -2.491073
     51          6           0       -0.389613    1.580986   -1.778022
     52          6           0       -2.132076    3.142772   -0.646427
     53          1           0       -3.049133    2.562887   -0.505366
     54          1           0       -2.462082    4.170526   -0.809882
     55          8           0       -0.621461    0.365728   -1.945547
     56          6           0       -1.348320    3.033911    0.668909
     57          1           0       -2.044601    3.232162    1.490641
     58          1           0       -0.980307    2.013897    0.817234
     59          6           0       -0.135825    3.936658    0.901544
     60          8           0        0.102155    4.210873    2.126610
     61          8           0        0.581408    4.317760   -0.062936
     62          7           0        0.819547    2.043293   -1.457828
     63          1           0        0.852766    3.018226   -1.088990
     64          6           0        1.891464    1.129965   -1.114638
     65          1           0        2.100450    0.490712   -1.982187
     66          6           0        1.481844    0.211266    0.056126
     67          6           0        3.143323    1.947372   -0.758221
     68          1           0        3.936003    1.308170   -0.356716
     69          1           0        2.888997    2.709012   -0.014976
     70          1           0        3.520742    2.457734   -1.648962
     71          8           0        0.638083    0.525873    0.886115
     72          7           0        2.133384   -0.995237    0.118347
     73          1           0        3.014462   -1.075532   -0.377503
     74          6           0        2.015289   -1.802595    1.343350
     75          1           0        0.946264   -1.890255    1.550323
     76          6           0        2.742100   -1.061867    2.486369
     77          6           0        2.660869   -3.173113    1.125601
     78          1           0        2.248641   -3.620803    0.208644
     79          1           0        3.732119   -3.012255    0.952630
     80          8           0        3.971358   -1.006556    2.492627
     81          6           0        2.482991   -4.162838    2.290478
     82          1           0        2.932842   -3.707960    3.183934
     83          6           0        1.005021   -4.453440    2.586277
     84          1           0        0.493491   -4.836710    1.690492
     85          1           0        0.461307   -3.566630    2.923989
     86          1           0        0.908308   -5.213801    3.368809
     87          6           0        3.248171   -5.458444    1.987669
     88          1           0        2.839290   -5.955265    1.096627
     89          1           0        3.171719   -6.164087    2.821610
     90          1           0        4.311201   -5.264411    1.805969
     91          7           0        1.949817   -0.479650    3.418341
     92          1           0        0.945289   -0.468741    3.280011
     93          6           0        2.503844    0.323326    4.493790
     94          1           0        3.521996   -0.039385    4.669378
     95          6           0        1.703592    0.086751    5.768885
     96          6           0        2.578221    1.835751    4.158728
     97          1           0        3.002613    2.349870    5.028523
     98          1           0        1.564937    2.230091    4.007583
     99          8           0        0.672182   -0.542824    5.849903
    100          6           0        3.440717    2.087755    2.913589
    101          1           0        2.886461    1.771984    2.025590
    102          1           0        4.337989    1.462414    2.953147
    103          6           0        3.897243    3.535864    2.735858
    104          1           0        4.585865    3.584550    1.879673
    105          1           0        4.451634    3.858623    3.629632
    106          7           0        2.769980    4.433824    2.507312
    107          1           0        1.791586    4.080220    2.407830
    108          7           0        4.077800    6.343004    2.163604
    109          1           0        4.125553    7.348122    2.249977
    110          1           0        4.916832    5.840605    2.410833
    111          7           0        1.746225    6.458778    2.140778
    112          1           0        0.893006    5.880618    2.067009
    113          1           0        1.777996    7.309548    1.595829
    114          6           0        2.871030    5.734673    2.266749
    115          8           0        2.291166    0.690767    6.821227
    116          1           0        1.731710    0.517442    7.602392
 ---------------------------------------------------------------------

 SCF Done:  E(RB3LYP) =  -2782.50231394     A.U. after    1 cycles

 Alpha  occ. eigenvalues --  -19.28142 -19.25018 -19.24354 -19.22717 -19.22212
 Alpha  occ. eigenvalues --  -19.21747 -19.21737 -19.19773 -19.18403 -19.16232
 Alpha  occ. eigenvalues --  -19.16199 -14.56974 -14.47813 -14.46672 -14.46178
 Alpha  occ. eigenvalues --  -14.45979 -14.45490 -14.44608 -14.44411 -14.43513
 Alpha  occ. eigenvalues --  -14.42135 -10.42487 -10.41074 -10.40720 -10.39174
 Alpha  occ. eigenvalues --  -10.38489 -10.37764 -10.37418 -10.37019 -10.35412
 Alpha  occ. eigenvalues --  -10.35321 -10.34139 -10.33654 -10.32966 -10.32619
 Alpha  occ. eigenvalues --  -10.32397 -10.32327 -10.31109 -10.30981 -10.28932
 Alpha  occ. eigenvalues --  -10.28787 -10.27943 -10.27787 -10.27735 -10.27614
 Alpha  occ. eigenvalues --  -10.27393 -10.27299 -10.26033 -10.25920 -10.25743
 Alpha  occ. eigenvalues --  -10.25601 -10.25537 -10.25474 -10.25397 -10.25246
 Alpha  occ. eigenvalues --  -10.24727 -10.23885  -1.19179  -1.17025  -1.14207
 Alpha  occ. eigenvalues --   -1.13867  -1.13144  -1.12831  -1.11707  -1.11450
 Alpha  occ. eigenvalues --   -1.10384  -1.10249  -1.10150  -1.09273  -1.04125
 Alpha  occ. eigenvalues --   -1.02180  -1.02176  -1.01577  -1.01084  -1.00912
 Alpha  occ. eigenvalues --   -0.99918  -0.99174  -0.98905  -0.92903  -0.90290
 Alpha  occ. eigenvalues --   -0.90198  -0.88905  -0.87972  -0.87390  -0.85247
 Alpha  occ. eigenvalues --   -0.84739  -0.83994  -0.83602  -0.82467  -0.81347
 Alpha  occ. eigenvalues --   -0.80681  -0.78822  -0.77577  -0.76372  -0.75175
 Alpha  occ. eigenvalues --   -0.74843  -0.73751  -0.73337  -0.72536  -0.72176
 Alpha  occ. eigenvalues --   -0.72036  -0.71244  -0.70548  -0.70142  -0.69415
 Alpha  occ. eigenvalues --   -0.68730  -0.68415  -0.67982  -0.67913  -0.67492
 Alpha  occ. eigenvalues --   -0.66773  -0.66395  -0.65814  -0.64985  -0.64518
 Alpha  occ. eigenvalues --   -0.64345  -0.63295  -0.62964  -0.62527  -0.60801
 Alpha  occ. eigenvalues --   -0.59907  -0.59792  -0.59437  -0.59025  -0.58560
 Alpha  occ. eigenvalues --   -0.58430  -0.58228  -0.57959  -0.57541  -0.57387
 Alpha  occ. eigenvalues --   -0.57323  -0.56933  -0.56608  -0.56090  -0.56048
 Alpha  occ. eigenvalues --   -0.55709  -0.55248  -0.54880  -0.54413  -0.54275
 Alpha  occ. eigenvalues --   -0.53737  -0.53443  -0.53277  -0.52900  -0.52674
 Alpha  occ. eigenvalues --   -0.52253  -0.52031  -0.51701  -0.51593  -0.51482
 Alpha  occ. eigenvalues --   -0.51089  -0.50343  -0.50241  -0.50067  -0.49977
 Alpha  occ. eigenvalues --   -0.49834  -0.49451  -0.49229  -0.49070  -0.48780
 Alpha  occ. eigenvalues --   -0.48603  -0.48458  -0.48307  -0.47999  -0.47964
 Alpha  occ. eigenvalues --   -0.47903  -0.47647  -0.47460  -0.47048  -0.46895
 Alpha  occ. eigenvalues --   -0.46581  -0.46576  -0.46140  -0.45585  -0.45466
 Alpha  occ. eigenvalues --   -0.44968  -0.44865  -0.44628  -0.44340  -0.44192
 Alpha  occ. eigenvalues --   -0.43896  -0.43734  -0.43619  -0.43077  -0.42856
 Alpha  occ. eigenvalues --   -0.42734  -0.42583  -0.41653  -0.41387  -0.41298
 Alpha  occ. eigenvalues --   -0.40934  -0.40910  -0.40770  -0.40400  -0.40053
 Alpha  occ. eigenvalues --   -0.39210  -0.38433  -0.38362  -0.37437  -0.37284
 Alpha  occ. eigenvalues --   -0.36531  -0.36324  -0.36210  -0.35659  -0.35479
 Alpha  occ. eigenvalues --   -0.35240  -0.34475  -0.33836  -0.32674  -0.32228
 Alpha  occ. eigenvalues --   -0.32037  -0.31894  -0.31409  -0.31237  -0.30781
 Alpha  occ. eigenvalues --   -0.30023
 Alpha virt. eigenvalues --   -0.11068  -0.09065  -0.08472  -0.07816  -0.07606
 Alpha virt. eigenvalues --   -0.07488  -0.07288  -0.07252  -0.06953  -0.06419
 Alpha virt. eigenvalues --   -0.04079  -0.03602  -0.03573  -0.02692  -0.02384

 Mulliken charges:
               1
     1  N   -0.752015
     2  H    0.425983
     3  H    0.420179
     4  H    0.403639
     5  C   -0.140759
     6  H    0.229605
     7  C    0.643752
     8  C    0.053866
     9  H    0.219201
    10  O   -0.550983
    11  C   -0.458804
    12  H    0.149948
    13  H    0.199243
    14  H    0.138141
    15  O   -0.663908
    16  H    0.462847
    17  N   -0.590205
    18  H    0.413780
    19  C   -0.097569
    20  H    0.222234
    21  C    0.644367
    22  C   -0.414629
    23  H    0.178122
    24  H    0.170975
    25  O   -0.557922
    26  C    0.174657
    27  C   -0.186798
    28  H    0.145098
    29  C   -0.169385
    30  H    0.145785
    31  C   -0.143431
    32  H    0.141285
    33  C   -0.169539
    34  H    0.150799
    35  C   -0.137981
    36  H    0.163338
    37  N   -0.586309
    38  H    0.349788
    39  C   -0.089028
    40  H    0.197807
    41  C    0.606697
    42  C   -0.446013
    43  H    0.182737
    44  H    0.167295
    45  H    0.161280
    46  O   -0.500938
    47  N   -0.646469
    48  H    0.368413
    49  C   -0.005973
    50  H    0.190521
    51  C    0.595385
    52  C   -0.268717
    53  H    0.139610
    54  H    0.188632
    55  O   -0.595304
    56  C   -0.413936
    57  H    0.165478
    58  H    0.210383
    59  C    0.608858
    60  O   -0.628361
    61  O   -0.602542
    62  N   -0.608297
    63  H    0.417699
    64  C   -0.051335
    65  H    0.162881
    66  C    0.641746
    67  C   -0.496254
    68  H    0.162774
    69  H    0.189131
    70  H    0.184775
    71  O   -0.523280
    72  N   -0.627625
    73  H    0.338727
    74  C   -0.051665
    75  H    0.179343
    76  C    0.629338
    77  C   -0.291797
    78  H    0.105064
    79  H    0.169375
    80  O   -0.546676
    81  C   -0.084805
    82  H    0.157248
    83  C   -0.460270
    84  H    0.109722
    85  H    0.169290
    86  H    0.161621
    87  C   -0.441062
    88  H    0.118874
    89  H    0.161505
    90  H    0.157644
    91  N   -0.598356
    92  H    0.375406
    93  C   -0.065112
    94  H    0.209608
    95  C    0.589931
    96  C   -0.276157
    97  H    0.169486
    98  H    0.177146
    99  O   -0.457365
   100  C   -0.325801
   101  H    0.172431
   102  H    0.186942
   103  C   -0.149754
   104  H    0.162857
   105  H    0.163947
   106  N   -0.629075
   107  H    0.427773
   108  N   -0.763492
   109  H    0.368192
   110  H    0.371538
   111  N   -0.769667
   112  H    0.412384
   113  H    0.351163
   114  C    0.783926
   115  O   -0.559908
   116  H    0.426052
 Sum of Mulliken charges =   1.00000

 Dipole moment (field-independent basis, Debye):
    X=              8.8473    Y=             -1.9352    Z=              1.9325  Tot=              9.2604
 Quadrupole moment (field-independent basis, Debye-Ang):
   XX=           -277.0643   YY=           -209.3227   ZZ=           -290.5416
   XY=             49.9559   XZ=             24.0431   YZ=             49.2663

 Normal termination of Gaussian 16 at Sat Jun 25 09:30:17 2022.
