 Gaussian 16, Revision C.01,
 Gaussian 16:  ES64L-G16RevC.01  3-Jul-2019

 ----------------------------------------------------------------------
 # B3LYP/6-31G* empiricaldispersion=gd3 guess=read geom=check nosymm in
 tegral(ultrafinegrid)
 ----------------------------------------------------------------------

 ------------------------------------------------------
 Candidate Structure: Conf:883 Charge calc in gas phase
 ------------------------------------------------------
 Structure from the checkpoint file:  "conf-883.chk"
 Charge =  1 Multiplicity = 1

                          Input orientation:
 ---------------------------------------------------------------------
 Center     Atomic      Atomic             Coordinates (Angstroms)
 Number     Number       Type             X           Y           Z
 ---------------------------------------------------------------------
      1          7           0       -7.941469   -2.056546   -5.723804
      2          1           0       -8.027231   -1.154838   -5.179652
      3          1           0       -7.865619   -1.814579   -6.727291
      4          1           0       -8.725763   -2.689947   -5.560798
      5          6           0       -6.595097   -2.583189   -5.303302
      6          1           0       -6.738428   -3.375951   -4.564126
      7          6           0       -5.935960   -1.346390   -4.628317
      8          6           0       -5.869773   -3.102841   -6.571502
      9          1           0       -4.805525   -3.226427   -6.339951
     10          8           0       -6.647360   -0.350959   -4.425025
     11          6           0       -6.440454   -4.423535   -7.072014
     12          1           0       -6.341233   -5.205765   -6.312728
     13          1           0       -5.902778   -4.734569   -7.970540
     14          1           0       -7.499145   -4.323774   -7.339535
     15          8           0       -6.060953   -2.131539   -7.601604
     16          1           0       -5.375529   -1.445801   -7.541533
     17          7           0       -4.650554   -1.458656   -4.330520
     18          1           0       -4.091439   -2.297009   -4.512257
     19          6           0       -3.843993   -0.422945   -3.685598
     20          1           0       -4.053109    0.537044   -4.166606
     21          6           0       -2.390739   -0.867503   -3.966681
     22          6           0       -4.173828   -0.326127   -2.170217
     23          1           0       -5.254744   -0.151457   -2.102425
     24          1           0       -3.971483   -1.303947   -1.718098
     25          8           0       -2.168266   -2.035975   -4.315714
     26          6           0       -3.418985    0.761312   -1.433022
     27          6           0       -2.584259    0.446495   -0.352811
     28          1           0       -2.479935   -0.591272   -0.042324
     29          6           0       -3.550386    2.106067   -1.811023
     30          1           0       -4.217213    2.376417   -2.628473
     31          6           0       -1.899966    1.450363    0.335705
     32          1           0       -1.268976    1.219798    1.188352
     33          6           0       -2.839764    3.105707   -1.143958
     34          1           0       -2.938641    4.139174   -1.464117
     35          6           0       -2.009518    2.780620   -0.070069
     36          1           0       -1.436411    3.536477    0.457496
     37          7           0       -1.460012    0.075035   -3.805866
     38          1           0       -1.694881    0.982639   -3.400670
     39          6           0       -0.024351   -0.191637   -3.809969
     40          1           0        0.139552   -1.201796   -3.418540
     41          6           0        0.557716    0.858724   -2.844420
     42          6           0        0.583193   -0.080573   -5.215026
     43          1           0        1.660406   -0.275160   -5.185363
     44          1           0        0.423135    0.924179   -5.618476
     45          1           0        0.113711   -0.813135   -5.877924
     46          8           0       -0.083479    1.880307   -2.599881
     47          7           0        1.763191    0.587986   -2.297216
     48          1           0        2.240411   -0.286966   -2.478333
     49          6           0        2.207856    1.339156   -1.128748
     50          1           0        1.768109    2.333682   -1.198696
     51          6           0        3.732215    1.422067   -1.107962
     52          6           0        1.693476    0.635618    0.147529
     53          1           0        2.095437   -0.385515    0.159724
     54          1           0        0.606440    0.560287    0.049579
     55          8           0        4.432263    0.437778   -1.370990
     56          6           0        2.043461    1.343738    1.464967
     57          1           0        1.607999    0.774503    2.292476
     58          1           0        3.128690    1.371294    1.599696
     59          6           0        1.506545    2.782955    1.534488
     60          8           0        2.234378    3.685599    0.963356
     61          8           0        0.435570    2.997437    2.130268
     62          7           0        4.200269    2.634040   -0.721713
     63          1           0        3.512489    3.220137   -0.215016
     64          6           0        5.591459    2.800521   -0.297717
     65          1           0        6.212371    2.170907   -0.940162
     66          6           0        5.614200    2.292929    1.149376
     67          6           0        6.014921    4.261571   -0.393862
     68          1           0        7.055797    4.379847   -0.076088
     69          1           0        5.387279    4.881862    0.253018
     70          1           0        5.916142    4.613262   -1.424459
     71          8           0        5.204980    2.999170    2.078175
     72          7           0        5.983793    1.004558    1.320231
     73          1           0        6.099700    0.453436    0.477649
     74          6           0        5.714286    0.276294    2.559622
     75          1           0        4.629943    0.120944    2.643078
     76          6           0        6.203440    1.079235    3.783387
     77          6           0        6.423436   -1.086909    2.557413
     78          1           0        7.501430   -0.903209    2.625921
     79          1           0        6.128485   -1.599306    3.483313
     80          8           0        7.381117    1.357569    3.947595
     81          6           0        6.117718   -2.010278    1.359765
     82          1           0        6.567909   -1.575863    0.453788
     83          6           0        6.790582   -3.371819    1.586956
     84          1           0        6.353184   -3.879993    2.455875
     85          1           0        7.865572   -3.261250    1.770034
     86          1           0        6.660449   -4.024212    0.716328
     87          6           0        4.612341   -2.170671    1.102620
     88          1           0        4.091960   -2.499510    2.011838
     89          1           0        4.433049   -2.920286    0.323843
     90          1           0        4.160202   -1.235308    0.758196
     91          7           0        5.220655    1.359588    4.695382
     92          1           0        4.264197    1.312325    4.369213
     93          6           0        5.465949    2.170768    5.878643
     94          1           0        6.552050    2.144586    6.030692
     95          6           0        4.823767    1.528418    7.110321
     96          6           0        4.989848    3.622745    5.696530
     97          1           0        4.966125    4.113756    6.675591
     98          1           0        3.950831    3.580664    5.341073
     99          8           0        4.158228    2.120563    7.931873
    100          6           0        5.865405    4.395773    4.701363
    101          1           0        6.217086    3.726229    3.917914
    102          1           0        6.757356    4.782495    5.209869
    103          6           0        5.158753    5.579737    4.027030
    104          1           0        5.828357    6.017109    3.278445
    105          1           0        4.925128    6.375694    4.740013
    106          7           0        3.917133    5.210075    3.334181
    107          1           0        4.012644    4.569727    2.541901
    108          7           0        2.461598    6.130623    4.907711
    109          1           0        1.532882    6.462579    5.122885
    110          1           0        3.026472    5.838112    5.691812
    111          7           0        1.680922    5.522323    2.801923
    112          1           0        1.866841    4.995891    1.909434
    113          1           0        0.759455    5.295326    3.159774
    114          6           0        2.684910    5.591318    3.679247
    115          8           0        5.102540    0.210542    7.195123
    116          1           0        4.688659   -0.105876    8.020551
 ---------------------------------------------------------------------

 SCF Done:  E(RB3LYP) =  -2782.46810875     A.U. after    1 cycles

 Alpha  occ. eigenvalues --  -19.30365 -19.26489 -19.25152 -19.21162 -19.19754
 Alpha  occ. eigenvalues --  -19.18423 -19.18386 -19.17477 -19.16711 -19.14408
 Alpha  occ. eigenvalues --  -19.13201 -14.59189 -14.49160 -14.45079 -14.44098
 Alpha  occ. eigenvalues --  -14.43960 -14.42658 -14.42292 -14.41705 -14.41363
 Alpha  occ. eigenvalues --  -14.40332 -10.43385 -10.40439 -10.40140 -10.39861
 Alpha  occ. eigenvalues --  -10.38035 -10.37701 -10.35601 -10.34891 -10.34132
 Alpha  occ. eigenvalues --  -10.34006 -10.33948 -10.31613 -10.31143 -10.31080
 Alpha  occ. eigenvalues --  -10.29602 -10.29387 -10.29164 -10.28805 -10.28226
 Alpha  occ. eigenvalues --  -10.28166 -10.26095 -10.25460 -10.24994 -10.24857
 Alpha  occ. eigenvalues --  -10.24673 -10.24420 -10.24366 -10.24325 -10.23926
 Alpha  occ. eigenvalues --  -10.23897 -10.23717 -10.23474 -10.23436 -10.22888
 Alpha  occ. eigenvalues --  -10.22345 -10.22072  -1.19395  -1.17453  -1.16189
 Alpha  occ. eigenvalues --   -1.13300  -1.12787  -1.10663  -1.10424  -1.08838
 Alpha  occ. eigenvalues --   -1.08737  -1.08513  -1.07194  -1.06716  -1.05778
 Alpha  occ. eigenvalues --   -1.01004  -0.99044  -0.98888  -0.98477  -0.98280
 Alpha  occ. eigenvalues --   -0.98097  -0.97293  -0.96178  -0.93215  -0.91549
 Alpha  occ. eigenvalues --   -0.88323  -0.86739  -0.85927  -0.85696  -0.85130
 Alpha  occ. eigenvalues --   -0.83682  -0.82512  -0.81520  -0.80673  -0.79818
 Alpha  occ. eigenvalues --   -0.79392  -0.76641  -0.75755  -0.75080  -0.74944
 Alpha  occ. eigenvalues --   -0.74271  -0.73602  -0.73289  -0.72384  -0.71612
 Alpha  occ. eigenvalues --   -0.71091  -0.70165  -0.69796  -0.68193  -0.67727
 Alpha  occ. eigenvalues --   -0.67551  -0.67170  -0.66153  -0.65897  -0.65520
 Alpha  occ. eigenvalues --   -0.64826  -0.64673  -0.64588  -0.64127  -0.63587
 Alpha  occ. eigenvalues --   -0.62768  -0.62189  -0.61800  -0.61135  -0.60813
 Alpha  occ. eigenvalues --   -0.60010  -0.58769  -0.58450  -0.58284  -0.57581
 Alpha  occ. eigenvalues --   -0.56913  -0.56548  -0.56418  -0.55812  -0.55719
 Alpha  occ. eigenvalues --   -0.55005  -0.54483  -0.54097  -0.53886  -0.53807
 Alpha  occ. eigenvalues --   -0.53550  -0.53244  -0.53088  -0.52824  -0.52568
 Alpha  occ. eigenvalues --   -0.52340  -0.52266  -0.51949  -0.51716  -0.51263
 Alpha  occ. eigenvalues --   -0.51128  -0.50921  -0.50842  -0.50627  -0.50338
 Alpha  occ. eigenvalues --   -0.49780  -0.49228  -0.49027  -0.48521  -0.48288
 Alpha  occ. eigenvalues --   -0.48243  -0.48024  -0.47681  -0.47372  -0.47240
 Alpha  occ. eigenvalues --   -0.47078  -0.46881  -0.46793  -0.46575  -0.45950
 Alpha  occ. eigenvalues --   -0.45735  -0.45400  -0.45296  -0.45018  -0.44876
 Alpha  occ. eigenvalues --   -0.44434  -0.44368  -0.44140  -0.43930  -0.43592
 Alpha  occ. eigenvalues --   -0.43506  -0.43337  -0.43116  -0.42804  -0.42711
 Alpha  occ. eigenvalues --   -0.42127  -0.41772  -0.41615  -0.41469  -0.41303
 Alpha  occ. eigenvalues --   -0.41090  -0.40731  -0.40676  -0.40156  -0.39622
 Alpha  occ. eigenvalues --   -0.39545  -0.39326  -0.38904  -0.38444  -0.37731
 Alpha  occ. eigenvalues --   -0.37653  -0.37523  -0.37405  -0.35506  -0.35449
 Alpha  occ. eigenvalues --   -0.34446  -0.33998  -0.33697  -0.33324  -0.32913
 Alpha  occ. eigenvalues --   -0.32689  -0.31950  -0.31060  -0.30720  -0.30405
 Alpha  occ. eigenvalues --   -0.29974  -0.29932  -0.29767  -0.29575  -0.28507
 Alpha  occ. eigenvalues --   -0.27059
 Alpha virt. eigenvalues --   -0.12649  -0.09665  -0.07091  -0.06360  -0.06085
 Alpha virt. eigenvalues --   -0.05709  -0.05585  -0.05223  -0.05200  -0.04660
 Alpha virt. eigenvalues --   -0.04240  -0.03175  -0.02879  -0.02228  -0.01700

 Mulliken charges:
               1
     1  N   -0.755276
     2  H    0.432362
     3  H    0.423059
     4  H    0.412640
     5  C   -0.117160
     6  H    0.224854
     7  C    0.637481
     8  C    0.072537
     9  H    0.192122
    10  O   -0.539471
    11  C   -0.451282
    12  H    0.176886
    13  H    0.210639
    14  H    0.151271
    15  O   -0.617510
    16  H    0.431410
    17  N   -0.618820
    18  H    0.373929
    19  C   -0.066515
    20  H    0.190962
    21  C    0.624195
    22  C   -0.348764
    23  H    0.181718
    24  H    0.156006
    25  O   -0.562191
    26  C    0.153698
    27  C   -0.190860
    28  H    0.122056
    29  C   -0.209499
    30  H    0.122555
    31  C   -0.136824
    32  H    0.165031
    33  C   -0.107549
    34  H    0.138665
    35  C   -0.117953
    36  H    0.170213
    37  N   -0.615228
    38  H    0.389616
    39  C   -0.050272
    40  H    0.174863
    41  C    0.627747
    42  C   -0.443355
    43  H    0.165485
    44  H    0.169945
    45  H    0.171795
    46  O   -0.525641
    47  N   -0.608483
    48  H    0.342052
    49  C   -0.070863
    50  H    0.211940
    51  C    0.602747
    52  C   -0.284701
    53  H    0.145769
    54  H    0.165416
    55  O   -0.567070
    56  C   -0.367132
    57  H    0.144379
    58  H    0.153466
    59  C    0.604589
    60  O   -0.649280
    61  O   -0.572359
    62  N   -0.607991
    63  H    0.402574
    64  C   -0.063701
    65  H    0.172837
    66  C    0.655813
    67  C   -0.456711
    68  H    0.164080
    69  H    0.161583
    70  H    0.168387
    71  O   -0.576475
    72  N   -0.608776
    73  H    0.368414
    74  C   -0.043779
    75  H    0.149992
    76  C    0.654855
    77  C   -0.286877
    78  H    0.178154
    79  H    0.150455
    80  O   -0.525728
    81  C   -0.096465
    82  H    0.133233
    83  C   -0.443825
    84  H    0.144724
    85  H    0.152320
    86  H    0.147926
    87  C   -0.463480
    88  H    0.137113
    89  H    0.147518
    90  H    0.164545
    91  N   -0.590879
    92  H    0.332585
    93  C   -0.069667
    94  H    0.216993
    95  C    0.581377
    96  C   -0.274917
    97  H    0.163484
    98  H    0.130210
    99  O   -0.463128
   100  C   -0.285524
   101  H    0.216466
   102  H    0.152400
   103  C   -0.171751
   104  H    0.180330
   105  H    0.160275
   106  N   -0.602698
   107  H    0.408726
   108  N   -0.751679
   109  H    0.362716
   110  H    0.370167
   111  N   -0.748183
   112  H    0.410471
   113  H    0.351221
   114  C    0.736295
   115  O   -0.552854
   116  H    0.416817
 Sum of Mulliken charges =   1.00000

 Dipole moment (field-independent basis, Debye):
    X=            -19.8281    Y=             -4.5831    Z=            -14.4394  Tot=             24.9530
 Quadrupole moment (field-independent basis, Debye-Ang):
   XX=           -128.6435   YY=           -255.4352   ZZ=           -167.6095
   XY=             90.4144   XZ=            166.5389   YZ=             86.8065

 Normal termination of Gaussian 16 at Sat Jun 25 09:45:36 2022.
