 Gaussian 16, Revision C.01,
 Gaussian 16:  ES64L-G16RevC.01  3-Jul-2019

 ----------------------------------------------------------------------
 # B3LYP/6-31G* empiricaldispersion=gd3 guess=read geom=check nosymm in
 tegral(ultrafinegrid)
 ----------------------------------------------------------------------

 ------------------------------------------------------
 Candidate Structure: Conf:197 Charge calc in gas phase
 ------------------------------------------------------
 Structure from the checkpoint file:  "conf-197.chk"
 Charge =  1 Multiplicity = 1

                          Input orientation:
 ---------------------------------------------------------------------
 Center     Atomic      Atomic             Coordinates (Angstroms)
 Number     Number       Type             X           Y           Z
 ---------------------------------------------------------------------
      1          7           0       -3.183045   -3.032854   -0.944164
      2          1           0       -3.699011   -1.401717   -1.580507
      3          1           0       -3.953681   -3.597285   -0.592009
      4          1           0       -2.576878   -2.794067   -0.159518
      5          6           0       -2.445452   -3.786459   -1.981599
      6          1           0       -2.000038   -4.717655   -1.593813
      7          6           0       -1.329222   -2.850776   -2.458036
      8          6           0       -3.392443   -4.154139   -3.158434
      9          1           0       -2.744509   -4.515897   -3.975729
     10          8           0       -1.567566   -1.974910   -3.302240
     11          6           0       -4.366430   -5.267073   -2.783846
     12          1           0       -3.838123   -6.171193   -2.462772
     13          1           0       -4.983106   -5.511063   -3.652808
     14          1           0       -5.045223   -4.945314   -1.985835
     15          8           0       -4.166478   -3.048023   -3.570321
     16          1           0       -3.549581   -2.326803   -3.789484
     17          7           0       -0.112575   -2.995768   -1.872014
     18          1           0       -0.054049   -3.729764   -1.173980
     19          6           0        0.803247   -1.870939   -1.592666
     20          1           0        0.170384   -1.033814   -1.266973
     21          6           0        1.599861   -1.269116   -2.773414
     22          6           0        1.738525   -2.241340   -0.428858
     23          1           0        2.501483   -2.944615   -0.781260
     24          1           0        2.254238   -1.317042   -0.155973
     25          8           0        2.763313   -0.862981   -2.587542
     26          6           0        1.016629   -2.813639    0.777009
     27          6           0       -0.060194   -2.126628    1.366209
     28          1           0       -0.386594   -1.184133    0.948624
     29          6           0        1.426513   -4.029499    1.337451
     30          1           0        2.258609   -4.572194    0.894832
     31          6           0       -0.695305   -2.643786    2.494264
     32          1           0       -1.519168   -2.093929    2.942026
     33          6           0        0.791464   -4.545983    2.471662
     34          1           0        1.131264   -5.485558    2.897693
     35          6           0       -0.270544   -3.854310    3.053006
     36          1           0       -0.765507   -4.253881    3.933749
     37          7           0        0.918951   -1.022134   -3.900112
     38          1           0       -0.065327   -1.314477   -3.903264
     39          6           0        1.300400    0.011509   -4.867293
     40          1           0        2.387621    0.124308   -4.813300
     41          6           0        0.632367    1.352186   -4.441510
     42          6           0        0.882963   -0.381601   -6.279854
     43          1           0        1.144670    0.411802   -6.983061
     44          1           0       -0.200235   -0.525713   -6.337008
     45          1           0        1.384728   -1.307804   -6.572791
     46          8           0       -0.072435    1.995424   -5.202680
     47          7           0        0.861487    1.736457   -3.141784
     48          1           0        1.400321    1.144423   -2.523131
     49          6           0        0.078963    2.771503   -2.492102
     50          1           0       -0.314944    3.421920   -3.279590
     51          6           0        0.993117    3.557151   -1.533433
     52          6           0       -1.074020    2.154373   -1.645605
     53          1           0       -1.644790    2.959257   -1.165523
     54          1           0       -0.602627    1.571065   -0.846023
     55          8           0        2.148861    3.205981   -1.273909
     56          6           0       -2.060109    1.251833   -2.397273
     57          1           0       -2.918923    1.798659   -2.796163
     58          1           0       -1.588300    0.776551   -3.264924
     59          6           0       -2.533636    0.084097   -1.546657
     60          8           0       -3.637208   -0.482549   -2.002314
     61          8           0       -1.905119   -0.341281   -0.581184
     62          7           0        0.423273    4.599269   -0.877825
     63          1           0       -0.506393    4.901159   -1.138272
     64          6           0        1.024250    5.133767    0.346975
     65          1           0        2.077822    5.341785    0.149041
     66          6           0        1.012198    4.077418    1.475851
     67          6           0        0.303018    6.408378    0.788745
     68          1           0        0.759855    6.788840    1.706079
     69          1           0       -0.755007    6.210459    0.996631
     70          1           0        0.377281    7.181142    0.017086
     71          8           0        1.934852    3.981621    2.275914
     72          7           0       -0.127071    3.327584    1.555991
     73          1           0       -0.724567    3.301041    0.743349
     74          6           0       -0.221327    2.195563    2.467501
     75          1           0       -0.086925    2.575614    3.485564
     76          6           0        0.877883    1.174594    2.130311
     77          6           0       -1.579375    1.483438    2.328112
     78          1           0       -1.607744    0.990376    1.349474
     79          1           0       -1.601349    0.680180    3.077768
     80          8           0        1.043527    0.787082    0.971591
     81          6           0       -2.831241    2.363844    2.501854
     82          1           0       -2.804702    3.159166    1.740962
     83          6           0       -4.085937    1.516294    2.242730
     84          1           0       -4.175738    0.719501    2.992374
     85          1           0       -4.052579    1.041504    1.254914
     86          1           0       -4.992733    2.128715    2.299729
     87          6           0       -2.891622    3.034346    3.879619
     88          1           0       -2.886465    2.281522    4.678677
     89          1           0       -3.809973    3.621528    3.987303
     90          1           0       -2.046604    3.711119    4.045830
     91          7           0        1.573406    0.702141    3.194262
     92          1           0        1.438338    1.140904    4.095905
     93          6           0        2.649968   -0.266303    3.062580
     94          1           0        2.403965   -0.890103    2.200007
     95          6           0        2.727370   -1.233715    4.236665
     96          6           0        4.027562    0.394064    2.816445
     97          1           0        4.770586   -0.410829    2.764504
     98          1           0        4.293023    1.024316    3.675037
     99          8           0        3.532391   -2.133570    4.290421
    100          6           0        4.000245    1.211419    1.521643
    101          1           0        3.378753    2.102145    1.647994
    102          1           0        3.508420    0.611906    0.750249
    103          6           0        5.369910    1.643335    0.988028
    104          1           0        6.118737    0.846584    1.065128
    105          1           0        5.782122    2.494724    1.534882
    106          7           0        5.252260    2.059863   -0.426055
    107          1           0        4.921941    3.007780   -0.571788
    108          7           0        5.177907   -0.106808   -1.295846
    109          1           0        4.557299   -0.772110   -1.749996
    110          1           0        5.782518   -0.441560   -0.562119
    111          7           0        4.161903    1.628665   -2.437028
    112          1           0        3.475731    2.370645   -2.263438
    113          1           0        3.839316    0.902485   -3.069762
    114          6           0        4.849680    1.190239   -1.373621
    115          8           0        1.818375   -0.977165    5.203325
    116          1           0        1.953976   -1.647161    5.900881
 ---------------------------------------------------------------------

 SCF Done:  E(RB3LYP) =  -2782.52476119     A.U. after    1 cycles

 Alpha  occ. eigenvalues --  -19.28992 -19.25176 -19.23958 -19.23862 -19.23596
 Alpha  occ. eigenvalues --  -19.22744 -19.21606 -19.21172 -19.21130 -19.21095
 Alpha  occ. eigenvalues --  -19.20345 -14.48877 -14.48434 -14.47625 -14.47298
 Alpha  occ. eigenvalues --  -14.46856 -14.45840 -14.45686 -14.45594 -14.45299
 Alpha  occ. eigenvalues --  -14.42988 -10.44554 -10.41187 -10.40581 -10.40090
 Alpha  occ. eigenvalues --  -10.40059 -10.39845 -10.38264 -10.38084 -10.38043
 Alpha  occ. eigenvalues --  -10.34107 -10.34042 -10.33779 -10.33491 -10.33297
 Alpha  occ. eigenvalues --  -10.33065 -10.32409 -10.32287 -10.31682 -10.29207
 Alpha  occ. eigenvalues --  -10.28995 -10.28697 -10.28675 -10.28359 -10.28263
 Alpha  occ. eigenvalues --  -10.27765 -10.27743 -10.27596 -10.27505 -10.27450
 Alpha  occ. eigenvalues --  -10.27260 -10.27054 -10.26921 -10.26007 -10.24881
 Alpha  occ. eigenvalues --  -10.24833 -10.24742  -1.19676  -1.17385  -1.15671
 Alpha  occ. eigenvalues --   -1.15530  -1.14712  -1.13419  -1.13374  -1.13005
 Alpha  occ. eigenvalues --   -1.12403  -1.10654  -1.08543  -1.08188  -1.04231
 Alpha  occ. eigenvalues --   -1.03887  -1.03190  -1.02928  -1.02371  -1.01820
 Alpha  occ. eigenvalues --   -1.01562  -1.01092  -0.98901  -0.94284  -0.90346
 Alpha  occ. eigenvalues --   -0.89841  -0.89174  -0.88887  -0.87171  -0.86370
 Alpha  occ. eigenvalues --   -0.85545  -0.84198  -0.82984  -0.82812  -0.82563
 Alpha  occ. eigenvalues --   -0.82162  -0.79141  -0.78460  -0.75895  -0.75700
 Alpha  occ. eigenvalues --   -0.75424  -0.75035  -0.74556  -0.73472  -0.72780
 Alpha  occ. eigenvalues --   -0.71294  -0.70806  -0.70540  -0.69685  -0.69374
 Alpha  occ. eigenvalues --   -0.69111  -0.68877  -0.68520  -0.68330  -0.67258
 Alpha  occ. eigenvalues --   -0.67051  -0.66462  -0.66255  -0.66122  -0.64679
 Alpha  occ. eigenvalues --   -0.63899  -0.63063  -0.62385  -0.62165  -0.61961
 Alpha  occ. eigenvalues --   -0.61599  -0.60665  -0.60063  -0.59507  -0.59215
 Alpha  occ. eigenvalues --   -0.59072  -0.59012  -0.58608  -0.58447  -0.58035
 Alpha  occ. eigenvalues --   -0.57923  -0.57283  -0.56945  -0.56797  -0.56537
 Alpha  occ. eigenvalues --   -0.55812  -0.55561  -0.55224  -0.55018  -0.54561
 Alpha  occ. eigenvalues --   -0.54191  -0.54159  -0.53841  -0.53749  -0.53246
 Alpha  occ. eigenvalues --   -0.53114  -0.52622  -0.52210  -0.51888  -0.51762
 Alpha  occ. eigenvalues --   -0.51715  -0.51291  -0.51067  -0.50836  -0.50636
 Alpha  occ. eigenvalues --   -0.50376  -0.50303  -0.50065  -0.49726  -0.49462
 Alpha  occ. eigenvalues --   -0.49221  -0.49071  -0.48962  -0.48622  -0.48501
 Alpha  occ. eigenvalues --   -0.48154  -0.48016  -0.47404  -0.47194  -0.47093
 Alpha  occ. eigenvalues --   -0.46760  -0.46418  -0.46196  -0.46079  -0.45961
 Alpha  occ. eigenvalues --   -0.45759  -0.45668  -0.45575  -0.45354  -0.45085
 Alpha  occ. eigenvalues --   -0.44988  -0.44672  -0.44502  -0.44263  -0.43888
 Alpha  occ. eigenvalues --   -0.43763  -0.43577  -0.43301  -0.42597  -0.42046
 Alpha  occ. eigenvalues --   -0.41131  -0.40795  -0.40602  -0.40527  -0.40323
 Alpha  occ. eigenvalues --   -0.40203  -0.39274  -0.38731  -0.38490  -0.38224
 Alpha  occ. eigenvalues --   -0.38141  -0.37315  -0.37150  -0.36671  -0.36307
 Alpha  occ. eigenvalues --   -0.36013  -0.35765  -0.35212  -0.34863  -0.34428
 Alpha  occ. eigenvalues --   -0.34026  -0.33700  -0.33623  -0.33487  -0.33425
 Alpha  occ. eigenvalues --   -0.33093
 Alpha virt. eigenvalues --   -0.10742  -0.10498  -0.10199  -0.09793  -0.09372
 Alpha virt. eigenvalues --   -0.08797  -0.08215  -0.07871  -0.06859  -0.06672
 Alpha virt. eigenvalues --   -0.06420  -0.04624  -0.04189  -0.02549  -0.02013

 Mulliken charges:
               1
     1  N   -0.767539
     2  H    0.470076
     3  H    0.339765
     4  H    0.341073
     5  C   -0.081371
     6  H    0.138220
     7  C    0.646319
     8  C    0.146937
     9  H    0.129176
    10  O   -0.566254
    11  C   -0.462700
    12  H    0.147143
    13  H    0.186140
    14  H    0.151336
    15  O   -0.630625
    16  H    0.424532
    17  N   -0.605475
    18  H    0.352605
    19  C   -0.093159
    20  H    0.232365
    21  C    0.620531
    22  C   -0.379195
    23  H    0.156036
    24  H    0.195369
    25  O   -0.590481
    26  C    0.089663
    27  C   -0.200830
    28  H    0.210199
    29  C   -0.192768
    30  H    0.139491
    31  C   -0.157839
    32  H    0.142418
    33  C   -0.123961
    34  H    0.152755
    35  C   -0.133779
    36  H    0.147348
    37  N   -0.598508
    38  H    0.407015
    39  C   -0.094073
    40  H    0.179016
    41  C    0.613241
    42  C   -0.442461
    43  H    0.185380
    44  H    0.173788
    45  H    0.164685
    46  O   -0.494418
    47  N   -0.620865
    48  H    0.349555
    49  C   -0.076193
    50  H    0.206759
    51  C    0.651260
    52  C   -0.323060
    53  H    0.131262
    54  H    0.214196
    55  O   -0.557717
    56  C   -0.365647
    57  H    0.191326
    58  H    0.202282
    59  C    0.613305
    60  O   -0.590351
    61  O   -0.514575
    62  N   -0.622741
    63  H    0.345567
    64  C   -0.028959
    65  H    0.189654
    66  C    0.627041
    67  C   -0.484105
    68  H    0.198438
    69  H    0.159641
    70  H    0.181564
    71  O   -0.529469
    72  N   -0.606072
    73  H    0.344447
    74  C   -0.037202
    75  H    0.161940
    76  C    0.662360
    77  C   -0.340161
    78  H    0.200238
    79  H    0.148529
    80  O   -0.563391
    81  C   -0.072207
    82  H    0.111271
    83  C   -0.448317
    84  H    0.144538
    85  H    0.149748
    86  H    0.156499
    87  C   -0.451417
    88  H    0.145836
    89  H    0.159024
    90  H    0.149466
    91  N   -0.596086
    92  H    0.351677
    93  C   -0.076679
    94  H    0.214861
    95  C    0.601982
    96  C   -0.265783
    97  H    0.165122
    98  H    0.159878
    99  O   -0.453724
   100  C   -0.310790
   101  H    0.207235
   102  H    0.174139
   103  C   -0.189741
   104  H    0.161896
   105  H    0.194924
   106  N   -0.563935
   107  H    0.366418
   108  N   -0.752561
   109  H    0.407519
   110  H    0.367510
   111  N   -0.771309
   112  H    0.401401
   113  H    0.379128
   114  C    0.744050
   115  O   -0.573215
   116  H    0.425598
 Sum of Mulliken charges =   1.00000

 Dipole moment (field-independent basis, Debye):
    X=              7.0451    Y=              1.0328    Z=              2.3635  Tot=              7.5024
 Quadrupole moment (field-independent basis, Debye-Ang):
   XX=           -284.6894   YY=           -258.9382   ZZ=           -304.7850
   XY=              9.2313   XZ=            -16.4066   YZ=              2.9895

 Normal termination of Gaussian 16 at Sat Jun 25 09:30:18 2022.
