 Gaussian 16, Revision C.01,
 Gaussian 16:  ES64L-G16RevC.01  3-Jul-2019

 -------------------------------------------------------------------
 # B3LYP/6-31G* guess=read geom=check nosymm integral(ultrafinegrid)
 -------------------------------------------------------------------

 ------------------------------------------------------
 Candidate Structure: Conf:145 Charge calc in gas phase
 ------------------------------------------------------
 Structure from the checkpoint file:  "conf-145.chk"
 Charge =  1 Multiplicity = 1

                          Input orientation:
 ---------------------------------------------------------------------
 Center     Atomic      Atomic             Coordinates (Angstroms)
 Number     Number       Type             X           Y           Z
 ---------------------------------------------------------------------
      1          7           0       -4.868751    6.203268   -4.174890
      2          1           0       -4.139883    6.240032   -3.443578
      3          1           0       -5.375467    7.085145   -4.283000
      4          1           0       -4.318569    6.040637   -5.073382
      5          6           0       -5.799476    5.083190   -3.876706
      6          1           0       -5.204587    4.177292   -3.745586
      7          1           0       -6.325103    5.298828   -2.941514
      8          6           0       -6.783350    4.952011   -5.036616
      9          8           0       -6.884277    5.857850   -5.864877
     10          7           0       -7.513368    3.812748   -5.048142
     11          1           0       -7.131439    3.019663   -4.540256
     12          6           0       -8.387335    3.503807   -6.182504
     13          1           0       -8.808082    4.442532   -6.548668
     14          1           0       -9.189989    2.843646   -5.852669
     15          6           0       -7.577387    2.772429   -7.260853
     16          8           0       -7.701801    1.561057   -7.445477
     17          7           0       -6.659210    3.537730   -7.907298
     18          1           0       -6.558917    4.507983   -7.625005
     19          6           0       -5.613863    2.936621   -8.732642
     20          1           0       -6.071541    2.186636   -9.384309
     21          1           0       -5.155551    3.714086   -9.343703
     22          6           0       -4.513093    2.301825   -7.862276
     23          8           0       -3.405153    2.814915   -7.725388
     24          7           0       -4.889245    1.138409   -7.258177
     25          1           0       -5.871733    0.877737   -7.338960
     26          6           0       -4.085067    0.528056   -6.233354
     27          1           0       -4.142860   -0.563596   -6.315177
     28          1           0       -3.044868    0.821755   -6.410047
     29          6           0       -4.475191    0.974399   -4.809763
     30          8           0       -5.085250    2.023518   -4.591102
     31          7           0       -4.043089    0.144167   -3.825271
     32          1           0       -3.649748   -0.749009   -4.094993
     33          6           0       -4.346695    0.335781   -2.412350
     34          1           0       -4.646502    1.380010   -2.285228
     35          1           0       -5.183370   -0.294131   -2.093641
     36          6           0       -3.177959    0.017519   -1.470604
     37          8           0       -3.381562   -0.446720   -0.359186
     38          7           0       -1.928672    0.282336   -1.948274
     39          1           0       -1.794432    0.868095   -2.764380
     40          6           0       -0.775209    0.126826   -1.085801
     41          1           0       -0.949069    0.612808   -0.114588
     42          1           0       -0.590862   -0.933361   -0.875661
     43          6           0        0.431757    0.774137   -1.755148
     44          8           0        0.298602    1.656214   -2.612717
     45          7           0        1.644232    0.327127   -1.360824
     46          1           0        1.706799   -0.297530   -0.568404
     47          6           0        2.858174    0.969787   -1.839325
     48          1           0        3.712135    0.457944   -1.388218
     49          1           0        2.925774    0.852622   -2.925988
     50          6           0        2.891285    2.449642   -1.419665
     51          8           0        2.587482    2.795635   -0.288315
     52          7           0        3.260909    3.326249   -2.398569
     53          1           0        3.402750    2.985127   -3.338821
     54          6           0        3.284797    4.758574   -2.163445
     55          1           0        3.972432    5.236127   -2.865511
     56          1           0        3.663964    4.939370   -1.153435
     57          6           0        1.938518    5.495792   -2.251209
     58          8           0        1.909266    6.713146   -2.177006
     59          7           0        0.810953    4.719636   -2.408180
     60          1           0        0.891493    3.712922   -2.296719
     61          6           0       -0.494751    5.297045   -2.151844
     62          1           0       -0.904523    4.966756   -1.190287
     63          1           0       -0.363185    6.383373   -2.097699
     64          6           0       -1.548435    4.984204   -3.206433
     65          8           0       -2.751374    5.126681   -2.943448
     66          7           0       -1.086357    4.557859   -4.399155
     67          1           0       -0.081032    4.457723   -4.474369
     68          6           0       -1.935122    4.124763   -5.501718
     69          1           0       -1.436120    3.312768   -6.034297
     70          1           0       -2.871520    3.737086   -5.099120
     71          6           0       -2.266498    5.265737   -6.473170
     72          8           0       -3.251363    6.012177   -6.314661
     73          7           0       -1.398129    5.449318   -7.468904
     74          1           0       -0.638744    4.798676   -7.662819
     75          6           0       -1.535290    6.471767   -8.483961
     76          1           0       -1.518706    7.471820   -8.034802
     77          1           0       -2.491213    6.368031   -9.012646
     78          6           0       -0.357581    6.287131   -9.456020
     79          8           0        0.445541    5.365786   -9.297784
     80          7           0       -0.288644    7.182114  -10.454320
     81          1           0       -0.961205    7.936983  -10.574551
     82          6           0        0.742752    7.154123  -11.468824
     83          1           0        1.738178    7.260685  -11.019279
     84          1           0        0.735526    6.198532  -12.008258
     85          6           0        0.458673    8.318256  -12.429739
     86          8           0       -0.507319    9.061459  -12.253592
     87          7           0        1.328442    8.451507  -13.447526
     88          1           0        2.124429    7.832873  -13.582618
     89          6           0        1.211802    9.494531  -14.442113
     90          1           0        1.246340   10.487303  -13.974974
     91          1           0        0.253081    9.425632  -14.972368
     92          6           0        2.379606    9.321736  -15.421658
     93          8           0        3.202198    8.418771  -15.280681
     94          7           0        2.430493   10.220015  -16.428203
     95          1           0        1.743384   10.959375  -16.529236
     96          6           0        3.473672   10.185779  -17.430486
     97          1           0        3.478668    9.232638  -17.973623
     98          1           0        4.468366   10.290783  -16.979843
     99          6           0        3.238398   11.321838  -18.405776
    100          8           0        2.319478   12.108809  -18.328712
    101          8           0        4.176620   11.346059  -19.365715
    102          1           0        3.967402   12.095760  -19.955194
 ---------------------------------------------------------------------

 SCF Done:  E(RB3LYP) =  -2989.02030086     A.U. after    1 cycles

 Alpha  occ. eigenvalues --  -19.26793 -19.23368 -19.23270 -19.23012 -19.22430
 Alpha  occ. eigenvalues --  -19.22294 -19.21445 -19.21226 -19.20840 -19.20318
 Alpha  occ. eigenvalues --  -19.20012 -19.19944 -19.19524 -19.18986 -19.18893
 Alpha  occ. eigenvalues --  -14.52934 -14.47649 -14.47189 -14.47083 -14.46891
 Alpha  occ. eigenvalues --  -14.45727 -14.45570 -14.45533 -14.45052 -14.44639
 Alpha  occ. eigenvalues --  -14.44375 -14.43761 -14.43227 -14.42975 -10.40547
 Alpha  occ. eigenvalues --  -10.40203 -10.39945 -10.39625 -10.39407 -10.39093
 Alpha  occ. eigenvalues --  -10.38256 -10.37929 -10.37826 -10.37638 -10.37227
 Alpha  occ. eigenvalues --  -10.37048 -10.36265 -10.36183 -10.35424 -10.33145
 Alpha  occ. eigenvalues --  -10.33049 -10.32876 -10.32605 -10.32516 -10.32317
 Alpha  occ. eigenvalues --  -10.31743 -10.31715 -10.31469 -10.31318 -10.30509
 Alpha  occ. eigenvalues --  -10.30487 -10.30087  -1.17925  -1.15454  -1.14825
 Alpha  occ. eigenvalues --   -1.14712  -1.14154  -1.13441  -1.13139  -1.12590
 Alpha  occ. eigenvalues --   -1.12176  -1.12095  -1.11930  -1.11528  -1.11205
 Alpha  occ. eigenvalues --   -1.10481  -1.09074  -1.08184  -1.03658  -1.03405
 Alpha  occ. eigenvalues --   -1.03292  -1.03084  -1.01940  -1.01739  -1.01701
 Alpha  occ. eigenvalues --   -1.01057  -1.00920  -1.00267  -0.99903  -0.99781
 Alpha  occ. eigenvalues --   -0.99301  -0.87193  -0.86676  -0.86230  -0.85543
 Alpha  occ. eigenvalues --   -0.84380  -0.83639  -0.83118  -0.82108  -0.80962
 Alpha  occ. eigenvalues --   -0.80243  -0.79107  -0.78208  -0.77477  -0.76430
 Alpha  occ. eigenvalues --   -0.70490  -0.70332  -0.69835  -0.69594  -0.69195
 Alpha  occ. eigenvalues --   -0.68966  -0.68483  -0.68346  -0.68024  -0.67852
 Alpha  occ. eigenvalues --   -0.67287  -0.66762  -0.66702  -0.66466  -0.66173
 Alpha  occ. eigenvalues --   -0.65415  -0.65050  -0.64235  -0.63413  -0.63173
 Alpha  occ. eigenvalues --   -0.62774  -0.61563  -0.61113  -0.60571  -0.59870
 Alpha  occ. eigenvalues --   -0.59691  -0.59028  -0.58867  -0.58475  -0.57739
 Alpha  occ. eigenvalues --   -0.57549  -0.56994  -0.56903  -0.56649  -0.56556
 Alpha  occ. eigenvalues --   -0.56141  -0.56074  -0.55949  -0.55904  -0.55758
 Alpha  occ. eigenvalues --   -0.55143  -0.54862  -0.54680  -0.54544  -0.54297
 Alpha  occ. eigenvalues --   -0.54138  -0.53739  -0.53349  -0.53107  -0.52926
 Alpha  occ. eigenvalues --   -0.52753  -0.52309  -0.52228  -0.52144  -0.51638
 Alpha  occ. eigenvalues --   -0.51512  -0.51361  -0.50964  -0.50850  -0.50681
 Alpha  occ. eigenvalues --   -0.50307  -0.50002  -0.49897  -0.49742  -0.49634
 Alpha  occ. eigenvalues --   -0.49114  -0.48831  -0.48577  -0.48421  -0.48300
 Alpha  occ. eigenvalues --   -0.47813  -0.47704  -0.47616  -0.47574  -0.46958
 Alpha  occ. eigenvalues --   -0.46737  -0.46379  -0.46281  -0.45965  -0.45848
 Alpha  occ. eigenvalues --   -0.45682  -0.45604  -0.45331  -0.44514  -0.43960
 Alpha  occ. eigenvalues --   -0.43656  -0.42155  -0.39043  -0.38845  -0.38481
 Alpha  occ. eigenvalues --   -0.37700  -0.37572  -0.37485  -0.37310  -0.37107
 Alpha  occ. eigenvalues --   -0.36979  -0.36866  -0.36465  -0.35802  -0.35533
 Alpha  occ. eigenvalues --   -0.35087  -0.34782  -0.34633  -0.34514  -0.34254
 Alpha  occ. eigenvalues --   -0.34140  -0.33897  -0.33733  -0.33556  -0.33427
 Alpha  occ. eigenvalues --   -0.33078  -0.33037  -0.32477  -0.32198  -0.31828
 Alpha virt. eigenvalues --   -0.10228  -0.09191  -0.09096  -0.08814  -0.07978
 Alpha virt. eigenvalues --   -0.07252  -0.07069  -0.06616  -0.06144  -0.06086
 Alpha virt. eigenvalues --   -0.05767  -0.05515  -0.04711  -0.03822  -0.03736

 Mulliken charges:
               1
     1  N   -0.759913
     2  H    0.423551
     3  H    0.394387
     4  H    0.448038
     5  C   -0.293444
     6  H    0.256465
     7  H    0.221938
     8  C    0.621223
     9  O   -0.526566
    10  N   -0.580760
    11  H    0.369975
    12  C   -0.242827
    13  H    0.212475
    14  H    0.203197
    15  C    0.599637
    16  O   -0.523841
    17  N   -0.579164
    18  H    0.369838
    19  C   -0.237020
    20  H    0.204650
    21  H    0.188919
    22  C    0.592129
    23  O   -0.527369
    24  N   -0.574160
    25  H    0.381901
    26  C   -0.248888
    27  H    0.178788
    28  H    0.212532
    29  C    0.618585
    30  O   -0.547667
    31  N   -0.599737
    32  H    0.348261
    33  C   -0.220921
    34  H    0.205829
    35  H    0.206358
    36  C    0.583198
    37  O   -0.492845
    38  N   -0.607637
    39  H    0.345790
    40  C   -0.190789
    41  H    0.216557
    42  H    0.189144
    43  C    0.609540
    44  O   -0.562019
    45  N   -0.568104
    46  H    0.358573
    47  C   -0.235630
    48  H    0.203006
    49  H    0.175728
    50  C    0.599731
    51  O   -0.499103
    52  N   -0.600594
    53  H    0.340016
    54  C   -0.233233
    55  H    0.196205
    56  H    0.230494
    57  C    0.597761
    58  O   -0.487880
    59  N   -0.663086
    60  H    0.392683
    61  C   -0.222629
    62  H    0.197101
    63  H    0.230091
    64  C    0.605715
    65  O   -0.583239
    66  N   -0.565775
    67  H    0.356351
    68  C   -0.254142
    69  H    0.192982
    70  H    0.197653
    71  C    0.670676
    72  O   -0.575214
    73  N   -0.587442
    74  H    0.365724
    75  C   -0.198088
    76  H    0.197138
    77  H    0.197955
    78  C    0.610830
    79  O   -0.534890
    80  N   -0.622542
    81  H    0.363192
    82  C   -0.194225
    83  H    0.195576
    84  H    0.196382
    85  C    0.609063
    86  O   -0.532110
    87  N   -0.624445
    88  H    0.362765
    89  C   -0.192897
    90  H    0.196269
    91  H    0.195727
    92  C    0.609330
    93  O   -0.525175
    94  N   -0.626258
    95  H    0.360727
    96  C   -0.177072
    97  H    0.212649
    98  H    0.212733
    99  C    0.569144
   100  O   -0.456587
   101  O   -0.554263
   102  H    0.427319
 Sum of Mulliken charges =   1.00000

 Dipole moment (field-independent basis, Debye):
    X=             -7.3003    Y=             18.9086    Z=            -32.8698  Tot=             38.6168
 Quadrupole moment (field-independent basis, Debye-Ang):
   XX=           -225.3190   YY=           -173.4693   ZZ=             29.1913
   XY=            -26.6086   XZ=              6.1955   YZ=           -219.6811

 Normal termination of Gaussian 16 at Thu Aug 11 11:20:46 2022.
