 Gaussian 16, Revision C.01,
 Gaussian 16:  ES64L-G16RevC.01  3-Jul-2019

 -------------------------------------------------------------------
 # B3LYP/6-31G* guess=read geom=check nosymm integral(ultrafinegrid)
 -------------------------------------------------------------------

 ------------------------------------------------------
 Candidate Structure: Conf:746 Charge calc in gas phase
 ------------------------------------------------------
 Structure from the checkpoint file:  "conf-746.chk"
 Charge =  1 Multiplicity = 1

                          Input orientation:
 ---------------------------------------------------------------------
 Center     Atomic      Atomic             Coordinates (Angstroms)
 Number     Number       Type             X           Y           Z
 ---------------------------------------------------------------------
      1          7           0        7.287946    2.332633   -4.466610
      2          1           0        6.520751    2.569005   -3.782219
      3          1           0        7.448201    3.158535   -5.056494
      4          1           0        8.104560    2.057922   -3.881349
      5          6           0        6.849884    1.210252   -5.338898
      6          1           0        7.711171    0.849484   -5.908442
      7          1           0        6.485970    0.405630   -4.697229
      8          6           0        5.769848    1.776552   -6.275454
      9          8           0        5.747690    2.983400   -6.500363
     10          7           0        4.928457    0.860231   -6.783416
     11          1           0        4.917201   -0.091376   -6.421736
     12          6           0        3.703185    1.192164   -7.487059
     13          1           0        3.840148    1.147741   -8.575559
     14          1           0        3.398042    2.211576   -7.230567
     15          6           0        2.664990    0.142662   -7.052181
     16          8           0        3.037732   -0.886309   -6.486116
     17          7           0        1.374745    0.404632   -7.350060
     18          1           0        1.124372    1.315664   -7.712686
     19          6           0        0.289397   -0.473084   -6.906925
     20          1           0       -0.529976   -0.409499   -7.624710
     21          1           0        0.676820   -1.493183   -6.875650
     22          6           0       -0.244394   -0.027673   -5.535209
     23          8           0       -1.186597    0.767085   -5.458939
     24          7           0        0.438511   -0.512173   -4.473745
     25          1           0        1.033776   -1.333737   -4.615442
     26          6           0       -0.020873   -0.316648   -3.102088
     27          1           0       -1.088322   -0.565476   -3.027247
     28          1           0        0.536999   -0.996014   -2.456729
     29          6           0        0.156184    1.095592   -2.524867
     30          8           0        0.910784    1.329735   -1.569051
     31          7           0       -0.644177    2.056488   -3.032072
     32          1           0       -1.243016    1.799516   -3.816590
     33          6           0       -0.868160    3.272778   -2.273717
     34          1           0        0.055250    3.855671   -2.183391
     35          1           0       -1.604576    3.878888   -2.807863
     36          6           0       -1.442686    2.900118   -0.894193
     37          8           0       -2.370728    2.097737   -0.801949
     38          7           0       -0.865604    3.482382    0.188671
     39          1           0        0.022320    3.948626    0.062648
     40          6           0       -1.225676    3.074652    1.546428
     41          1           0       -0.894709    3.841213    2.247673
     42          1           0       -2.314691    2.989025    1.593035
     43          6           0       -0.565254    1.745696    1.966770
     44          8           0        0.282632    1.707073    2.862829
     45          7           0       -0.980088    0.658976    1.274240
     46          1           0       -1.645640    0.810253    0.519209
     47          6           0       -0.469772   -0.685060    1.520580
     48          1           0       -0.478446   -0.873638    2.600203
     49          1           0       -1.136121   -1.396811    1.032775
     50          6           0        0.949755   -0.944080    0.972513
     51          8           0        1.164020   -1.694341    0.024533
     52          7           0        1.928482   -0.295661    1.666161
     53          1           0        1.626497    0.362512    2.385467
     54          6           0        3.336441   -0.452061    1.370490
     55          1           0        3.432072   -1.246635    0.624824
     56          1           0        3.893946   -0.734946    2.268197
     57          6           0        4.000671    0.815435    0.831089
     58          8           0        5.050196    1.248420    1.343538
     59          7           0        3.384959    1.408139   -0.211189
     60          1           0        2.517774    1.021168   -0.588232
     61          6           0        3.762902    2.713309   -0.735626
     62          1           0        3.020135    2.982244   -1.485960
     63          1           0        3.753754    3.461409    0.067743
     64          6           0        5.141023    2.731037   -1.412802
     65          8           0        5.262498    2.666913   -2.645698
     66          7           0        6.176838    2.854277   -0.553873
     67          1           0        5.938898    2.628831    0.416410
     68          6           0        7.552850    2.717672   -0.981721
     69          1           0        7.753913    3.383101   -1.823435
     70          1           0        8.201931    3.034224   -0.158842
     71          6           0        7.947849    1.288449   -1.392739
     72          8           0        8.622432    1.083029   -2.414228
     73          7           0        7.558244    0.312358   -0.548385
     74          1           0        6.882837    0.529766    0.182921
     75          6           0        7.851611   -1.084417   -0.786137
     76          1           0        8.455876   -1.488311    0.036221
     77          1           0        8.452866   -1.144034   -1.698464
     78          6           0        6.566532   -1.912752   -0.937741
     79          8           0        5.454421   -1.382266   -0.971175
     80          7           0        6.753801   -3.249781   -1.016636
     81          1           0        7.695483   -3.618917   -1.029984
     82          6           0        5.646679   -4.206060   -1.063496
     83          1           0        6.020813   -5.181766   -0.753713
     84          1           0        4.878202   -3.878518   -0.355200
     85          6           0        5.020796   -4.384355   -2.457344
     86          8           0        5.077045   -5.458231   -3.051669
     87          7           0        4.404184   -3.283947   -2.958093
     88          1           0        4.341402   -2.456370   -2.372362
     89          6           0        3.794655   -3.295254   -4.282013
     90          1           0        4.435324   -3.883292   -4.947310
     91          1           0        3.727188   -2.276086   -4.661404
     92          6           0        2.374867   -3.881637   -4.293501
     93          8           0        1.375638   -3.178586   -4.492685
     94          7           0        2.291352   -5.207144   -4.076398
     95          1           0        3.130957   -5.751664   -3.876768
     96          6           0        1.009697   -5.877919   -4.025440
     97          1           0        0.457721   -5.747337   -4.964044
     98          1           0        0.370813   -5.463509   -3.234962
     99          6           0        1.223731   -7.356115   -3.770853
    100          8           0        2.301662   -7.880813   -3.607569
    101          8           0        0.049474   -8.014152   -3.746506
    102          1           0        0.253042   -8.954022   -3.578543
 ---------------------------------------------------------------------

 SCF Done:  E(RB3LYP) =  -2989.03066868     A.U. after    1 cycles

 Alpha  occ. eigenvalues --  -19.26807 -19.24652 -19.24577 -19.23591 -19.23411
 Alpha  occ. eigenvalues --  -19.22735 -19.21626 -19.21369 -19.20813 -19.20302
 Alpha  occ. eigenvalues --  -19.20185 -19.20114 -19.19853 -19.19528 -19.18737
 Alpha  occ. eigenvalues --  -14.54577 -14.48125 -14.47788 -14.47466 -14.47206
 Alpha  occ. eigenvalues --  -14.47111 -14.45334 -14.45177 -14.44587 -14.43699
 Alpha  occ. eigenvalues --  -14.43436 -14.43382 -14.43368 -14.42795 -10.41438
 Alpha  occ. eigenvalues --  -10.41146 -10.40787 -10.40507 -10.39916 -10.39608
 Alpha  occ. eigenvalues --  -10.38217 -10.37519 -10.37471 -10.37298 -10.37257
 Alpha  occ. eigenvalues --  -10.36940 -10.36654 -10.36470 -10.35884 -10.34959
 Alpha  occ. eigenvalues --  -10.34444 -10.33917 -10.33074 -10.32638 -10.31732
 Alpha  occ. eigenvalues --  -10.31594 -10.30811 -10.30744 -10.30736 -10.30271
 Alpha  occ. eigenvalues --  -10.30199 -10.30043  -1.17883  -1.16320  -1.15912
 Alpha  occ. eigenvalues --   -1.15483  -1.14985  -1.14593  -1.12882  -1.12747
 Alpha  occ. eigenvalues --   -1.12216  -1.11872  -1.11362  -1.11132  -1.11049
 Alpha  occ. eigenvalues --   -1.10139  -1.09715  -1.09050  -1.05022  -1.04086
 Alpha  occ. eigenvalues --   -1.03565  -1.03507  -1.02858  -1.01699  -1.01071
 Alpha  occ. eigenvalues --   -1.00759  -1.00381  -0.99797  -0.99630  -0.99465
 Alpha  occ. eigenvalues --   -0.98834  -0.88292  -0.87926  -0.86104  -0.85140
 Alpha  occ. eigenvalues --   -0.84383  -0.83923  -0.83113  -0.82122  -0.81165
 Alpha  occ. eigenvalues --   -0.80368  -0.79239  -0.78406  -0.77494  -0.76284
 Alpha  occ. eigenvalues --   -0.71831  -0.70987  -0.70647  -0.70614  -0.69793
 Alpha  occ. eigenvalues --   -0.69325  -0.69163  -0.68688  -0.68467  -0.67639
 Alpha  occ. eigenvalues --   -0.67161  -0.66927  -0.66408  -0.66016  -0.65811
 Alpha  occ. eigenvalues --   -0.65109  -0.64629  -0.64595  -0.63361  -0.62545
 Alpha  occ. eigenvalues --   -0.61891  -0.61739  -0.61335  -0.60911  -0.60616
 Alpha  occ. eigenvalues --   -0.60347  -0.59645  -0.59366  -0.59238  -0.58885
 Alpha  occ. eigenvalues --   -0.58763  -0.58491  -0.58185  -0.57482  -0.57242
 Alpha  occ. eigenvalues --   -0.56504  -0.56381  -0.56121  -0.55946  -0.55791
 Alpha  occ. eigenvalues --   -0.55442  -0.55135  -0.54980  -0.54952  -0.54494
 Alpha  occ. eigenvalues --   -0.54267  -0.54134  -0.53917  -0.53627  -0.53450
 Alpha  occ. eigenvalues --   -0.53120  -0.52282  -0.52146  -0.51865  -0.51602
 Alpha  occ. eigenvalues --   -0.51368  -0.50843  -0.50641  -0.50445  -0.50278
 Alpha  occ. eigenvalues --   -0.50083  -0.49941  -0.49707  -0.49379  -0.49012
 Alpha  occ. eigenvalues --   -0.48944  -0.48799  -0.48686  -0.48585  -0.48430
 Alpha  occ. eigenvalues --   -0.48085  -0.48066  -0.47753  -0.47525  -0.47370
 Alpha  occ. eigenvalues --   -0.47114  -0.46539  -0.46422  -0.46183  -0.46009
 Alpha  occ. eigenvalues --   -0.45752  -0.45458  -0.45084  -0.44882  -0.44406
 Alpha  occ. eigenvalues --   -0.44175  -0.43977  -0.40768  -0.39398  -0.39051
 Alpha  occ. eigenvalues --   -0.38395  -0.38330  -0.38164  -0.37976  -0.37272
 Alpha  occ. eigenvalues --   -0.37016  -0.36868  -0.36353  -0.36307  -0.36182
 Alpha  occ. eigenvalues --   -0.36006  -0.35749  -0.35262  -0.35152  -0.34903
 Alpha  occ. eigenvalues --   -0.34756  -0.33515  -0.33451  -0.33244  -0.33064
 Alpha  occ. eigenvalues --   -0.32580  -0.32304  -0.32269  -0.31927  -0.31092
 Alpha virt. eigenvalues --   -0.10778  -0.10205  -0.09710  -0.09290  -0.08668
 Alpha virt. eigenvalues --   -0.08112  -0.07756  -0.07408  -0.06748  -0.06237
 Alpha virt. eigenvalues --   -0.06135  -0.05463  -0.05390  -0.04647  -0.04562

 Mulliken charges:
               1
     1  N   -0.787796
     2  H    0.444333
     3  H    0.402121
     4  H    0.428712
     5  C   -0.274721
     6  H    0.232083
     7  H    0.214651
     8  C    0.628555
     9  O   -0.510125
    10  N   -0.599074
    11  H    0.361525
    12  C   -0.216603
    13  H    0.211704
    14  H    0.205851
    15  C    0.615714
    16  O   -0.526330
    17  N   -0.588244
    18  H    0.351432
    19  C   -0.236595
    20  H    0.196393
    21  H    0.214426
    22  C    0.590832
    23  O   -0.531396
    24  N   -0.601414
    25  H    0.403665
    26  C   -0.249965
    27  H    0.192607
    28  H    0.214814
    29  C    0.599576
    30  O   -0.561533
    31  N   -0.566584
    32  H    0.389222
    33  C   -0.218649
    34  H    0.159180
    35  H    0.199598
    36  C    0.622534
    37  O   -0.530574
    38  N   -0.570597
    39  H    0.338947
    40  C   -0.240445
    41  H    0.191768
    42  H    0.209465
    43  C    0.597111
    44  O   -0.533955
    45  N   -0.585354
    46  H    0.383973
    47  C   -0.236865
    48  H    0.192519
    49  H    0.187472
    50  C    0.601564
    51  O   -0.527474
    52  N   -0.603224
    53  H    0.380525
    54  C   -0.235280
    55  H    0.216853
    56  H    0.181977
    57  C    0.622274
    58  O   -0.574320
    59  N   -0.595598
    60  H    0.415883
    61  C   -0.235236
    62  H    0.199023
    63  H    0.185636
    64  C    0.614245
    65  O   -0.554597
    66  N   -0.568633
    67  H    0.384493
    68  C   -0.249136
    69  H    0.176261
    70  H    0.216545
    71  C    0.614633
    72  O   -0.565137
    73  N   -0.571176
    74  H    0.379340
    75  C   -0.245044
    76  H    0.200567
    77  H    0.220153
    78  C    0.609270
    79  O   -0.531656
    80  N   -0.582505
    81  H    0.352963
    82  C   -0.243850
    83  H    0.202982
    84  H    0.207144
    85  C    0.598141
    86  O   -0.507321
    87  N   -0.591120
    88  H    0.372932
    89  C   -0.257527
    90  H    0.192951
    91  H    0.195956
    92  C    0.624413
    93  O   -0.549197
    94  N   -0.608683
    95  H    0.396956
    96  C   -0.181000
    97  H    0.206859
    98  H    0.207807
    99  C    0.563513
   100  O   -0.444755
   101  O   -0.558544
   102  H    0.425192
 Sum of Mulliken charges =   1.00000

 Dipole moment (field-independent basis, Debye):
    X=             23.9554    Y=              3.4387    Z=            -14.7276  Tot=             28.3300
 Quadrupole moment (field-independent basis, Debye-Ang):
   XX=           -143.1214   YY=           -264.4277   ZZ=           -229.9583
   XY=             22.1166   XZ=            -65.1907   YZ=            -13.4340

 Normal termination of Gaussian 16 at Thu Aug 11 11:20:57 2022.
