 Gaussian 16, Revision C.01,
 Gaussian 16:  ES64L-G16RevC.01  3-Jul-2019

 -------------------------------------------------------------------
 # B3LYP/6-31G* guess=read geom=check nosymm integral(ultrafinegrid)
 -------------------------------------------------------------------

 ------------------------------------------------------
 Candidate Structure: Conf:172 Charge calc in gas phase
 ------------------------------------------------------
 Structure from the checkpoint file:  "conf-172.chk"
 Charge =  1 Multiplicity = 1

                          Input orientation:
 ---------------------------------------------------------------------
 Center     Atomic      Atomic             Coordinates (Angstroms)
 Number     Number       Type             X           Y           Z
 ---------------------------------------------------------------------
      1          7           0        0.099463    6.329317    1.127491
      2          1           0       -0.181812    5.834309    1.976337
      3          1           0       -0.663291    6.204909    0.377878
      4          1           0        0.157517    7.343697    1.295033
      5          6           0        1.425831    5.877597    0.603375
      6          1           0        2.097903    5.655105    1.436417
      7          1           0        1.274276    4.975792    0.001353
      8          6           0        1.944962    7.030935   -0.266115
      9          8           0        1.273319    8.062249   -0.352914
     10          7           0        3.129875    6.818605   -0.867572
     11          1           0        3.560149    5.898509   -0.756535
     12          6           0        3.449131    7.529160   -2.091065
     13          1           0        4.529713    7.555840   -2.243193
     14          1           0        3.091090    8.558955   -2.006144
     15          6           0        2.727366    6.836855   -3.268176
     16          8           0        1.700541    6.180950   -3.058900
     17          7           0        3.267221    7.001219   -4.490149
     18          1           0        4.131884    7.532292   -4.579066
     19          6           0        2.761576    6.266782   -5.647808
     20          1           0        3.217255    6.707749   -6.540165
     21          1           0        3.048819    5.211943   -5.599065
     22          6           0        1.231732    6.272222   -5.801899
     23          8           0        0.621475    5.231558   -6.004883
     24          7           0        0.634401    7.499267   -5.745821
     25          1           0        1.198700    8.339990   -5.660997
     26          6           0       -0.799972    7.627723   -5.889892
     27          1           0       -1.049145    8.504677   -6.496509
     28          1           0       -1.173262    6.746305   -6.418303
     29          6           0       -1.602758    7.747160   -4.591758
     30          8           0       -2.827813    7.893029   -4.636460
     31          7           0       -0.913136    7.698839   -3.423821
     32          1           0        0.039066    7.338655   -3.416040
     33          6           0       -1.604364    7.840708   -2.149693
     34          1           0       -0.887896    8.181754   -1.402177
     35          1           0       -2.395303    8.586784   -2.271308
     36          6           0       -2.211203    6.512407   -1.690326
     37          8           0       -1.789938    5.888107   -0.683192
     38          7           0       -3.174236    6.012344   -2.467424
     39          1           0       -3.406285    6.552717   -3.305427
     40          6           0       -3.667594    4.641105   -2.340871
     41          1           0       -3.773544    4.405627   -1.277916
     42          1           0       -4.642674    4.571948   -2.822187
     43          6           0       -2.741656    3.610907   -3.027559
     44          8           0       -3.162334    2.836542   -3.873184
     45          7           0       -1.443923    3.661478   -2.611882
     46          1           0       -1.178433    4.267998   -1.845219
     47          6           0       -0.404371    2.853968   -3.213076
     48          1           0       -0.884139    2.028722   -3.745130
     49          1           0        0.173231    3.439407   -3.945633
     50          6           0        0.554148    2.374409   -2.128224
     51          8           0        0.908000    3.112566   -1.195835
     52          7           0        1.015259    1.111180   -2.257117
     53          1           0        0.706803    0.556758   -3.044310
     54          6           0        1.928009    0.496231   -1.297151
     55          1           0        1.809926   -0.586499   -1.341726
     56          1           0        1.652655    0.846643   -0.297093
     57          6           0        3.410964    0.802132   -1.565057
     58          8           0        4.224776   -0.084113   -1.781744
     59          7           0        3.727273    2.131249   -1.533159
     60          1           0        3.008713    2.810642   -1.301019
     61          6           0        5.075554    2.572936   -1.786577
     62          1           0        5.725071    1.695595   -1.720003
     63          1           0        5.186009    2.978427   -2.806248
     64          6           0        5.504948    3.674538   -0.824332
     65          8           0        4.698628    4.465496   -0.322879
     66          7           0        6.839515    3.736924   -0.593236
     67          1           0        7.443144    3.138655   -1.144145
     68          6           0        7.476116    4.870566    0.039107
     69          1           0        6.685575    5.527367    0.413791
     70          1           0        8.077202    4.546726    0.898629
     71          6           0        8.375938    5.604098   -0.967227
     72          8           0        8.564630    5.150526   -2.097732
     73          7           0        8.949723    6.750453   -0.530297
     74          1           0        8.730557    7.096268    0.394522
     75          6           0        9.933843    7.488639   -1.325441
     76          1           0       10.608488    6.766614   -1.797545
     77          1           0       10.509936    8.130788   -0.659393
     78          6           0        9.309625    8.393312   -2.402971
     79          8           0        9.476255    9.612909   -2.395200
     80          7           0        8.583358    7.742403   -3.346041
     81          1           0        8.512866    6.728633   -3.280662
     82          6           0        7.979521    8.449172   -4.468385
     83          1           0        8.711101    9.144488   -4.894312
     84          1           0        7.700779    7.718414   -5.228126
     85          6           0        6.709022    9.211567   -4.063797
     86          8           0        5.572942    8.765157   -4.307117
     87          7           0        6.915648   10.378091   -3.431492
     88          1           0        7.880337   10.585635   -3.174212
     89          6           0        5.845161   11.172421   -2.830915
     90          1           0        6.290490   11.837830   -2.091929
     91          1           0        5.142221   10.500095   -2.323453
     92          6           0        5.053848   12.068164   -3.805513
     93          8           0        4.935426   13.267848   -3.606914
     94          7           0        4.478149   11.406936   -4.850097
     95          1           0        4.538532   10.392980   -4.881167
     96          6           0        3.610935   12.089216   -5.777415
     97          1           0        4.116453   12.346590   -6.720049
     98          1           0        3.291583   13.037115   -5.331779
     99          6           0        2.402177   11.244135   -6.120863
    100          8           0        2.216829   10.103028   -5.738896
    101          8           0        1.565247   11.905343   -6.932151
    102          1           0        0.817488   11.316179   -7.145311
 ---------------------------------------------------------------------

 SCF Done:  E(RB3LYP) =  -2989.02748088     A.U. after    1 cycles

 Alpha  occ. eigenvalues --  -19.29601 -19.24675 -19.23960 -19.23957 -19.23907
 Alpha  occ. eigenvalues --  -19.23601 -19.23290 -19.22201 -19.21895 -19.21877
 Alpha  occ. eigenvalues --  -19.20088 -19.19507 -19.19236 -19.19140 -19.18382
 Alpha  occ. eigenvalues --  -14.55378 -14.48572 -14.47723 -14.46487 -14.46481
 Alpha  occ. eigenvalues --  -14.46478 -14.46215 -14.46087 -14.45827 -14.44706
 Alpha  occ. eigenvalues --  -14.44125 -14.43679 -14.43664 -14.42936 -10.42528
 Alpha  occ. eigenvalues --  -10.41060 -10.41053 -10.40590 -10.39800 -10.39759
 Alpha  occ. eigenvalues --  -10.39194 -10.38896 -10.38767 -10.37286 -10.36911
 Alpha  occ. eigenvalues --  -10.36871 -10.36768 -10.36373 -10.35954 -10.34633
 Alpha  occ. eigenvalues --  -10.33742 -10.33264 -10.33176 -10.32499 -10.32088
 Alpha  occ. eigenvalues --  -10.32059 -10.31951 -10.31807 -10.31653 -10.31007
 Alpha  occ. eigenvalues --  -10.30724 -10.30567  -1.20802  -1.16107  -1.16023
 Alpha  occ. eigenvalues --   -1.15003  -1.14789  -1.14643  -1.13668  -1.13604
 Alpha  occ. eigenvalues --   -1.13450  -1.12022  -1.11967  -1.11423  -1.11165
 Alpha  occ. eigenvalues --   -1.11000  -1.10316  -1.09866  -1.04335  -1.04001
 Alpha  occ. eigenvalues --   -1.03467  -1.02922  -1.02561  -1.02198  -1.02117
 Alpha  occ. eigenvalues --   -1.01988  -1.01112  -1.00508  -1.00287  -0.99460
 Alpha  occ. eigenvalues --   -0.99213  -0.88057  -0.87391  -0.86346  -0.85603
 Alpha  occ. eigenvalues --   -0.84942  -0.84254  -0.83753  -0.82520  -0.81533
 Alpha  occ. eigenvalues --   -0.80403  -0.79633  -0.78951  -0.77880  -0.76861
 Alpha  occ. eigenvalues --   -0.72106  -0.71418  -0.70912  -0.70478  -0.70343
 Alpha  occ. eigenvalues --   -0.69810  -0.69197  -0.68892  -0.68799  -0.67856
 Alpha  occ. eigenvalues --   -0.67490  -0.66841  -0.66652  -0.66520  -0.66292
 Alpha  occ. eigenvalues --   -0.65876  -0.65691  -0.64195  -0.63735  -0.63265
 Alpha  occ. eigenvalues --   -0.62983  -0.62450  -0.61628  -0.61422  -0.61208
 Alpha  occ. eigenvalues --   -0.60811  -0.60214  -0.59825  -0.59640  -0.59195
 Alpha  occ. eigenvalues --   -0.58868  -0.58451  -0.58108  -0.57875  -0.57775
 Alpha  occ. eigenvalues --   -0.57658  -0.57516  -0.57204  -0.56668  -0.56159
 Alpha  occ. eigenvalues --   -0.56124  -0.55720  -0.55409  -0.55248  -0.54646
 Alpha  occ. eigenvalues --   -0.54428  -0.54139  -0.53766  -0.53729  -0.53189
 Alpha  occ. eigenvalues --   -0.52749  -0.52720  -0.52497  -0.52076  -0.51775
 Alpha  occ. eigenvalues --   -0.51734  -0.51600  -0.51195  -0.51110  -0.50710
 Alpha  occ. eigenvalues --   -0.50687  -0.50502  -0.50172  -0.50121  -0.49493
 Alpha  occ. eigenvalues --   -0.49345  -0.49156  -0.48993  -0.48790  -0.48664
 Alpha  occ. eigenvalues --   -0.48486  -0.48060  -0.47889  -0.47767  -0.47654
 Alpha  occ. eigenvalues --   -0.47636  -0.47505  -0.47362  -0.47209  -0.46914
 Alpha  occ. eigenvalues --   -0.46372  -0.46146  -0.44902  -0.44760  -0.44530
 Alpha  occ. eigenvalues --   -0.44249  -0.43487  -0.42109  -0.39240  -0.38869
 Alpha  occ. eigenvalues --   -0.38798  -0.38561  -0.38434  -0.38380  -0.38057
 Alpha  occ. eigenvalues --   -0.37572  -0.37386  -0.37270  -0.37107  -0.36862
 Alpha  occ. eigenvalues --   -0.36264  -0.36059  -0.35887  -0.35232  -0.35062
 Alpha  occ. eigenvalues --   -0.34844  -0.34193  -0.33603  -0.33444  -0.32935
 Alpha  occ. eigenvalues --   -0.32776  -0.32439  -0.32236  -0.31931  -0.31633
 Alpha virt. eigenvalues --   -0.10120  -0.10023  -0.09780  -0.09606  -0.09250
 Alpha virt. eigenvalues --   -0.08935  -0.08270  -0.08001  -0.07776  -0.06759
 Alpha virt. eigenvalues --   -0.06017  -0.05796  -0.05694  -0.05554  -0.04255

 Mulliken charges:
               1
     1  N   -0.764170
     2  H    0.397692
     3  H    0.459250
     4  H    0.401287
     5  C   -0.314291
     6  H    0.219141
     7  H    0.287328
     8  C    0.626695
     9  O   -0.530441
    10  N   -0.597332
    11  H    0.400731
    12  C   -0.272551
    13  H    0.182218
    14  H    0.221305
    15  C    0.605928
    16  O   -0.538495
    17  N   -0.618907
    18  H    0.397301
    19  C   -0.222358
    20  H    0.183720
    21  H    0.191211
    22  C    0.607888
    23  O   -0.507485
    24  N   -0.638602
    25  H    0.383587
    26  C   -0.226549
    27  H    0.180136
    28  H    0.230118
    29  C    0.598708
    30  O   -0.537287
    31  N   -0.606747
    32  H    0.399750
    33  C   -0.253095
    34  H    0.196830
    35  H    0.208705
    36  C    0.616458
    37  O   -0.606936
    38  N   -0.557987
    39  H    0.398593
    40  C   -0.249885
    41  H    0.198435
    42  H    0.206469
    43  C    0.594171
    44  O   -0.490692
    45  N   -0.613844
    46  H    0.362371
    47  C   -0.213585
    48  H    0.195052
    49  H    0.225812
    50  C    0.615456
    51  O   -0.564983
    52  N   -0.578203
    53  H    0.357345
    54  C   -0.240629
    55  H    0.200432
    56  H    0.196161
    57  C    0.592529
    58  O   -0.493404
    59  N   -0.604753
    60  H    0.364289
    61  C   -0.220266
    62  H    0.212441
    63  H    0.188914
    64  C    0.608674
    65  O   -0.552000
    66  N   -0.559640
    67  H    0.360054
    68  C   -0.247106
    69  H    0.208351
    70  H    0.205381
    71  C    0.611519
    72  O   -0.531202
    73  N   -0.587094
    74  H    0.352011
    75  C   -0.240415
    76  H    0.212426
    77  H    0.203600
    78  C    0.600832
    79  O   -0.517776
    80  N   -0.596972
    81  H    0.384543
    82  C   -0.226631
    83  H    0.203990
    84  H    0.188626
    85  C    0.598373
    86  O   -0.566164
    87  N   -0.565986
    88  H    0.389803
    89  C   -0.248300
    90  H    0.202638
    91  H    0.179876
    92  C    0.593032
    93  O   -0.487706
    94  N   -0.610101
    95  H    0.370627
    96  C   -0.203477
    97  H    0.205737
    98  H    0.235842
    99  C    0.576450
   100  O   -0.478637
   101  O   -0.536083
   102  H    0.421928
 Sum of Mulliken charges =   1.00000

 Dipole moment (field-independent basis, Debye):
    X=             19.2096    Y=             31.7232    Z=             -4.0508  Tot=             37.3065
 Quadrupole moment (field-independent basis, Debye-Ang):
   XX=           -176.3431   YY=           -122.8044   ZZ=           -262.3470
   XY=            119.0671   XZ=            -39.4576   YZ=            -57.5738

 Normal termination of Gaussian 16 at Thu Aug 11 11:20:56 2022.
