 Gaussian 16, Revision C.01,
 Gaussian 16:  ES64L-G16RevC.01  3-Jul-2019

 -------------------------------------------------------------------
 # B3LYP/6-31G* guess=read geom=check nosymm integral(ultrafinegrid)
 -------------------------------------------------------------------

 ------------------------------------------------------
 Candidate Structure: Conf:578 Charge calc in gas phase
 ------------------------------------------------------
 Structure from the checkpoint file:  "conf-578.chk"
 Charge =  1 Multiplicity = 1

                          Input orientation:
 ---------------------------------------------------------------------
 Center     Atomic      Atomic             Coordinates (Angstroms)
 Number     Number       Type             X           Y           Z
 ---------------------------------------------------------------------
      1          7           0       -5.146559    2.042931    2.597766
      2          1           0       -4.961397    1.060055    2.387769
      3          1           0       -5.728677    2.125003    3.453665
      4          1           0       -4.201007    2.543295    2.803269
      5          6           0       -5.929189    2.728059    1.528153
      6          1           0       -5.245217    3.136305    0.781459
      7          1           0       -6.595528    2.007228    1.046291
      8          6           0       -6.760209    3.800858    2.261885
      9          8           0       -7.004087    3.628416    3.455382
     10          7           0       -7.173641    4.837211    1.514336
     11          1           0       -6.728104    5.014744    0.616727
     12          6           0       -7.755029    6.036095    2.101948
     13          1           0       -7.766812    5.923713    3.188894
     14          1           0       -8.788424    6.173734    1.760725
     15          6           0       -6.891877    7.219323    1.639862
     16          8           0       -6.161230    7.101969    0.658007
     17          7           0       -6.996695    8.373935    2.342681
     18          1           0       -7.408940    8.344191    3.265842
     19          6           0       -6.039380    9.437131    2.068137
     20          1           0       -6.132996    9.745414    1.023698
     21          1           0       -6.285789   10.292965    2.702374
     22          6           0       -4.615278    8.961842    2.402179
     23          8           0       -4.399957    8.325971    3.435610
     24          7           0       -3.648130    9.295243    1.515200
     25          1           0       -3.924429    9.624725    0.599618
     26          6           0       -2.265050    8.848044    1.680800
     27          1           0       -1.621853    9.459345    1.047555
     28          1           0       -1.983438    8.989779    2.727789
     29          6           0       -2.082794    7.377346    1.256879
     30          8           0       -1.564687    7.073387    0.191929
     31          7           0       -2.571288    6.479238    2.167655
     32          1           0       -3.121952    6.873820    2.929173
     33          6           0       -2.716864    5.073377    1.859884
     34          1           0       -3.770367    4.825073    1.673361
     35          1           0       -2.142969    4.853786    0.952282
     36          6           0       -2.214042    4.149845    2.966434
     37          8           0       -2.829551    3.095455    3.279121
     38          7           0       -1.097015    4.520616    3.587416
     39          1           0       -0.508595    5.241024    3.153603
     40          6           0       -0.531674    3.789181    4.715727
     41          1           0        0.009723    4.502593    5.339397
     42          1           0       -1.354316    3.358458    5.291525
     43          6           0        0.478746    2.717064    4.278236
     44          8           0        1.661867    2.976889    4.105442
     45          7           0       -0.036124    1.467514    4.083617
     46          1           0       -1.029245    1.324311    4.203407
     47          6           0        0.830150    0.374749    3.660464
     48          1           0        1.696311    0.305384    4.321851
     49          1           0        0.266735   -0.560797    3.731073
     50          6           0        1.393078    0.531746    2.234494
     51          8           0        2.509074    0.123986    1.948810
     52          7           0        0.529885    1.099066    1.342914
     53          1           0       -0.321187    1.513968    1.701957
     54          6           0        0.983101    1.659699    0.077824
     55          1           0        0.537838    1.128647   -0.773062
     56          1           0        2.068230    1.550796    0.030348
     57          6           0        0.510472    3.117520    0.044677
     58          8           0       -0.679150    3.372464    0.254524
     59          7           0        1.473539    4.037917   -0.201993
     60          1           0        2.430759    3.713662   -0.060034
     61          6           0        1.260818    5.473751    0.014311
     62          1           0        1.801375    6.039215   -0.753151
     63          1           0        0.199524    5.705743   -0.053125
     64          6           0        1.792268    5.782978    1.420490
     65          8           0        1.063640    5.892469    2.407001
     66          7           0        3.156343    5.801275    1.509099
     67          1           0        3.649056    5.659196    0.634990
     68          6           0        3.836028    5.207474    2.648658
     69          1           0        4.716548    5.787882    2.942272
     70          1           0        3.135595    5.174597    3.486250
     71          6           0        4.265887    3.774062    2.284624
     72          8           0        3.969599    3.272767    1.185202
     73          7           0        4.972537    3.121956    3.223656
     74          1           0        5.450781    3.692981    3.914598
     75          6           0        5.491964    1.769885    3.002644
     76          1           0        4.742163    1.200417    2.447641
     77          1           0        5.663447    1.298252    3.970879
     78          6           0        6.837451    1.858753    2.271180
     79          8           0        7.909112    1.688095    2.853510
     80          7           0        6.741713    2.232486    0.966088
     81          1           0        5.817131    2.493023    0.632477
     82          6           0        7.903507    2.746033    0.245312
     83          1           0        8.751634    2.083266    0.436533
     84          1           0        7.684268    2.755822   -0.822833
     85          6           0        8.213170    4.188808    0.684866
     86          8           0        7.883859    5.162192    0.018720
     87          7           0        8.852947    4.268389    1.893119
     88          1           0        8.920961    3.407160    2.431667
     89          6           0        9.027176    5.531192    2.564772
     90          1           0        8.810353    6.311930    1.826654
     91          1           0       10.067410    5.656450    2.890832
     92          6           0        8.074732    5.718355    3.755040
     93          8           0        6.951491    5.211881    3.806365
     94          7           0        8.549454    6.517212    4.737343
     95          1           0        9.483991    6.909519    4.704213
     96          6           0        7.765937    6.852955    5.904329
     97          1           0        7.465489    5.954272    6.457525
     98          1           0        6.839513    7.374882    5.632744
     99          6           0        8.596693    7.743591    6.807006
    100          8           0        9.729055    8.098670    6.563773
    101          8           0        7.916661    8.090338    7.913281
    102          1           0        8.507199    8.656100    8.446784
 ---------------------------------------------------------------------

 SCF Done:  E(RB3LYP) =  -2989.00120759     A.U. after    2 cycles

 Alpha  occ. eigenvalues --  -19.27201 -19.25808 -19.24548 -19.23516 -19.21977
 Alpha  occ. eigenvalues --  -19.21804 -19.20525 -19.20407 -19.20240 -19.19835
 Alpha  occ. eigenvalues --  -19.19620 -19.18795 -19.18110 -19.17280 -19.16372
 Alpha  occ. eigenvalues --  -14.56352 -14.49370 -14.47610 -14.46826 -14.46248
 Alpha  occ. eigenvalues --  -14.45301 -14.44585 -14.43660 -14.43518 -14.43333
 Alpha  occ. eigenvalues --  -14.42894 -14.42807 -14.41322 -14.40556 -10.43151
 Alpha  occ. eigenvalues --  -10.40522 -10.40286 -10.39988 -10.39212 -10.39047
 Alpha  occ. eigenvalues --  -10.37570 -10.37480 -10.37132 -10.36628 -10.36289
 Alpha  occ. eigenvalues --  -10.35868 -10.35628 -10.34868 -10.34222 -10.33687
 Alpha  occ. eigenvalues --  -10.33504 -10.32238 -10.32111 -10.32020 -10.30930
 Alpha  occ. eigenvalues --  -10.30733 -10.29732 -10.29628 -10.29428 -10.28639
 Alpha  occ. eigenvalues --  -10.28075 -10.27772  -1.18296  -1.18102  -1.15637
 Alpha  occ. eigenvalues --   -1.15099  -1.13799  -1.12269  -1.12118  -1.12015
 Alpha  occ. eigenvalues --   -1.11162  -1.11092  -1.10914  -1.10535  -1.09849
 Alpha  occ. eigenvalues --   -1.09423  -1.09036  -1.07926  -1.05784  -1.03633
 Alpha  occ. eigenvalues --   -1.03113  -1.02556  -1.01256  -1.00742  -1.00654
 Alpha  occ. eigenvalues --   -0.99667  -0.99245  -0.99123  -0.98785  -0.97628
 Alpha  occ. eigenvalues --   -0.96803  -0.89385  -0.86588  -0.85660  -0.83932
 Alpha  occ. eigenvalues --   -0.83628  -0.83326  -0.82161  -0.81367  -0.80177
 Alpha  occ. eigenvalues --   -0.79270  -0.78339  -0.77168  -0.75755  -0.74168
 Alpha  occ. eigenvalues --   -0.72227  -0.72056  -0.71386  -0.70290  -0.69178
 Alpha  occ. eigenvalues --   -0.68901  -0.68530  -0.67550  -0.66890  -0.66654
 Alpha  occ. eigenvalues --   -0.66248  -0.66017  -0.65602  -0.65191  -0.64903
 Alpha  occ. eigenvalues --   -0.63946  -0.63846  -0.63332  -0.62616  -0.62351
 Alpha  occ. eigenvalues --   -0.62170  -0.61801  -0.60754  -0.60401  -0.59917
 Alpha  occ. eigenvalues --   -0.59516  -0.59395  -0.59074  -0.58312  -0.57596
 Alpha  occ. eigenvalues --   -0.57508  -0.57266  -0.56711  -0.56378  -0.56282
 Alpha  occ. eigenvalues --   -0.55942  -0.55890  -0.55769  -0.55163  -0.55152
 Alpha  occ. eigenvalues --   -0.55051  -0.54220  -0.54011  -0.53834  -0.53457
 Alpha  occ. eigenvalues --   -0.53450  -0.53098  -0.52940  -0.52482  -0.52345
 Alpha  occ. eigenvalues --   -0.52168  -0.51969  -0.51683  -0.51569  -0.50895
 Alpha  occ. eigenvalues --   -0.50642  -0.50555  -0.50287  -0.49922  -0.49678
 Alpha  occ. eigenvalues --   -0.49408  -0.49228  -0.48859  -0.48613  -0.48551
 Alpha  occ. eigenvalues --   -0.48087  -0.47959  -0.47676  -0.47140  -0.47070
 Alpha  occ. eigenvalues --   -0.46910  -0.46680  -0.46618  -0.46324  -0.46280
 Alpha  occ. eigenvalues --   -0.45854  -0.45582  -0.45528  -0.45338  -0.44749
 Alpha  occ. eigenvalues --   -0.44274  -0.43911  -0.43515  -0.42859  -0.42579
 Alpha  occ. eigenvalues --   -0.42379  -0.41735  -0.40482  -0.39438  -0.39432
 Alpha  occ. eigenvalues --   -0.39134  -0.38278  -0.38022  -0.37587  -0.37215
 Alpha  occ. eigenvalues --   -0.36384  -0.35871  -0.35735  -0.35426  -0.34875
 Alpha  occ. eigenvalues --   -0.34549  -0.34352  -0.34008  -0.33323  -0.33245
 Alpha  occ. eigenvalues --   -0.32962  -0.32954  -0.32849  -0.32687  -0.32127
 Alpha  occ. eigenvalues --   -0.31588  -0.31241  -0.30349  -0.30029  -0.28860
 Alpha virt. eigenvalues --   -0.12021  -0.09771  -0.09518  -0.08468  -0.07679
 Alpha virt. eigenvalues --   -0.07582  -0.06862  -0.06507  -0.06478  -0.05870
 Alpha virt. eigenvalues --   -0.05004  -0.04672  -0.04165  -0.03947  -0.03748

 Mulliken charges:
               1
     1  N   -0.771978
     2  H    0.398435
     3  H    0.413582
     4  H    0.453203
     5  C   -0.276250
     6  H    0.225841
     7  H    0.238588
     8  C    0.620634
     9  O   -0.505948
    10  N   -0.578559
    11  H    0.365817
    12  C   -0.244321
    13  H    0.215910
    14  H    0.217645
    15  C    0.617123
    16  O   -0.523735
    17  N   -0.567085
    18  H    0.353610
    19  C   -0.238989
    20  H    0.192389
    21  H    0.204994
    22  C    0.630741
    23  O   -0.541479
    24  N   -0.573647
    25  H    0.355048
    26  C   -0.243837
    27  H    0.197181
    28  H    0.203020
    29  C    0.603556
    30  O   -0.493229
    31  N   -0.605758
    32  H    0.372621
    33  C   -0.251971
    34  H    0.131767
    35  H    0.275280
    36  C    0.645380
    37  O   -0.629237
    38  N   -0.573101
    39  H    0.420687
    40  C   -0.235036
    41  H    0.201757
    42  H    0.177636
    43  C    0.603261
    44  O   -0.492911
    45  N   -0.600042
    46  H    0.337281
    47  C   -0.229370
    48  H    0.211737
    49  H    0.179870
    50  C    0.612604
    51  O   -0.502386
    52  N   -0.587723
    53  H    0.330941
    54  C   -0.207928
    55  H    0.180589
    56  H    0.209800
    57  C    0.586315
    58  O   -0.548469
    59  N   -0.592834
    60  H    0.379209
    61  C   -0.271702
    62  H    0.176803
    63  H    0.247021
    64  C    0.594906
    65  O   -0.529564
    66  N   -0.546302
    67  H    0.339655
    68  C   -0.269822
    69  H    0.212498
    70  H    0.227812
    71  C    0.634058
    72  O   -0.571595
    73  N   -0.571278
    74  H    0.375886
    75  C   -0.258401
    76  H    0.234855
    77  H    0.183676
    78  C    0.594017
    79  O   -0.529939
    80  N   -0.577968
    81  H    0.367348
    82  C   -0.235908
    83  H    0.193352
    84  H    0.182060
    85  C    0.579681
    86  O   -0.512233
    87  N   -0.580180
    88  H    0.371090
    89  C   -0.239169
    90  H    0.221564
    91  H    0.167577
    92  C    0.618753
    93  O   -0.552237
    94  N   -0.607439
    95  H    0.362247
    96  C   -0.175744
    97  H    0.207068
    98  H    0.202563
    99  C    0.569134
   100  O   -0.451565
   101  O   -0.557958
   102  H    0.427153
 Sum of Mulliken charges =   1.00000

 Dipole moment (field-independent basis, Debye):
    X=            -17.2345    Y=             24.5454    Z=             15.1117  Tot=             33.5837
 Quadrupole moment (field-independent basis, Debye-Ang):
   XX=           -143.0704   YY=           -130.1611   ZZ=           -253.8263
   XY=            -57.6673   XZ=             -1.1380   YZ=             86.1951

 Normal termination of Gaussian 16 at Thu Aug 11 11:21:16 2022.
