 Gaussian 16, Revision C.01,
 Gaussian 16:  ES64L-G16RevC.01  3-Jul-2019

 -------------------------------------------------------------------
 # B3LYP/6-31G* guess=read geom=check nosymm integral(ultrafinegrid)
 -------------------------------------------------------------------

 ------------------------------------------------------
 Candidate Structure: Conf:202 Charge calc in gas phase
 ------------------------------------------------------
 Structure from the checkpoint file:  "conf-202.chk"
 Charge =  1 Multiplicity = 1

                          Input orientation:
 ---------------------------------------------------------------------
 Center     Atomic      Atomic             Coordinates (Angstroms)
 Number     Number       Type             X           Y           Z
 ---------------------------------------------------------------------
      1          7           0       -5.687701    6.935511    3.453579
      2          1           0       -5.890524    7.482724    4.294389
      3          1           0       -4.734103    6.440384    3.551395
      4          1           0       -6.433507    6.245642    3.329434
      5          6           0       -5.432230    7.775604    2.232594
      6          1           0       -6.137863    7.506278    1.444880
      7          1           0       -5.554275    8.831717    2.478954
      8          6           0       -3.965619    7.423898    1.855415
      9          8           0       -3.389311    6.601035    2.585907
     10          7           0       -3.461015    8.027098    0.796163
     11          1           0       -3.979223    8.701811    0.222054
     12          6           0       -2.110625    7.825133    0.287912
     13          1           0       -1.948867    6.781058    0.001607
     14          1           0       -1.360689    8.067631    1.046182
     15          6           0       -1.997042    8.755884   -0.935688
     16          8           0       -2.972676    9.436258   -1.270112
     17          7           0       -0.804207    8.750410   -1.548819
     18          1           0       -0.098202    8.076330   -1.234730
     19          6           0       -0.571773    9.469181   -2.785739
     20          1           0       -1.527304    9.874184   -3.132151
     21          1           0        0.109975   10.315272   -2.622394
     22          6           0        0.056506    8.531003   -3.822955
     23          8           0        0.351187    7.375140   -3.547282
     24          7           0        0.325835    9.079991   -5.042248
     25          1           0        0.001679   10.011941   -5.262632
     26          6           0        1.000681    8.287625   -6.065092
     27          1           0        0.466678    7.351921   -6.246776
     28          1           0        1.010507    8.863450   -6.995112
     29          6           0        2.444843    7.903328   -5.686072
     30          8           0        2.936899    6.841129   -6.064891
     31          7           0        3.102951    8.826118   -4.953395
     32          1           0        2.576014    9.595147   -4.550595
     33          6           0        4.334587    8.549174   -4.244702
     34          1           0        4.390908    7.480989   -4.001918
     35          1           0        5.216811    8.806457   -4.845043
     36          6           0        4.320378    9.374302   -2.951134
     37          8           0        3.353766   10.116535   -2.692339
     38          7           0        5.388144    9.235661   -2.154050
     39          1           0        6.121274    8.539540   -2.348414
     40          6           0        5.495413    9.920433   -0.867278
     41          1           0        6.535467    9.871184   -0.546408
     42          1           0        5.188272   10.964138   -0.982810
     43          6           0        4.638808    9.204847    0.185871
     44          8           0        5.117695    8.436703    1.021025
     45          7           0        3.301485    9.440114    0.075742
     46          1           0        2.993520    9.906240   -0.777590
     47          6           0        2.337647    8.689486    0.865386
     48          1           0        2.716374    8.619126    1.890137
     49          1           0        1.389128    9.229329    0.874264
     50          6           0        2.072527    7.274940    0.319170
     51          8           0        0.952046    6.922080   -0.088050
     52          7           0        3.145097    6.461506    0.317884
     53          1           0        4.028394    6.844930    0.656122
     54          6           0        3.098397    5.108653   -0.218127
     55          1           0        2.224590    4.591205    0.188760
     56          1           0        3.997049    4.586887    0.116893
     57          6           0        3.095147    5.073682   -1.758368
     58          8           0        4.106209    5.336443   -2.414822
     59          7           0        1.919081    4.710762   -2.310831
     60          1           0        1.102753    4.685831   -1.718051
     61          6           0        1.740514    4.628561   -3.748441
     62          1           0        0.691553    4.383244   -3.937063
     63          1           0        1.940821    5.592269   -4.215809
     64          6           0        2.603272    3.523905   -4.364003
     65          8           0        2.756649    2.433445   -3.807368
     66          7           0        3.129215    3.831747   -5.571951
     67          1           0        3.083524    4.794669   -5.898169
     68          6           0        3.892307    2.859248   -6.348965
     69          1           0        3.386269    1.890155   -6.278963
     70          1           0        3.912165    3.178938   -7.391139
     71          6           0        5.355331    2.710730   -5.891313
     72          8           0        6.299966    2.951534   -6.630141
     73          7           0        5.506246    2.305459   -4.594332
     74          1           0        4.668301    2.084070   -4.059100
     75          6           0        6.829692    2.151412   -4.029425
     76          1           0        7.467939    1.548439   -4.682286
     77          1           0        6.746181    1.631343   -3.069867
     78          6           0        7.592053    3.462270   -3.811536
     79          8           0        8.821377    3.460120   -3.689576
     80          7           0        6.857156    4.597569   -3.745477
     81          1           0        5.844824    4.547484   -3.723459
     82          6           0        7.482451    5.904919   -3.842179
     83          1           0        8.319416    5.832001   -4.546711
     84          1           0        6.754346    6.611119   -4.241859
     85          6           0        8.002590    6.468088   -2.513571
     86          8           0        7.588350    7.538893   -2.052151
     87          7           0        8.960800    5.719163   -1.921569
     88          1           0        9.185273    4.831229   -2.381015
     89          6           0        9.505445    6.032446   -0.611031
     90          1           0        9.440948    5.155447    0.041298
     91          1           0        8.892846    6.821682   -0.169065
     92          6           0       10.964777    6.509030   -0.569595
     93          8           0       11.496053    6.734502    0.508863
     94          7           0       11.589409    6.638575   -1.773145
     95          1           0       11.048947    6.508273   -2.616441
     96          6           0       12.935938    7.153939   -1.875863
     97          1           0       13.643598    6.377074   -2.197664
     98          1           0       13.246805    7.471928   -0.877194
     99          6           0       13.107858    8.321989   -2.833000
    100          8           0       14.128380    8.958325   -2.939947
    101          8           0       12.007698    8.549702   -3.594353
    102          1           0       12.241212    9.290406   -4.185727
 ---------------------------------------------------------------------

 SCF Done:  E(RB3LYP) =  -2988.99248017     A.U. after    3 cycles

 Alpha  occ. eigenvalues --  -19.28687 -19.24633 -19.22944 -19.21686 -19.21570
 Alpha  occ. eigenvalues --  -19.20921 -19.19858 -19.19794 -19.19294 -19.18963
 Alpha  occ. eigenvalues --  -19.18292 -19.17735 -19.17375 -19.16187 -19.15222
 Alpha  occ. eigenvalues --  -14.62130 -14.50954 -14.46410 -14.46003 -14.44713
 Alpha  occ. eigenvalues --  -14.43980 -14.43767 -14.43701 -14.43671 -14.42166
 Alpha  occ. eigenvalues --  -14.41953 -14.41846 -14.40670 -14.40364 -10.45475
 Alpha  occ. eigenvalues --  -10.42646 -10.40094 -10.38894 -10.38073 -10.37604
 Alpha  occ. eigenvalues --  -10.37112 -10.36809 -10.36779 -10.36420 -10.35557
 Alpha  occ. eigenvalues --  -10.34979 -10.34941 -10.34463 -10.33301 -10.33081
 Alpha  occ. eigenvalues --  -10.32905 -10.31931 -10.31668 -10.31041 -10.30770
 Alpha  occ. eigenvalues --  -10.30224 -10.29245 -10.29115 -10.28129 -10.28034
 Alpha  occ. eigenvalues --  -10.27809 -10.27750  -1.21152  -1.15741  -1.15250
 Alpha  occ. eigenvalues --   -1.14850  -1.13755  -1.12847  -1.12470  -1.11461
 Alpha  occ. eigenvalues --   -1.11143  -1.10896  -1.10335  -1.09502  -1.09103
 Alpha  occ. eigenvalues --   -1.07877  -1.07459  -1.07432  -1.06160  -1.02773
 Alpha  occ. eigenvalues --   -1.02425  -1.01213  -1.00574  -0.99924  -0.99856
 Alpha  occ. eigenvalues --   -0.99600  -0.98853  -0.98306  -0.98039  -0.96634
 Alpha  occ. eigenvalues --   -0.96211  -0.91993  -0.86942  -0.85237  -0.84377
 Alpha  occ. eigenvalues --   -0.83096  -0.82312  -0.81666  -0.80457  -0.79648
 Alpha  occ. eigenvalues --   -0.78820  -0.77531  -0.76547  -0.76090  -0.75920
 Alpha  occ. eigenvalues --   -0.75554  -0.74283  -0.73439  -0.70061  -0.68593
 Alpha  occ. eigenvalues --   -0.68407  -0.67827  -0.67282  -0.66667  -0.66578
 Alpha  occ. eigenvalues --   -0.66152  -0.65657  -0.65119  -0.64939  -0.64376
 Alpha  occ. eigenvalues --   -0.63730  -0.63330  -0.63113  -0.62851  -0.62483
 Alpha  occ. eigenvalues --   -0.62152  -0.61908  -0.60587  -0.60290  -0.59742
 Alpha  occ. eigenvalues --   -0.59289  -0.58993  -0.58741  -0.58612  -0.58184
 Alpha  occ. eigenvalues --   -0.57746  -0.57424  -0.57003  -0.56697  -0.56359
 Alpha  occ. eigenvalues --   -0.55989  -0.55672  -0.55071  -0.54834  -0.54643
 Alpha  occ. eigenvalues --   -0.54224  -0.53866  -0.53671  -0.53051  -0.52941
 Alpha  occ. eigenvalues --   -0.52846  -0.52512  -0.52348  -0.52048  -0.51780
 Alpha  occ. eigenvalues --   -0.51124  -0.50855  -0.50511  -0.50216  -0.50127
 Alpha  occ. eigenvalues --   -0.49969  -0.49731  -0.49501  -0.49062  -0.48831
 Alpha  occ. eigenvalues --   -0.48611  -0.48299  -0.48066  -0.47838  -0.47648
 Alpha  occ. eigenvalues --   -0.47566  -0.47475  -0.47002  -0.46842  -0.46682
 Alpha  occ. eigenvalues --   -0.46306  -0.46186  -0.45873  -0.45425  -0.45259
 Alpha  occ. eigenvalues --   -0.45127  -0.44821  -0.44721  -0.44563  -0.44305
 Alpha  occ. eigenvalues --   -0.43795  -0.43635  -0.43455  -0.43046  -0.42683
 Alpha  occ. eigenvalues --   -0.42264  -0.40836  -0.40791  -0.40166  -0.37671
 Alpha  occ. eigenvalues --   -0.37126  -0.36890  -0.36361  -0.36225  -0.36034
 Alpha  occ. eigenvalues --   -0.36014  -0.35370  -0.35196  -0.34355  -0.34132
 Alpha  occ. eigenvalues --   -0.33478  -0.33384  -0.33327  -0.33043  -0.32957
 Alpha  occ. eigenvalues --   -0.32826  -0.32765  -0.32239  -0.31935  -0.31295
 Alpha  occ. eigenvalues --   -0.30526  -0.29521  -0.29331  -0.28888  -0.28684
 Alpha virt. eigenvalues --   -0.13715  -0.13416  -0.08427  -0.08151  -0.07709
 Alpha virt. eigenvalues --   -0.07529  -0.06918  -0.06309  -0.06081  -0.05843
 Alpha virt. eigenvalues --   -0.05462  -0.04825  -0.04551  -0.03390  -0.03343

 Mulliken charges:
               1
     1  N   -0.751217
     2  H    0.423022
     3  H    0.440986
     4  H    0.423063
     5  C   -0.276913
     6  H    0.248507
     7  H    0.248477
     8  C    0.640332
     9  O   -0.525430
    10  N   -0.606978
    11  H    0.379606
    12  C   -0.206850
    13  H    0.222646
    14  H    0.217539
    15  C    0.587334
    16  O   -0.537522
    17  N   -0.618275
    18  H    0.408737
    19  C   -0.244315
    20  H    0.213202
    21  H    0.200968
    22  C    0.608622
    23  O   -0.501690
    24  N   -0.616287
    25  H    0.346697
    26  C   -0.220010
    27  H    0.202440
    28  H    0.193793
    29  C    0.619733
    30  O   -0.540685
    31  N   -0.581986
    32  H    0.353883
    33  C   -0.222957
    34  H    0.224171
    35  H    0.195912
    36  C    0.610506
    37  O   -0.581139
    38  N   -0.612838
    39  H    0.406137
    40  C   -0.233973
    41  H    0.210887
    42  H    0.189536
    43  C    0.588392
    44  O   -0.522130
    45  N   -0.581103
    46  H    0.375767
    47  C   -0.238243
    48  H    0.206567
    49  H    0.164271
    50  C    0.602635
    51  O   -0.568489
    52  N   -0.575279
    53  H    0.394332
    54  C   -0.231647
    55  H    0.175051
    56  H    0.195267
    57  C    0.617648
    58  O   -0.543702
    59  N   -0.547148
    60  H    0.346298
    61  C   -0.244138
    62  H    0.178198
    63  H    0.210300
    64  C    0.623857
    65  O   -0.550129
    66  N   -0.616117
    67  H    0.395309
    68  C   -0.238925
    69  H    0.192742
    70  H    0.188035
    71  C    0.583421
    72  O   -0.498185
    73  N   -0.623159
    74  H    0.378440
    75  C   -0.217088
    76  H    0.212788
    77  H    0.181162
    78  C    0.618832
    79  O   -0.544596
    80  N   -0.582205
    81  H    0.373957
    82  C   -0.239274
    83  H    0.202469
    84  H    0.170616
    85  C    0.610744
    86  O   -0.545037
    87  N   -0.618266
    88  H    0.388114
    89  C   -0.230447
    90  H    0.191793
    91  H    0.216699
    92  C    0.597474
    93  O   -0.507716
    94  N   -0.591921
    95  H    0.345882
    96  C   -0.224631
    97  H    0.200786
    98  H    0.234898
    99  C    0.579576
   100  O   -0.444358
   101  O   -0.572267
   102  H    0.416208
 Sum of Mulliken charges =   1.00000

 Dipole moment (field-independent basis, Debye):
    X=            -24.1948    Y=             38.9909    Z=              4.5664  Tot=             46.1143
 Quadrupole moment (field-independent basis, Debye-Ang):
   XX=           -268.5876   YY=              0.9278   ZZ=           -260.6164
   XY=           -166.4499   XZ=            -81.4044   YZ=              2.4143

 Normal termination of Gaussian 16 at Thu Aug 11 11:21:43 2022.
