 Gaussian 16, Revision C.01,
 Gaussian 16:  ES64L-G16RevC.01  3-Jul-2019

 -------------------------------------------------------------------
 # B3LYP/6-31G* guess=read geom=check nosymm integral(ultrafinegrid)
 -------------------------------------------------------------------

 -----------------------------------------------------
 Candidate Structure: Conf:12 Charge calc in gas phase
 -----------------------------------------------------
 Structure from the checkpoint file:  "conf-12.chk"
 Charge =  1 Multiplicity = 1

                          Input orientation:
 ---------------------------------------------------------------------
 Center     Atomic      Atomic             Coordinates (Angstroms)
 Number     Number       Type             X           Y           Z
 ---------------------------------------------------------------------
      1          7           0        7.292358    7.576588    4.406654
      2          1           0        6.581293    7.070967    3.784918
      3          1           0        6.772327    8.104365    5.112902
      4          1           0        7.865093    6.824782    4.820146
      5          6           0        8.133304    8.496920    3.585459
      6          1           0        8.776788    9.075335    4.254372
      7          1           0        8.749416    7.894204    2.921415
      8          6           0        7.202875    9.452949    2.840446
      9          8           0        6.282653   10.003283    3.453845
     10          7           0        7.477100    9.630262    1.533731
     11          1           0        8.108238    8.965294    1.084040
     12          6           0        6.828360   10.654023    0.717146
     13          1           0        7.457352   10.846597   -0.152090
     14          1           0        6.763933   11.574059    1.309766
     15          6           0        5.417535   10.339544    0.181249
     16          8           0        5.141969   10.564580   -0.996810
     17          7           0        4.518219    9.875944    1.087251
     18          1           0        4.808364    9.883180    2.063276
     19          6           0        3.079187    9.897111    0.808034
     20          1           0        2.554499    9.830743    1.761018
     21          1           0        2.821249   10.850216    0.328557
     22          6           0        2.529612    8.752800   -0.065532
     23          8           0        1.698656    7.955615    0.370781
     24          7           0        2.954826    8.734727   -1.350816
     25          1           0        3.679282    9.395555   -1.624784
     26          6           0        2.382768    7.808211   -2.304698
     27          1           0        1.312146    8.009026   -2.434050
     28          1           0        2.874432    7.973679   -3.268483
     29          6           0        2.595284    6.338810   -1.911404
     30          8           0        3.650750    5.955016   -1.391638
     31          7           0        1.585700    5.505190   -2.227982
     32          1           0        0.696598    5.861826   -2.561741
     33          6           0        1.595492    4.093118   -1.884295
     34          1           0        1.879231    3.484201   -2.754587
     35          1           0        2.331403    3.923956   -1.098356
     36          6           0        0.180827    3.678596   -1.470989
     37          8           0       -0.803341    4.128176   -2.050424
     38          7           0        0.114599    2.755930   -0.474657
     39          1           0        0.913984    2.660565    0.150440
     40          6           0       -1.180008    2.278743   -0.019219
     41          1           0       -1.864978    3.124678    0.135411
     42          1           0       -1.640525    1.641873   -0.783364
     43          6           0       -1.026008    1.534591    1.300388
     44          8           0       -0.308682    1.951677    2.219143
     45          7           0       -1.755746    0.405298    1.442403
     46          1           0       -2.119416   -0.038386    0.609655
     47          6           0       -1.585763   -0.432395    2.616704
     48          1           0       -1.484702    0.214508    3.490177
     49          1           0       -2.484255   -1.045159    2.743289
     50          6           0       -0.375800   -1.367879    2.449140
     51          8           0       -0.064791   -1.802650    1.348200
     52          7           0        0.253836   -1.710829    3.610394
     53          1           0        0.133510   -1.130424    4.432771
     54          6           0        1.455621   -2.516072    3.593249
     55          1           0        1.691258   -2.737498    2.548196
     56          1           0        1.295132   -3.473861    4.109796
     57          6           0        2.596303   -1.780229    4.301146
     58          8           0        2.387419   -0.879580    5.100832
     59          7           0        3.857530   -2.218567    3.977755
     60          1           0        3.942624   -3.023016    3.369210
     61          6           0        5.035261   -1.799736    4.719781
     62          1           0        4.686616   -1.204536    5.570245
     63          1           0        5.584252   -2.660328    5.113181
     64          6           0        6.039063   -0.956900    3.929953
     65          8           0        7.217151   -0.886253    4.288932
     66          7           0        5.555762   -0.285084    2.856909
     67          1           0        4.569759   -0.355511    2.644826
     68          6           0        6.420350    0.475617    1.964301
     69          1           0        7.318842   -0.117520    1.758301
     70          1           0        5.885792    0.655500    1.031435
     71          6           0        6.827087    1.848444    2.524908
     72          8           0        6.372850    2.893698    2.060863
     73          7           0        7.751379    1.814138    3.528048
     74          1           0        7.920888    0.889724    3.934428
     75          6           0        8.017058    2.991364    4.344661
     76          1           0        8.631403    2.685870    5.196466
     77          1           0        7.085976    3.413549    4.740685
     78          6           0        8.718357    4.156111    3.642842
     79          8           0        8.757421    5.269184    4.177052
     80          7           0        9.264577    3.921493    2.429356
     81          1           0        9.204467    2.984442    2.055223
     82          6           0        9.722123    5.017466    1.591390
     83          1           0       10.452237    5.628067    2.126464
     84          1           0       10.217664    4.600895    0.709735
     85          6           0        8.600900    5.970683    1.129269
     86          8           0        8.892823    7.138741    0.839930
     87          7           0        7.363512    5.447459    1.064144
     88          1           0        7.202628    4.492531    1.383877
     89          6           0        6.176306    6.205294    0.704903
     90          1           0        5.760344    5.857431   -0.244171
     91          1           0        6.465029    7.250416    0.576145
     92          6           0        5.129633    6.115383    1.821670
     93          8           0        5.418574    6.327167    3.019911
     94          7           0        3.902608    5.797039    1.422668
     95          1           0        3.734131    5.670523    0.420239
     96          6           0        2.773195    5.663266    2.317812
     97          1           0        2.070096    6.490287    2.161343
     98          1           0        3.126642    5.699726    3.350559
     99          6           0        2.038138    4.357705    2.062293
    100          8           0        2.381569    3.543306    1.216177
    101          8           0        0.973560    4.237997    2.838632
    102          1           0        0.487749    3.398500    2.598498
 ---------------------------------------------------------------------

 SCF Done:  E(RB3LYP) =  -2989.05177911     A.U. after    2 cycles

 Alpha  occ. eigenvalues --  -19.25349 -19.23401 -19.23195 -19.23055 -19.22192
 Alpha  occ. eigenvalues --  -19.22168 -19.21937 -19.21924 -19.21687 -19.21477
 Alpha  occ. eigenvalues --  -19.20811 -19.19762 -19.19416 -19.18964 -19.18760
 Alpha  occ. eigenvalues --  -14.53087 -14.47678 -14.47113 -14.47013 -14.46746
 Alpha  occ. eigenvalues --  -14.46688 -14.45954 -14.45755 -14.44623 -14.44623
 Alpha  occ. eigenvalues --  -14.44505 -14.43916 -14.43152 -14.42855 -10.40573
 Alpha  occ. eigenvalues --  -10.40316 -10.39942 -10.39674 -10.39320 -10.39230
 Alpha  occ. eigenvalues --  -10.39015 -10.38920 -10.38579 -10.37791 -10.37188
 Alpha  occ. eigenvalues --  -10.36901 -10.36024 -10.35940 -10.35199 -10.33890
 Alpha  occ. eigenvalues --  -10.33617 -10.33509 -10.32730 -10.32406 -10.31885
 Alpha  occ. eigenvalues --  -10.31718 -10.31663 -10.31283 -10.30777 -10.30685
 Alpha  occ. eigenvalues --  -10.30364 -10.29679  -1.17357  -1.15442  -1.15000
 Alpha  occ. eigenvalues --   -1.14688  -1.14014  -1.13849  -1.13556  -1.13537
 Alpha  occ. eigenvalues --   -1.12922  -1.12461  -1.11672  -1.11537  -1.10652
 Alpha  occ. eigenvalues --   -1.10184  -1.08484  -1.08225  -1.04335  -1.03591
 Alpha  occ. eigenvalues --   -1.03141  -1.02902  -1.01930  -1.01911  -1.01558
 Alpha  occ. eigenvalues --   -1.01232  -1.00751  -1.00573  -0.99884  -0.99542
 Alpha  occ. eigenvalues --   -0.99107  -0.87543  -0.86522  -0.86142  -0.85411
 Alpha  occ. eigenvalues --   -0.84518  -0.83785  -0.83082  -0.82047  -0.81215
 Alpha  occ. eigenvalues --   -0.80199  -0.79293  -0.78832  -0.77619  -0.75810
 Alpha  occ. eigenvalues --   -0.71448  -0.70328  -0.70072  -0.69826  -0.69254
 Alpha  occ. eigenvalues --   -0.68882  -0.68539  -0.68396  -0.68082  -0.67954
 Alpha  occ. eigenvalues --   -0.67583  -0.66778  -0.66537  -0.65954  -0.65482
 Alpha  occ. eigenvalues --   -0.65062  -0.64636  -0.64084  -0.63934  -0.63114
 Alpha  occ. eigenvalues --   -0.62632  -0.61944  -0.61720  -0.61543  -0.60135
 Alpha  occ. eigenvalues --   -0.59588  -0.59356  -0.59173  -0.58470  -0.58024
 Alpha  occ. eigenvalues --   -0.57713  -0.57444  -0.57245  -0.57007  -0.56813
 Alpha  occ. eigenvalues --   -0.56468  -0.56170  -0.55981  -0.55915  -0.55618
 Alpha  occ. eigenvalues --   -0.55107  -0.55089  -0.54816  -0.54592  -0.54279
 Alpha  occ. eigenvalues --   -0.54047  -0.53931  -0.53745  -0.53340  -0.53109
 Alpha  occ. eigenvalues --   -0.53003  -0.52554  -0.52445  -0.52056  -0.51586
 Alpha  occ. eigenvalues --   -0.51431  -0.51353  -0.51240  -0.50742  -0.50564
 Alpha  occ. eigenvalues --   -0.50305  -0.50165  -0.50116  -0.49859  -0.49805
 Alpha  occ. eigenvalues --   -0.49577  -0.49213  -0.48836  -0.48552  -0.48536
 Alpha  occ. eigenvalues --   -0.48144  -0.47617  -0.47462  -0.47014  -0.46920
 Alpha  occ. eigenvalues --   -0.46726  -0.46571  -0.46461  -0.46224  -0.45665
 Alpha  occ. eigenvalues --   -0.45539  -0.45129  -0.44913  -0.44740  -0.44328
 Alpha  occ. eigenvalues --   -0.43398  -0.42393  -0.39263  -0.38873  -0.38698
 Alpha  occ. eigenvalues --   -0.38478  -0.38168  -0.38081  -0.37450  -0.36973
 Alpha  occ. eigenvalues --   -0.36812  -0.36372  -0.36217  -0.35788  -0.35697
 Alpha  occ. eigenvalues --   -0.35405  -0.35309  -0.35023  -0.34886  -0.34725
 Alpha  occ. eigenvalues --   -0.34533  -0.34363  -0.34113  -0.33941  -0.33660
 Alpha  occ. eigenvalues --   -0.33244  -0.32965  -0.32362  -0.32083  -0.31635
 Alpha virt. eigenvalues --   -0.10142  -0.09963  -0.09309  -0.08243  -0.08006
 Alpha virt. eigenvalues --   -0.07948  -0.07309  -0.07253  -0.06658  -0.06473
 Alpha virt. eigenvalues --   -0.05896  -0.05867  -0.05591  -0.04462  -0.03317

 Mulliken charges:
               1
     1  N   -0.769293
     2  H    0.449613
     3  H    0.396071
     4  H    0.426409
     5  C   -0.291008
     6  H    0.223545
     7  H    0.241297
     8  C    0.612880
     9  O   -0.536024
    10  N   -0.604836
    11  H    0.403509
    12  C   -0.245107
    13  H    0.206487
    14  H    0.211667
    15  C    0.594666
    16  O   -0.515368
    17  N   -0.600285
    18  H    0.379647
    19  C   -0.239005
    20  H    0.187786
    21  H    0.194841
    22  C    0.601296
    23  O   -0.528837
    24  N   -0.583496
    25  H    0.383343
    26  C   -0.221237
    27  H    0.179677
    28  H    0.193763
    29  C    0.639010
    30  O   -0.566525
    31  N   -0.585564
    32  H    0.358923
    33  C   -0.226128
    34  H    0.190175
    35  H    0.213655
    36  C    0.597518
    37  O   -0.519391
    38  N   -0.639818
    39  H    0.383030
    40  C   -0.181265
    41  H    0.213516
    42  H    0.177713
    43  C    0.607416
    44  O   -0.554057
    45  N   -0.559277
    46  H    0.356720
    47  C   -0.248787
    48  H    0.197360
    49  H    0.202589
    50  C    0.609439
    51  O   -0.510246
    52  N   -0.586320
    53  H    0.354404
    54  C   -0.235881
    55  H    0.205071
    56  H    0.198719
    57  C    0.593977
    58  O   -0.495113
    59  N   -0.621865
    60  H    0.346818
    61  C   -0.227956
    62  H    0.232770
    63  H    0.204661
    64  C    0.602292
    65  O   -0.533194
    66  N   -0.575200
    67  H    0.362520
    68  C   -0.231765
    69  H    0.196961
    70  H    0.199726
    71  C    0.576429
    72  O   -0.511285
    73  N   -0.617451
    74  H    0.393353
    75  C   -0.224047
    76  H    0.208260
    77  H    0.206707
    78  C    0.631469
    79  O   -0.568572
    80  N   -0.587791
    81  H    0.356991
    82  C   -0.226340
    83  H    0.210889
    84  H    0.202817
    85  C    0.608701
    86  O   -0.559987
    87  N   -0.598034
    88  H    0.403718
    89  C   -0.263336
    90  H    0.226396
    91  H    0.191846
    92  C    0.629676
    93  O   -0.601885
    94  N   -0.588430
    95  H    0.422273
    96  C   -0.239392
    97  H    0.239013
    98  H    0.210452
    99  C    0.587830
   100  O   -0.498879
   101  O   -0.583040
   102  H    0.463015
 Sum of Mulliken charges =   1.00000

 Dipole moment (field-independent basis, Debye):
    X=             26.4280    Y=             15.9133    Z=             12.8853  Tot=             33.4321
 Quadrupole moment (field-independent basis, Debye-Ang):
   XX=           -102.6424   YY=           -152.6304   ZZ=           -268.0099
   XY=            135.9153   XZ=             78.6720   YZ=             37.7380

 Normal termination of Gaussian 16 at Thu Aug 11 11:21:22 2022.
