 Gaussian 16, Revision C.01,
 Gaussian 16:  ES64L-G16RevC.01  3-Jul-2019

 -------------------------------------------------------------------
 # B3LYP/6-31G* guess=read geom=check nosymm integral(ultrafinegrid)
 -------------------------------------------------------------------

 ------------------------------------------------------
 Candidate Structure: Conf:205 Charge calc in gas phase
 ------------------------------------------------------
 Structure from the checkpoint file:  "conf-205.chk"
 Charge =  1 Multiplicity = 1

                          Input orientation:
 ---------------------------------------------------------------------
 Center     Atomic      Atomic             Coordinates (Angstroms)
 Number     Number       Type             X           Y           Z
 ---------------------------------------------------------------------
      1          7           0        4.027025    5.190776   -4.159568
      2          1           0        4.613588    5.902151   -3.670953
      3          1           0        4.531229    4.261425   -4.210260
      4          1           0        3.175526    5.031809   -3.599482
      5          6           0        3.601858    5.702814   -5.486055
      6          1           0        3.620980    6.794571   -5.445410
      7          1           0        4.297855    5.348320   -6.250551
      8          6           0        2.167832    5.223537   -5.741769
      9          8           0        1.566717    4.575041   -4.888581
     10          7           0        1.631559    5.602421   -6.925770
     11          1           0        2.190229    6.155281   -7.563517
     12          6           0        0.249128    5.324948   -7.285391
     13          1           0       -0.080149    4.453498   -6.714583
     14          1           0        0.183152    5.069357   -8.346266
     15          6           0       -0.744616    6.464945   -7.028939
     16          8           0       -1.893005    6.381084   -7.462338
     17          7           0       -0.286846    7.538229   -6.336711
     18          1           0        0.569439    7.500125   -5.790165
     19          6           0       -1.177200    8.652921   -6.058688
     20          1           0       -0.575846    9.528146   -5.807132
     21          1           0       -1.760403    8.868350   -6.957270
     22          6           0       -2.102710    8.358850   -4.874893
     23          8           0       -1.800365    8.702429   -3.713449
     24          7           0       -3.234542    7.702110   -5.174904
     25          1           0       -3.289608    7.302385   -6.110311
     26          6           0       -4.287376    7.402921   -4.204298
     27          1           0       -4.459595    8.298120   -3.598212
     28          1           0       -5.197482    7.165613   -4.754968
     29          6           0       -3.983064    6.205588   -3.286657
     30          8           0       -4.611938    5.149927   -3.367518
     31          7           0       -2.998571    6.421525   -2.379886
     32          1           0       -2.461589    7.282678   -2.450911
     33          6           0       -2.619888    5.401279   -1.411921
     34          1           0       -2.022186    5.870405   -0.629616
     35          1           0       -3.528201    4.979392   -0.970032
     36          6           0       -1.769643    4.297896   -2.053992
     37          8           0       -0.540861    4.318504   -2.003761
     38          7           0       -2.466740    3.312838   -2.684510
     39          1           0       -3.438246    3.533908   -2.904698
     40          6           0       -1.748566    2.353573   -3.512793
     41          1           0       -2.476132    1.839618   -4.148418
     42          1           0       -1.021796    2.856507   -4.158570
     43          6           0       -0.963754    1.284558   -2.741889
     44          8           0       -0.004865    0.725051   -3.269724
     45          7           0       -1.423558    0.945417   -1.512563
     46          1           0       -2.127103    1.524262   -1.076532
     47          6           0       -0.765312   -0.093119   -0.745985
     48          1           0       -1.442872   -0.412477    0.052199
     49          1           0       -0.587562   -0.949935   -1.401815
     50          6           0        0.542140    0.375365   -0.079429
     51          8           0        0.633442    1.462827    0.477360
     52          7           0        1.539049   -0.555339   -0.097413
     53          1           0        1.506611   -1.287947   -0.796789
     54          6           0        2.842258   -0.304961    0.480717
     55          1           0        2.921937   -0.739285    1.487244
     56          1           0        2.987749    0.776761    0.578427
     57          6           0        3.925406   -0.882204   -0.432765
     58          8           0        3.672166   -1.234882   -1.585657
     59          7           0        5.178810   -0.960676    0.087706
     60          1           0        5.309052   -0.759336    1.070573
     61          6           0        6.241673   -1.673680   -0.622461
     62          1           0        7.119270   -1.702388    0.029931
     63          1           0        5.942674   -2.703142   -0.838284
     64          6           0        6.650407   -1.067403   -1.973915
     65          8           0        7.109675   -1.776952   -2.852935
     66          7           0        6.497373    0.286460   -2.091338
     67          1           0        6.039489    0.794608   -1.343452
     68          6           0        6.622821    0.957251   -3.372078
     69          1           0        7.448591    1.674706   -3.386158
     70          1           0        6.826266    0.185952   -4.123261
     71          6           0        5.348777    1.736766   -3.696684
     72          8           0        5.428618    2.885364   -4.165593
     73          7           0        4.186627    1.113231   -3.417208
     74          1           0        4.239804    0.201475   -2.967424
     75          6           0        2.971550    1.850813   -3.156929
     76          1           0        2.138913    1.148705   -3.058106
     77          1           0        2.717717    2.508282   -3.993174
     78          6           0        3.114184    2.676479   -1.860491
     79          8           0        4.126816    2.595446   -1.143952
     80          7           0        2.095302    3.509444   -1.574299
     81          1           0        1.239709    3.504374   -2.127381
     82          6           0        1.990058    4.200473   -0.288345
     83          1           0        0.936344    4.378429   -0.092822
     84          1           0        2.393921    3.558329    0.499736
     85          6           0        2.704922    5.552385   -0.284709
     86          8           0        2.150126    6.598769    0.045695
     87          7           0        4.008634    5.515100   -0.694522
     88          1           0        4.451593    4.602249   -0.786976
     89          6           0        4.806370    6.733591   -0.674117
     90          1           0        5.860487    6.467870   -0.766871
     91          1           0        4.650939    7.269450    0.268157
     92          6           0        4.451772    7.621062   -1.876583
     93          8           0        5.008372    7.466210   -2.975887
     94          7           0        3.492760    8.543430   -1.655337
     95          1           0        2.947256    8.432000   -0.803302
     96          6           0        3.016622    9.446905   -2.693926
     97          1           0        3.802747    9.527150   -3.445762
     98          1           0        2.820353   10.425829   -2.251344
     99          6           0        1.743384    8.932749   -3.375260
    100          8           0        1.761551    8.109589   -4.284586
    101          8           0        0.656883    9.481787   -2.862099
    102          1           0       -0.192086    9.141388   -3.273082
 ---------------------------------------------------------------------

 SCF Done:  E(RB3LYP) =  -2989.05521540     A.U. after    2 cycles

 Alpha  occ. eigenvalues --  -19.28543 -19.24926 -19.24812 -19.24578 -19.23044
 Alpha  occ. eigenvalues --  -19.22278 -19.22240 -19.22151 -19.22143 -19.22050
 Alpha  occ. eigenvalues --  -19.21557 -19.21373 -19.20167 -19.19994 -19.18736
 Alpha  occ. eigenvalues --  -14.52450 -14.49194 -14.47629 -14.47219 -14.46712
 Alpha  occ. eigenvalues --  -14.46638 -14.45612 -14.45604 -14.45554 -14.45314
 Alpha  occ. eigenvalues --  -14.44990 -14.44736 -14.44707 -14.43861 -10.42827
 Alpha  occ. eigenvalues --  -10.42156 -10.40696 -10.39965 -10.39548 -10.39318
 Alpha  occ. eigenvalues --  -10.38663 -10.38616 -10.38560 -10.38558 -10.38078
 Alpha  occ. eigenvalues --  -10.37551 -10.37279 -10.36483 -10.36355 -10.34069
 Alpha  occ. eigenvalues --  -10.33623 -10.33262 -10.32954 -10.32945 -10.32329
 Alpha  occ. eigenvalues --  -10.32165 -10.31877 -10.31707 -10.31670 -10.31285
 Alpha  occ. eigenvalues --  -10.30747 -10.30725  -1.20163  -1.16951  -1.15610
 Alpha  occ. eigenvalues --   -1.14662  -1.14221  -1.14014  -1.13937  -1.13841
 Alpha  occ. eigenvalues --   -1.13077  -1.12967  -1.12570  -1.12318  -1.11500
 Alpha  occ. eigenvalues --   -1.11446  -1.10886  -1.08129  -1.05419  -1.03806
 Alpha  occ. eigenvalues --   -1.03260  -1.02572  -1.02562  -1.02324  -1.02103
 Alpha  occ. eigenvalues --   -1.01874  -1.01611  -1.00969  -1.00893  -1.00485
 Alpha  occ. eigenvalues --   -0.99477  -0.88225  -0.86711  -0.86657  -0.85816
 Alpha  occ. eigenvalues --   -0.84974  -0.84341  -0.83235  -0.82624  -0.81529
 Alpha  occ. eigenvalues --   -0.80643  -0.79844  -0.78878  -0.77701  -0.76780
 Alpha  occ. eigenvalues --   -0.72713  -0.71723  -0.70664  -0.70149  -0.69869
 Alpha  occ. eigenvalues --   -0.69289  -0.68925  -0.68750  -0.68445  -0.67934
 Alpha  occ. eigenvalues --   -0.67678  -0.67211  -0.66974  -0.66848  -0.66595
 Alpha  occ. eigenvalues --   -0.66263  -0.65110  -0.64089  -0.63621  -0.63298
 Alpha  occ. eigenvalues --   -0.62897  -0.62530  -0.62134  -0.61790  -0.61085
 Alpha  occ. eigenvalues --   -0.60540  -0.60274  -0.60146  -0.59403  -0.59195
 Alpha  occ. eigenvalues --   -0.59046  -0.58578  -0.58400  -0.58012  -0.57888
 Alpha  occ. eigenvalues --   -0.57779  -0.57226  -0.57053  -0.56761  -0.56418
 Alpha  occ. eigenvalues --   -0.56197  -0.55545  -0.55236  -0.54765  -0.54679
 Alpha  occ. eigenvalues --   -0.54082  -0.53549  -0.53375  -0.53226  -0.53105
 Alpha  occ. eigenvalues --   -0.52991  -0.52619  -0.52462  -0.52279  -0.52123
 Alpha  occ. eigenvalues --   -0.51975  -0.51859  -0.51309  -0.50984  -0.50851
 Alpha  occ. eigenvalues --   -0.50832  -0.50469  -0.50361  -0.50107  -0.50035
 Alpha  occ. eigenvalues --   -0.49775  -0.49695  -0.49398  -0.49190  -0.48824
 Alpha  occ. eigenvalues --   -0.48783  -0.48708  -0.48623  -0.48357  -0.47990
 Alpha  occ. eigenvalues --   -0.47687  -0.47490  -0.47155  -0.46935  -0.46759
 Alpha  occ. eigenvalues --   -0.46577  -0.45844  -0.45597  -0.45257  -0.44766
 Alpha  occ. eigenvalues --   -0.43905  -0.43544  -0.41837  -0.40258  -0.39860
 Alpha  occ. eigenvalues --   -0.39690  -0.39100  -0.38613  -0.38231  -0.37650
 Alpha  occ. eigenvalues --   -0.37586  -0.37216  -0.36993  -0.36552  -0.36504
 Alpha  occ. eigenvalues --   -0.36311  -0.36197  -0.35704  -0.35486  -0.35137
 Alpha  occ. eigenvalues --   -0.35042  -0.34667  -0.34477  -0.34324  -0.34072
 Alpha  occ. eigenvalues --   -0.33557  -0.33255  -0.33023  -0.32893  -0.32357
 Alpha virt. eigenvalues --   -0.11152  -0.10494  -0.10055  -0.08943  -0.08741
 Alpha virt. eigenvalues --   -0.08541  -0.08371  -0.08155  -0.07918  -0.07702
 Alpha virt. eigenvalues --   -0.06797  -0.06613  -0.06124  -0.05047  -0.03999

 Mulliken charges:
               1
     1  N   -0.819835
     2  H    0.433990
     3  H    0.449672
     4  H    0.402348
     5  C   -0.266390
     6  H    0.242373
     7  H    0.222799
     8  C    0.620753
     9  O   -0.507076
    10  N   -0.603493
    11  H    0.354534
    12  C   -0.234649
    13  H    0.229241
    14  H    0.213369
    15  C    0.602879
    16  O   -0.522600
    17  N   -0.611890
    18  H    0.395382
    19  C   -0.242003
    20  H    0.190582
    21  H    0.207413
    22  C    0.624120
    23  O   -0.568365
    24  N   -0.570067
    25  H    0.389515
    26  C   -0.240803
    27  H    0.206382
    28  H    0.208321
    29  C    0.596856
    30  O   -0.519735
    31  N   -0.587715
    32  H    0.380346
    33  C   -0.232529
    34  H    0.198122
    35  H    0.193911
    36  C    0.589403
    37  O   -0.517641
    38  N   -0.607448
    39  H    0.383602
    40  C   -0.233692
    41  H    0.198548
    42  H    0.198686
    43  C    0.614390
    44  O   -0.532540
    45  N   -0.560756
    46  H    0.348957
    47  C   -0.238050
    48  H    0.194168
    49  H    0.186607
    50  C    0.609636
    51  O   -0.519383
    52  N   -0.593471
    53  H    0.357809
    54  C   -0.215458
    55  H    0.180372
    56  H    0.224237
    57  C    0.599752
    58  O   -0.526762
    59  N   -0.610923
    60  H    0.348192
    61  C   -0.228475
    62  H    0.194240
    63  H    0.215259
    64  C    0.605904
    65  O   -0.490874
    66  N   -0.608448
    67  H    0.351130
    68  C   -0.218140
    69  H    0.189647
    70  H    0.228259
    71  C    0.603750
    72  O   -0.578504
    73  N   -0.561738
    74  H    0.398919
    75  C   -0.303244
    76  H    0.256480
    77  H    0.191080
    78  C    0.604146
    79  O   -0.573680
    80  N   -0.612900
    81  H    0.403592
    82  C   -0.224329
    83  H    0.210867
    84  H    0.205880
    85  C    0.587480
    86  O   -0.522397
    87  N   -0.615512
    88  H    0.375971
    89  C   -0.222980
    90  H    0.194905
    91  H    0.193178
    92  C    0.596981
    93  O   -0.555746
    94  N   -0.560897
    95  H    0.382853
    96  C   -0.204291
    97  H    0.210828
    98  H    0.202774
    99  C    0.579003
   100  O   -0.507179
   101  O   -0.565081
   102  H    0.457294
 Sum of Mulliken charges =   1.00000

 Dipole moment (field-independent basis, Debye):
    X=              7.3408    Y=             24.8856    Z=            -13.4451  Tot=             29.2224
 Quadrupole moment (field-independent basis, Debye-Ang):
   XX=           -260.0265   YY=           -135.0968   ZZ=           -228.6984
   XY=             33.5632   XZ=              0.8334   YZ=           -129.3623

 Normal termination of Gaussian 16 at Thu Aug 11 11:21:34 2022.
