 Gaussian 16, Revision C.01,
 Gaussian 16:  ES64L-G16RevC.01  3-Jul-2019

 ----------------------------------------------------------------------
 # B3LYP/6-31G* empiricaldispersion=gd3 guess=read geom=check nosymm in
 tegral(ultrafinegrid)
 ----------------------------------------------------------------------

 ------------------------------------------------------
 Candidate Structure: Conf:961 Charge calc in gas phase
 ------------------------------------------------------
 Structure from the checkpoint file:  "conf-961.chk"
 Charge =  1 Multiplicity = 1

                          Input orientation:
 ---------------------------------------------------------------------
 Center     Atomic      Atomic             Coordinates (Angstroms)
 Number     Number       Type             X           Y           Z
 ---------------------------------------------------------------------
      1          7           0       -4.465057    1.211235    2.559279
      2          1           0       -5.278039    0.853775    2.061014
      3          1           0       -3.921956    0.393106    2.834316
      4          6           0       -3.659364    2.043290    1.682934
      5          1           0       -4.319977    2.777048    1.209355
      6          6           0       -2.916747    1.283887    0.581442
      7          6           0       -2.589384    2.801922    2.515039
      8          1           0       -2.198561    2.111749    3.270859
      9          1           0       -1.741384    3.092788    1.885409
     10          8           0       -2.605299    0.089439    0.708876
     11          6           0       -3.174681    4.038262    3.195803
     12          1           0       -2.508989    4.416195    3.979796
     13          1           0       -4.116000    3.778468    3.695400
     14          6           0       -3.463091    5.218187    2.287688
     15          8           0       -3.889408    6.284779    2.653449
     16          8           0       -3.192827    4.979615    0.958025
     17          7           0       -2.556253    2.028876   -0.498128
     18          1           0       -2.700914    3.032062   -0.431512
     19          6           0       -1.636277    1.530135   -1.524350
     20          1           0       -1.892046    0.478092   -1.681330
     21          6           0       -0.182799    1.601873   -0.982511
     22          6           0       -1.788157    2.281552   -2.840801
     23          1           0       -1.487880    3.329172   -2.688706
     24          1           0       -2.849789    2.294806   -3.114804
     25          8           0        0.654114    2.440900   -1.338730
     26          6           0       -0.990784    1.656362   -3.955383
     27          6           0        0.009416    0.710073   -3.897988
     28          1           0        0.449705    0.190944   -3.055259
     29          6           0       -1.149244    1.997442   -5.348034
     30          6           0       -0.197538    1.232610   -6.084085
     31          6           0       -1.960862    2.922117   -6.033344
     32          1           0       -2.703873    3.508525   -5.498834
     33          7           0        0.492043    0.466373   -5.170959
     34          1           0        1.158622   -0.256351   -5.397647
     35          6           0       -0.841015    2.309568   -8.113223
     36          1           0       -0.746192    2.437815   -9.187470
     37          6           0       -0.032283    1.379122   -7.464702
     38          1           0        0.691172    0.783175   -8.014374
     39          6           0       -1.794042    3.075637   -7.406867
     40          1           0       -2.416943    3.780904   -7.948881
     41          7           0        0.016372    0.647703   -0.058863
     42          1           0       -0.794196    0.070458    0.152788
     43          6           0        1.234247    0.384974    0.669850
     44          1           0        1.498970    1.259840    1.276762
     45          6           0        2.351788    0.098035   -0.348126
     46          6           0        0.965585   -0.790221    1.652789
     47          1           0        0.683471   -1.668749    1.051296
     48          8           0        2.139890   -0.434452   -1.435807
     49          6           0        2.188754   -1.116684    2.498515
     50          1           0        3.040924   -1.419926    1.883098
     51          1           0        1.944413   -1.930384    3.185429
     52          1           0        2.477204   -0.246238    3.099019
     53          8           0       -0.074510   -0.425274    2.550088
     54          1           0       -0.943500   -0.542196    2.129304
     55          7           0        3.568548    0.547489    0.044776
     56          1           0        3.693788    0.876735    0.995345
     57          6           0        4.769604    0.550305   -0.771888
     58          1           0        4.700665   -0.254609   -1.510178
     59          6           0        5.961847    0.315184    0.145560
     60          6           0        4.890784    1.936115   -1.472908
     61          1           0        5.896149    2.074225   -1.886217
     62          1           0        4.755980    2.693665   -0.689230
     63          8           0        5.924443    0.423664    1.350836
     64          6           0        3.819010    2.099879   -2.568269
     65          1           0        4.232824    1.823156   -3.547186
     66          1           0        2.985677    1.420641   -2.388139
     67          6           0        3.230033    3.512899   -2.609560
     68          1           0        2.798277    3.742164   -1.633087
     69          1           0        3.972662    4.287818   -2.832492
     70          7           0        2.122695    3.608031   -3.568392
     71          1           0        1.243400    3.217371   -3.222105
     72          7           0        3.446288    4.084236   -5.427455
     73          1           0        3.528465    4.600341   -6.291155
     74          1           0        4.295763    3.892830   -4.920373
     75          7           0        1.149445    4.114867   -5.623513
     76          1           0        0.239849    3.875970   -5.240970
     77          1           0        1.206613    3.867702   -6.605773
     78          6           0        2.238160    3.911504   -4.855846
     79          8           0        7.069327    0.024038   -0.559527
     80          1           0        7.803642   -0.078403    0.076448
     81          1           0       -3.423834    5.811490    0.502017
 ---------------------------------------------------------------------

 SCF Done:  E(RB3LYP) =  -2054.07531094     A.U. after    1 cycles

 Alpha  occ. eigenvalues --  -19.29587 -19.28032 -19.24104 -19.22629 -19.22468
 Alpha  occ. eigenvalues --  -19.22337 -19.21342 -19.21337 -14.51597 -14.50668
 Alpha  occ. eigenvalues --  -14.49824 -14.47997 -14.46455 -14.45916 -14.45297
 Alpha  occ. eigenvalues --  -14.39291 -10.47205 -10.42096 -10.39756 -10.38932
 Alpha  occ. eigenvalues --  -10.38590 -10.38381 -10.34769 -10.34235 -10.33599
 Alpha  occ. eigenvalues --  -10.33178 -10.32403 -10.32117 -10.31673 -10.30744
 Alpha  occ. eigenvalues --  -10.30157 -10.29940 -10.29586 -10.29142 -10.28781
 Alpha  occ. eigenvalues --  -10.28680 -10.28638 -10.28561 -10.28127 -10.27533
 Alpha  occ. eigenvalues --  -10.27339 -10.25469  -1.20573  -1.18128  -1.15753
 Alpha  occ. eigenvalues --   -1.14404  -1.13512  -1.12866  -1.11761  -1.10149
 Alpha  occ. eigenvalues --   -1.09123  -1.07992  -1.05098  -1.03864  -1.03195
 Alpha  occ. eigenvalues --   -1.02806  -1.02061  -0.97007  -0.94010  -0.91336
 Alpha  occ. eigenvalues --   -0.91086  -0.88161  -0.87251  -0.86225  -0.85276
 Alpha  occ. eigenvalues --   -0.83534  -0.81804  -0.80904  -0.79984  -0.79053
 Alpha  occ. eigenvalues --   -0.77113  -0.75465  -0.73352  -0.72903  -0.72192
 Alpha  occ. eigenvalues --   -0.72032  -0.71434  -0.69304  -0.69108  -0.68772
 Alpha  occ. eigenvalues --   -0.68599  -0.68220  -0.67368  -0.67142  -0.65385
 Alpha  occ. eigenvalues --   -0.64695  -0.63951  -0.63233  -0.62846  -0.62158
 Alpha  occ. eigenvalues --   -0.61003  -0.60040  -0.59759  -0.59635  -0.58839
 Alpha  occ. eigenvalues --   -0.58454  -0.57951  -0.57836  -0.57441  -0.56970
 Alpha  occ. eigenvalues --   -0.56584  -0.56151  -0.55966  -0.55335  -0.55135
 Alpha  occ. eigenvalues --   -0.55012  -0.53938  -0.53652  -0.53439  -0.53059
 Alpha  occ. eigenvalues --   -0.52778  -0.52302  -0.52203  -0.51767  -0.51275
 Alpha  occ. eigenvalues --   -0.50915  -0.50254  -0.49978  -0.49745  -0.49412
 Alpha  occ. eigenvalues --   -0.48958  -0.48634  -0.48093  -0.47920  -0.47705
 Alpha  occ. eigenvalues --   -0.47269  -0.46986  -0.46889  -0.46570  -0.46188
 Alpha  occ. eigenvalues --   -0.45880  -0.45235  -0.45114  -0.44920  -0.44169
 Alpha  occ. eigenvalues --   -0.43983  -0.43589  -0.43415  -0.42208  -0.42183
 Alpha  occ. eigenvalues --   -0.41667  -0.40985  -0.39900  -0.39355  -0.38599
 Alpha  occ. eigenvalues --   -0.37860  -0.37616  -0.36940  -0.36296  -0.35451
 Alpha  occ. eigenvalues --   -0.35215  -0.34843  -0.34563  -0.34243  -0.32412
 Alpha  occ. eigenvalues --   -0.31899  -0.30504
 Alpha virt. eigenvalues --   -0.11817  -0.11354  -0.09603  -0.09173  -0.08153
 Alpha virt. eigenvalues --   -0.07878  -0.07349  -0.06872  -0.06558  -0.03802
 Alpha virt. eigenvalues --   -0.03601  -0.02209  -0.01620  -0.01453  -0.01089

 Mulliken charges:
               1
     1  N   -0.692897
     2  H    0.314527
     3  H    0.314759
     4  C   -0.085801
     5  H    0.163040
     6  C    0.596974
     7  C   -0.263585
     8  H    0.172256
     9  H    0.150151
    10  O   -0.561794
    11  C   -0.369246
    12  H    0.197304
    13  H    0.220876
    14  C    0.584087
    15  O   -0.437011
    16  O   -0.598076
    17  N   -0.602703
    18  H    0.358682
    19  C   -0.074313
    20  H    0.199506
    21  C    0.647275
    22  C   -0.357219
    23  H    0.149118
    24  H    0.178311
    25  O   -0.580166
    26  C    0.039771
    27  C   -0.019524
    28  H    0.221546
    29  C    0.016569
    30  C    0.330827
    31  C   -0.234662
    32  H    0.143940
    33  N   -0.700742
    34  H    0.345537
    35  C   -0.167557
    36  H    0.153643
    37  C   -0.189773
    38  H    0.147534
    39  C   -0.139401
    40  H    0.152964
    41  N   -0.631190
    42  H    0.378027
    43  C   -0.017338
    44  H    0.165114
    45  C    0.636046
    46  C    0.090420
    47  H    0.149445
    48  O   -0.542816
    49  C   -0.467105
    50  H    0.159561
    51  H    0.184892
    52  H    0.161093
    53  O   -0.632187
    54  H    0.415038
    55  N   -0.598085
    56  H    0.356792
    57  C   -0.057430
    58  H    0.206692
    59  C    0.587460
    60  C   -0.270959
    61  H    0.170647
    62  H    0.158047
    63  O   -0.452244
    64  C   -0.301339
    65  H    0.135418
    66  H    0.217271
    67  C   -0.182670
    68  H    0.212886
    69  H    0.161729
    70  N   -0.600619
    71  H    0.405453
    72  N   -0.756432
    73  H    0.381307
    74  H    0.382377
    75  N   -0.750038
    76  H    0.382458
    77  H    0.368584
    78  C    0.784700
    79  O   -0.559964
    80  H    0.430430
    81  H    0.413796
 Sum of Mulliken charges =   1.00000

 Dipole moment (field-independent basis, Debye):
    X=             10.0637    Y=             12.7888    Z=            -18.6943  Tot=             24.7853
 Quadrupole moment (field-independent basis, Debye-Ang):
   XX=           -164.5665   YY=           -198.5005   ZZ=           -135.7499
   XY=             26.9538   XZ=            -36.4768   YZ=            -71.5359

 Normal termination of Gaussian 16 at Thu May 12 23:07:39 2022.
