 Gaussian 16, Revision C.01,
 Gaussian 16:  ES64L-G16RevC.01  3-Jul-2019

 ----------------------------------------------------------------------
 # B3LYP/6-31G* empiricaldispersion=gd3 guess=read geom=check nosymm in
 tegral(ultrafinegrid)
 ----------------------------------------------------------------------

 ------------------------------------------------------
 Candidate Structure: Conf:669 Charge calc in gas phase
 ------------------------------------------------------
 Structure from the checkpoint file:  "conf-669.chk"
 Charge =  1 Multiplicity = 1

                          Input orientation:
 ---------------------------------------------------------------------
 Center     Atomic      Atomic             Coordinates (Angstroms)
 Number     Number       Type             X           Y           Z
 ---------------------------------------------------------------------
      1          7           0       -3.680885   -1.150466    3.520769
      2          1           0       -2.939237   -1.830074    3.357333
      3          1           0       -3.879376   -1.143706    4.519255
      4          6           0       -3.216140    0.161810    3.090005
      5          1           0       -4.084551    0.829165    3.053806
      6          6           0       -2.655549    0.028661    1.678057
      7          6           0       -2.103088    0.840246    3.964307
      8          1           0       -1.633777    0.062662    4.575898
      9          1           0       -1.299672    1.252095    3.343809
     10          8           0       -2.061422   -0.986316    1.300166
     11          6           0       -2.646288    1.942208    4.874904
     12          1           0       -1.888740    2.279671    5.592199
     13          1           0       -3.489012    1.586423    5.484332
     14          6           0       -3.128309    3.160344    4.115285
     15          8           0       -3.218589    3.267413    2.903144
     16          8           0       -3.469162    4.160095    4.946393
     17          7           0       -2.787147    1.135650    0.897064
     18          1           0       -3.060735    1.998166    1.366288
     19          6           0       -2.143699    1.229224   -0.407726
     20          1           0       -2.092974    0.200416   -0.784030
     21          6           0       -0.670863    1.687152   -0.315069
     22          6           0       -2.979910    2.070211   -1.380633
     23          1           0       -2.312434    2.481137   -2.144878
     24          1           0       -3.384750    2.946288   -0.855609
     25          8           0       -0.212899    2.620045   -0.988548
     26          6           0       -4.070199    1.265002   -2.033532
     27          6           0       -4.709506    0.154284   -1.532378
     28          1           0       -4.592485   -0.331632   -0.574143
     29          6           0       -4.608219    1.476632   -3.354129
     30          6           0       -5.555497    0.436710   -3.600035
     31          6           0       -4.375433    2.434452   -4.360820
     32          1           0       -3.698424    3.265774   -4.179717
     33          7           0       -5.594587   -0.345842   -2.469229
     34          1           0       -6.209546   -1.131657   -2.319264
     35          6           0       -5.952211    1.263115   -5.808568
     36          1           0       -6.471884    1.207182   -6.760722
     37          6           0       -6.227608    0.314696   -4.823575
     38          1           0       -6.956077   -0.474344   -4.990684
     39          6           0       -5.038841    2.315358   -5.577126
     40          1           0       -4.872199    3.053539   -6.356102
     41          7           0        0.078689    0.919204    0.503604
     42          1           0       -0.349836    0.089823    0.911839
     43          6           0        1.529634    1.051277    0.611315
     44          1           0        1.770739    2.117705    0.532320
     45          6           0        2.135719    0.276415   -0.579321
     46          6           0        2.010005    0.503898    1.967154
     47          1           0        1.789689   -0.567792    1.995667
     48          8           0        2.542571   -0.873632   -0.482747
     49          6           0        3.507672    0.717078    2.165402
     50          1           0        4.079707    0.185795    1.399998
     51          1           0        3.803452    0.343072    3.149452
     52          1           0        3.760972    1.784941    2.111495
     53          8           0        1.241953    1.071735    3.029102
     54          1           0        1.502944    2.003249    3.116465
     55          7           0        2.070747    0.948540   -1.766876
     56          1           0        1.626408    1.860839   -1.766048
     57          6           0        2.289274    0.254564   -3.018399
     58          1           0        1.982938   -0.790136   -2.872273
     59          6           0        3.756907    0.161502   -3.455195
     60          6           0        1.469583    0.868665   -4.167184
     61          1           0        1.682942    0.266167   -5.056937
     62          1           0        1.844012    1.880628   -4.377615
     63          8           0        4.082318   -0.304822   -4.526125
     64          6           0       -0.036350    0.945566   -3.885281
     65          1           0       -0.423300   -0.037007   -3.580456
     66          1           0       -0.224326    1.630432   -3.053534
     67          6           0       -0.828627    1.460894   -5.090912
     68          1           0       -1.831631    1.790721   -4.808934
     69          1           0       -0.333031    2.330909   -5.534005
     70          7           0       -0.977928    0.465141   -6.168905
     71          1           0       -0.169795    0.293953   -6.754280
     72          7           0       -3.005180   -0.436837   -5.427564
     73          1           0       -3.967895   -0.566233   -5.726076
     74          1           0       -2.935563    0.064787   -4.549723
     75          7           0       -2.162346   -1.026045   -7.491170
     76          1           0       -1.561647   -0.856640   -8.284928
     77          1           0       -2.786624   -1.818775   -7.537823
     78          6           0       -2.042877   -0.318461   -6.351643
     79          8           0        4.622677    0.631470   -2.543626
     80          1           0        5.517593    0.482994   -2.905317
     81          1           0       -3.782280    4.904071    4.396989
 ---------------------------------------------------------------------

 SCF Done:  E(RB3LYP) =  -2054.05798157     A.U. after    2 cycles

 Alpha  occ. eigenvalues --  -19.27759 -19.27318 -19.22894 -19.22001 -19.21418
 Alpha  occ. eigenvalues --  -19.20833 -19.19811 -19.19220 -14.53023 -14.52691
 Alpha  occ. eigenvalues --  -14.51309 -14.47858 -14.44249 -14.43754 -14.43599
 Alpha  occ. eigenvalues --  -14.37683 -10.48822 -10.40759 -10.39690 -10.37432
 Alpha  occ. eigenvalues --  -10.36401 -10.36272 -10.36049 -10.32605 -10.32302
 Alpha  occ. eigenvalues --  -10.31983 -10.31325 -10.31102 -10.30913 -10.30114
 Alpha  occ. eigenvalues --  -10.29730 -10.29572 -10.29278 -10.29027 -10.28976
 Alpha  occ. eigenvalues --  -10.28751 -10.28482 -10.28318 -10.28023 -10.27955
 Alpha  occ. eigenvalues --  -10.26000 -10.24191  -1.18983  -1.18249  -1.17253
 Alpha  occ. eigenvalues --   -1.12612  -1.11507  -1.11058  -1.09893  -1.09293
 Alpha  occ. eigenvalues --   -1.09170  -1.07837  -1.06713  -1.05097  -1.01331
 Alpha  occ. eigenvalues --   -1.00760  -0.99945  -0.95335  -0.94199  -0.91492
 Alpha  occ. eigenvalues --   -0.90115  -0.86958  -0.86682  -0.85538  -0.84489
 Alpha  occ. eigenvalues --   -0.83680  -0.81532  -0.80890  -0.78666  -0.78448
 Alpha  occ. eigenvalues --   -0.77660  -0.74679  -0.74530  -0.72773  -0.72325
 Alpha  occ. eigenvalues --   -0.71738  -0.70617  -0.70320  -0.69209  -0.67709
 Alpha  occ. eigenvalues --   -0.66900  -0.66311  -0.66242  -0.65953  -0.65598
 Alpha  occ. eigenvalues --   -0.65009  -0.64747  -0.63905  -0.61864  -0.61450
 Alpha  occ. eigenvalues --   -0.60761  -0.59561  -0.59040  -0.58378  -0.58167
 Alpha  occ. eigenvalues --   -0.57770  -0.57578  -0.57105  -0.56588  -0.56252
 Alpha  occ. eigenvalues --   -0.55832  -0.55333  -0.55204  -0.55022  -0.54403
 Alpha  occ. eigenvalues --   -0.53810  -0.53217  -0.52653  -0.52312  -0.52249
 Alpha  occ. eigenvalues --   -0.51764  -0.51367  -0.51104  -0.50688  -0.50420
 Alpha  occ. eigenvalues --   -0.50104  -0.49871  -0.49319  -0.48913  -0.48826
 Alpha  occ. eigenvalues --   -0.48478  -0.47811  -0.47649  -0.47273  -0.46772
 Alpha  occ. eigenvalues --   -0.46260  -0.45849  -0.45703  -0.45309  -0.44706
 Alpha  occ. eigenvalues --   -0.44460  -0.44335  -0.44174  -0.43876  -0.43862
 Alpha  occ. eigenvalues --   -0.43614  -0.43199  -0.42951  -0.42795  -0.42115
 Alpha  occ. eigenvalues --   -0.41275  -0.40207  -0.39641  -0.39184  -0.37778
 Alpha  occ. eigenvalues --   -0.36757  -0.36668  -0.36302  -0.35791  -0.34539
 Alpha  occ. eigenvalues --   -0.33585  -0.32824  -0.32652  -0.32370  -0.31599
 Alpha  occ. eigenvalues --   -0.30212  -0.29843
 Alpha virt. eigenvalues --   -0.13354  -0.11754  -0.08743  -0.08141  -0.07935
 Alpha virt. eigenvalues --   -0.07516  -0.06758  -0.05732  -0.04814  -0.04511
 Alpha virt. eigenvalues --   -0.04097  -0.03348  -0.02446  -0.00923  -0.00353

 Mulliken charges:
               1
     1  N   -0.717099
     2  H    0.319672
     3  H    0.300639
     4  C   -0.059162
     5  H    0.153646
     6  C    0.598976
     7  C   -0.294272
     8  H    0.161796
     9  H    0.182249
    10  O   -0.552291
    11  C   -0.368471
    12  H    0.197052
    13  H    0.189004
    14  C    0.594519
    15  O   -0.488693
    16  O   -0.546849
    17  N   -0.615079
    18  H    0.389835
    19  C   -0.087762
    20  H    0.187350
    21  C    0.626189
    22  C   -0.354423
    23  H    0.164557
    24  H    0.179841
    25  O   -0.561166
    26  C    0.059679
    27  C    0.012747
    28  H    0.198352
    29  C    0.011431
    30  C    0.326682
    31  C   -0.229396
    32  H    0.149303
    33  N   -0.686821
    34  H    0.346900
    35  C   -0.172902
    36  H    0.150888
    37  C   -0.206516
    38  H    0.151747
    39  C   -0.145920
    40  H    0.146008
    41  N   -0.600096
    42  H    0.384860
    43  C   -0.080945
    44  H    0.163801
    45  C    0.634180
    46  C    0.120441
    47  H    0.174346
    48  O   -0.517982
    49  C   -0.482086
    50  H    0.186989
    51  H    0.175379
    52  H    0.135346
    53  O   -0.616092
    54  H    0.390086
    55  N   -0.621289
    56  H    0.363028
    57  C   -0.033098
    58  H    0.201870
    59  C    0.605368
    60  C   -0.311234
    61  H    0.162683
    62  H    0.160821
    63  O   -0.468046
    64  C   -0.299009
    65  H    0.150768
    66  H    0.207097
    67  C   -0.200646
    68  H    0.188643
    69  H    0.194770
    70  N   -0.583151
    71  H    0.366540
    72  N   -0.751255
    73  H    0.377036
    74  H    0.396006
    75  N   -0.756932
    76  H    0.381842
    77  H    0.386945
    78  C    0.804593
    79  O   -0.547418
    80  H    0.422679
    81  H    0.420922
 Sum of Mulliken charges =   1.00000

 Dipole moment (field-independent basis, Debye):
    X=            -11.6504    Y=              4.0965    Z=            -19.0959  Tot=             22.7413
 Quadrupole moment (field-independent basis, Debye-Ang):
   XX=           -178.2486   YY=           -225.4169   ZZ=            -47.9293
   XY=             11.4647   XZ=             49.1707   YZ=             22.6880

 Normal termination of Gaussian 16 at Thu May 12 23:07:58 2022.
