 Gaussian 16, Revision C.01,
 Gaussian 16:  ES64L-G16RevC.01  3-Jul-2019

 ----------------------------------------------------------------------
 # B3LYP/6-31G* empiricaldispersion=gd3 guess=read geom=check nosymm in
 tegral(ultrafinegrid)
 ----------------------------------------------------------------------

 ------------------------------------------------------
 Candidate Structure: Conf:472 Charge calc in gas phase
 ------------------------------------------------------
 Structure from the checkpoint file:  "conf-472.chk"
 Charge =  1 Multiplicity = 1

                          Input orientation:
 ---------------------------------------------------------------------
 Center     Atomic      Atomic             Coordinates (Angstroms)
 Number     Number       Type             X           Y           Z
 ---------------------------------------------------------------------
      1          7           0       -2.503060   -3.051961    1.821420
      2          1           0       -2.336692   -3.603899    0.980064
      3          1           0       -1.652286   -3.148648    2.374849
      4          6           0       -2.680570   -1.657688    1.434038
      5          1           0       -3.645238   -1.589165    0.906837
      6          6           0       -1.656383   -1.227337    0.347937
      7          6           0       -2.792259   -0.767688    2.679784
      8          1           0       -3.110016    0.233560    2.376942
      9          1           0       -3.603071   -1.172172    3.292900
     10          8           0       -1.233687   -2.069072   -0.447022
     11          6           0       -1.500008   -0.684593    3.528734
     12          1           0       -0.658767   -1.142341    2.983336
     13          1           0       -1.591790   -1.234358    4.468379
     14          6           0       -0.995042    0.713174    3.803222
     15          8           0       -0.978968    1.607900    2.968131
     16          8           0       -0.484808    0.839512    5.025881
     17          7           0       -1.290517    0.093799    0.252367
     18          1           0       -1.620282    0.773738    0.931909
     19          6           0       -0.611000    0.571208   -0.941617
     20          1           0       -0.372931   -0.346704   -1.481933
     21          6           0        0.756350    1.178348   -0.661886
     22          6           0       -1.497694    1.467078   -1.854251
     23          1           0       -1.435934    2.513689   -1.534925
     24          1           0       -2.534556    1.148083   -1.688118
     25          8           0        1.517874    1.459848   -1.609354
     26          6           0       -1.145083    1.331475   -3.301370
     27          6           0       -0.748926    2.314180   -4.171701
     28          1           0       -0.629188    3.375093   -3.999130
     29          6           0       -1.160188    0.098537   -4.051580
     30          6           0       -0.725905    0.407948   -5.373357
     31          6           0       -1.498061   -1.236460   -3.738874
     32          1           0       -1.855911   -1.511444   -2.751145
     33          7           0       -0.487509    1.765762   -5.416053
     34          1           0       -0.257087    2.289338   -6.246297
     35          6           0       -0.911461   -1.882063   -6.017593
     36          1           0       -0.829251   -2.662280   -6.768538
     37          6           0       -0.591075   -0.571338   -6.361793
     38          1           0       -0.265695   -0.322272   -7.368419
     39          6           0       -1.363588   -2.210508   -4.723620
     40          1           0       -1.628910   -3.239248   -4.496807
     41          7           0        1.145835    1.305023    0.613631
     42          1           0        0.493421    1.115290    1.367213
     43          6           0        2.528818    1.593277    0.987468
     44          1           0        2.945505    2.282127    0.245965
     45          6           0        3.289682    0.248178    0.942048
     46          6           0        2.588547    2.209556    2.399143
     47          1           0        3.655219    2.288766    2.658019
     48          8           0        3.523326   -0.411864    1.954488
     49          6           0        1.932291    3.579445    2.486603
     50          1           0        2.387527    4.284877    1.783979
     51          1           0        2.062862    3.969328    3.501910
     52          1           0        0.860206    3.502845    2.280702
     53          8           0        1.920458    1.354236    3.325783
     54          1           0        2.440523    0.526897    3.340996
     55          7           0        3.614456   -0.164906   -0.314995
     56          1           0        3.291034    0.388543   -1.103456
     57          6           0        4.124992   -1.502585   -0.561616
     58          1           0        4.636156   -1.811315    0.351261
     59          6           0        5.162610   -1.415966   -1.668909
     60          6           0        2.996808   -2.564889   -0.875752
     61          1           0        2.043899   -2.046441   -0.711843
     62          1           0        3.054391   -3.339145   -0.107663
     63          8           0        5.158909   -0.584893   -2.556666
     64          6           0        2.963814   -3.236734   -2.276895
     65          1           0        3.908832   -3.088618   -2.810602
     66          1           0        2.876677   -4.321731   -2.154628
     67          6           0        1.790127   -2.806300   -3.174097
     68          1           0        1.803828   -3.350658   -4.128410
     69          1           0        0.840685   -3.056759   -2.695488
     70          7           0        1.722741   -1.362537   -3.417669
     71          1           0        0.825511   -0.912839   -3.255015
     72          7           0        3.538631   -1.215983   -4.905751
     73          1           0        4.461722   -0.798389   -4.872881
     74          1           0        3.551986   -2.224663   -4.963961
     75          7           0        2.498457    0.690421   -4.077618
     76          1           0        1.966207    1.137335   -3.317281
     77          1           0        3.067994    1.259039   -4.686839
     78          6           0        2.594593   -0.637341   -4.120144
     79          8           0        6.061580   -2.409114   -1.583321
     80          1           0        6.695967   -2.308904   -2.320031
     81          1           0        0.049407    1.657540    5.047207
 ---------------------------------------------------------------------

 SCF Done:  E(RB3LYP) =  -2054.09009643     A.U. after    1 cycles

 Alpha  occ. eigenvalues --  -19.31480 -19.28107 -19.26150 -19.23436 -19.22906
 Alpha  occ. eigenvalues --  -19.22688 -19.22439 -19.21648 -14.49958 -14.49751
 Alpha  occ. eigenvalues --  -14.48747 -14.47515 -14.47099 -14.46235 -14.46063
 Alpha  occ. eigenvalues --  -14.39125 -10.45946 -10.43980 -10.41159 -10.40228
 Alpha  occ. eigenvalues --  -10.39275 -10.38366 -10.34862 -10.34685 -10.33702
 Alpha  occ. eigenvalues --  -10.33192 -10.32997 -10.31584 -10.31442 -10.31192
 Alpha  occ. eigenvalues --  -10.30854 -10.30402 -10.29592 -10.28959 -10.28452
 Alpha  occ. eigenvalues --  -10.28093 -10.28019 -10.27912 -10.27874 -10.27865
 Alpha  occ. eigenvalues --  -10.27470 -10.25559  -1.22546  -1.19323  -1.15331
 Alpha  occ. eigenvalues --   -1.14636  -1.14122  -1.13502  -1.13309  -1.10233
 Alpha  occ. eigenvalues --   -1.10103  -1.07392  -1.04145  -1.03977  -1.03000
 Alpha  occ. eigenvalues --   -1.02632  -1.01739  -0.97061  -0.93376  -0.91208
 Alpha  occ. eigenvalues --   -0.90488  -0.88089  -0.87558  -0.86103  -0.85062
 Alpha  occ. eigenvalues --   -0.82960  -0.81773  -0.81042  -0.79967  -0.79802
 Alpha  occ. eigenvalues --   -0.76774  -0.76330  -0.74025  -0.73117  -0.72156
 Alpha  occ. eigenvalues --   -0.71635  -0.70795  -0.69628  -0.69268  -0.68722
 Alpha  occ. eigenvalues --   -0.68543  -0.68368  -0.67523  -0.67198  -0.65529
 Alpha  occ. eigenvalues --   -0.64728  -0.64162  -0.63056  -0.62931  -0.62270
 Alpha  occ. eigenvalues --   -0.61132  -0.60793  -0.60142  -0.59587  -0.59191
 Alpha  occ. eigenvalues --   -0.58832  -0.58168  -0.58091  -0.57516  -0.57409
 Alpha  occ. eigenvalues --   -0.56947  -0.56258  -0.56131  -0.55556  -0.55336
 Alpha  occ. eigenvalues --   -0.54523  -0.54312  -0.54142  -0.53341  -0.53101
 Alpha  occ. eigenvalues --   -0.52835  -0.52427  -0.52124  -0.51880  -0.51740
 Alpha  occ. eigenvalues --   -0.51546  -0.51087  -0.50881  -0.50343  -0.49719
 Alpha  occ. eigenvalues --   -0.49370  -0.49232  -0.48739  -0.48098  -0.47657
 Alpha  occ. eigenvalues --   -0.47255  -0.47097  -0.46509  -0.46297  -0.46100
 Alpha  occ. eigenvalues --   -0.45978  -0.45593  -0.44850  -0.44649  -0.44425
 Alpha  occ. eigenvalues --   -0.44280  -0.43978  -0.42897  -0.42748  -0.42370
 Alpha  occ. eigenvalues --   -0.42202  -0.41343  -0.40494  -0.39823  -0.39074
 Alpha  occ. eigenvalues --   -0.38739  -0.38448  -0.37081  -0.36875  -0.36114
 Alpha  occ. eigenvalues --   -0.35783  -0.35587  -0.34962  -0.34354  -0.31952
 Alpha  occ. eigenvalues --   -0.31859  -0.29759
 Alpha virt. eigenvalues --   -0.11647  -0.11277  -0.10964  -0.10151  -0.08842
 Alpha virt. eigenvalues --   -0.07812  -0.07356  -0.07034  -0.05779  -0.03572
 Alpha virt. eigenvalues --   -0.03259  -0.02937  -0.02255  -0.01070  -0.00850

 Mulliken charges:
               1
     1  N   -0.692252
     2  H    0.320382
     3  H    0.300467
     4  C   -0.083079
     5  H    0.181231
     6  C    0.584818
     7  C   -0.291103
     8  H    0.161658
     9  H    0.193925
    10  O   -0.535630
    11  C   -0.368712
    12  H    0.175148
    13  H    0.201669
    14  C    0.609455
    15  O   -0.497354
    16  O   -0.541782
    17  N   -0.656895
    18  H    0.363956
    19  C   -0.064995
    20  H    0.195396
    21  C    0.634635
    22  C   -0.350806
    23  H    0.164544
    24  H    0.178004
    25  O   -0.592787
    26  C    0.095769
    27  C   -0.004790
    28  H    0.170603
    29  C    0.006729
    30  C    0.330671
    31  C   -0.260758
    32  H    0.175309
    33  N   -0.689512
    34  H    0.340718
    35  C   -0.159424
    36  H    0.146253
    37  C   -0.166607
    38  H    0.144548
    39  C   -0.146472
    40  H    0.145492
    41  N   -0.610504
    42  H    0.392462
    43  C   -0.077831
    44  H    0.184288
    45  C    0.630128
    46  C    0.113550
    47  H    0.149822
    48  O   -0.534128
    49  C   -0.463167
    50  H    0.150881
    51  H    0.170535
    52  H    0.176079
    53  O   -0.662005
    54  H    0.425218
    55  N   -0.620983
    56  H    0.368859
    57  C   -0.033976
    58  H    0.223391
    59  C    0.580520
    60  C   -0.290771
    61  H    0.177039
    62  H    0.187202
    63  O   -0.492810
    64  C   -0.286192
    65  H    0.140005
    66  H    0.182421
    67  C   -0.186294
    68  H    0.171978
    69  H    0.210371
    70  N   -0.608023
    71  H    0.405075
    72  N   -0.745817
    73  H    0.377565
    74  H    0.366899
    75  N   -0.772029
    76  H    0.436732
    77  H    0.362997
    78  C    0.769051
    79  O   -0.542905
    80  H    0.422805
    81  H    0.433142
 Sum of Mulliken charges =   1.00000

 Dipole moment (field-independent basis, Debye):
    X=             10.1063    Y=             -0.7588    Z=            -13.3000  Tot=             16.7213
 Quadrupole moment (field-independent basis, Debye-Ang):
   XX=           -189.9444   YY=           -209.7353   ZZ=           -151.4695
   XY=            -17.5905   XZ=            -44.2021   YZ=             11.0700

 Normal termination of Gaussian 16 at Thu May 12 23:07:42 2022.
