 Gaussian 16, Revision C.01,
 Gaussian 16:  ES64L-G16RevC.01  3-Jul-2019

 ----------------------------------------------------------------------
 # B3LYP/6-31G* empiricaldispersion=gd3 guess=read geom=check nosymm in
 tegral(ultrafinegrid)
 ----------------------------------------------------------------------

 ------------------------------------------------------
 Candidate Structure: Conf:474 Charge calc in gas phase
 ------------------------------------------------------
 Structure from the checkpoint file:  "conf-474.chk"
 Charge =  1 Multiplicity = 1

                          Input orientation:
 ---------------------------------------------------------------------
 Center     Atomic      Atomic             Coordinates (Angstroms)
 Number     Number       Type             X           Y           Z
 ---------------------------------------------------------------------
      1          7           0       -5.564978    3.242879    3.370073
      2          1           0       -5.454868    4.109457    2.844902
      3          1           0       -6.149792    2.651614    2.777718
      4          6           0       -4.268024    2.592441    3.509914
      5          1           0       -3.561903    3.332261    3.902670
      6          6           0       -3.683529    2.077171    2.181937
      7          6           0       -4.374582    1.428722    4.530082
      8          1           0       -5.380390    1.001812    4.457364
      9          1           0       -3.664018    0.633010    4.285763
     10          8           0       -4.366125    1.957883    1.163378
     11          6           0       -4.120174    1.899859    5.960393
     12          1           0       -4.396379    1.138417    6.699444
     13          1           0       -4.728847    2.783529    6.190860
     14          6           0       -2.663664    2.250520    6.179526
     15          8           0       -1.793252    2.244218    5.326677
     16          8           0       -2.413509    2.585621    7.460379
     17          7           0       -2.364375    1.756953    2.232426
     18          1           0       -1.841858    1.901047    3.095018
     19          6           0       -1.665328    1.150471    1.118683
     20          1           0       -2.169133    0.219769    0.827388
     21          6           0       -0.234850    0.860227    1.582732
     22          6           0       -1.600617    2.084967   -0.153716
     23          1           0       -0.546667    2.228096   -0.428979
     24          1           0       -1.981203    3.062530    0.151859
     25          8           0        0.298778    1.507058    2.482551
     26          6           0       -2.362385    1.589717   -1.348829
     27          6           0       -3.625653    1.982018   -1.730338
     28          1           0       -4.300873    2.655483   -1.224276
     29          6           0       -1.953762    0.580797   -2.296463
     30          6           0       -3.003761    0.443230   -3.250772
     31          6           0       -0.795575   -0.206277   -2.456640
     32          1           0        0.009247   -0.168669   -1.732976
     33          7           0       -4.004969    1.313774   -2.874226
     34          1           0       -4.912803    1.382611   -3.309241
     35          6           0       -1.752218   -1.177935   -4.481484
     36          1           0       -1.660550   -1.869347   -5.313576
     37          6           0       -2.914263   -0.424410   -4.343467
     38          1           0       -3.726638   -0.511402   -5.059576
     39          6           0       -0.704206   -1.074110   -3.543333
     40          1           0        0.174486   -1.704965   -3.640234
     41          7           0        0.440901   -0.060211    0.843348
     42          1           0       -0.056977   -0.736066    0.277353
     43          6           0        1.856301   -0.300792    1.068000
     44          1           0        2.270577    0.641490    1.442495
     45          6           0        2.469433   -0.669060   -0.281483
     46          6           0        2.116859   -1.400177    2.138360
     47          1           0        1.830479   -2.365942    1.704710
     48          8           0        1.918602   -1.472454   -1.032035
     49          6           0        3.591236   -1.431545    2.547825
     50          1           0        4.254098   -1.636152    1.698687
     51          1           0        3.742772   -2.207653    3.302395
     52          1           0        3.883980   -0.470094    2.990377
     53          8           0        1.259953   -1.217561    3.248215
     54          1           0        1.279546   -0.279392    3.507165
     55          7           0        3.627196   -0.028012   -0.606253
     56          1           0        4.091197    0.516822    0.107983
     57          6           0        4.388903   -0.377387   -1.799489
     58          1           0        4.112714   -1.408789   -2.057888
     59          6           0        5.894384   -0.391589   -1.532099
     60          6           0        4.066927    0.529308   -3.005306
     61          1           0        4.778756    0.292237   -3.803161
     62          1           0        4.246795    1.572764   -2.710309
     63          8           0        6.729831   -0.305278   -2.399611
     64          6           0        2.628287    0.345653   -3.495432
     65          1           0        2.469237   -0.697313   -3.790185
     66          1           0        1.928126    0.530621   -2.677580
     67          6           0        2.252892    1.230654   -4.688473
     68          1           0        2.983720    1.139710   -5.497119
     69          1           0        1.284292    0.930980   -5.101441
     70          7           0        2.180439    2.667390   -4.356964
     71          1           0        3.043250    3.193215   -4.397705
     72          7           0        0.020861    2.601565   -3.497977
     73          1           0       -0.794076    3.049853   -3.097034
     74          1           0       -0.017315    1.582991   -3.460630
     75          7           0        1.199176    4.600006   -3.534850
     76          1           0        1.870130    5.181835   -4.016859
     77          1           0        0.409733    5.080069   -3.126435
     78          6           0        1.128168    3.276059   -3.796152
     79          8           0        6.185135   -0.535134   -0.218891
     80          1           0        7.158407   -0.572295   -0.142656
     81          1           0       -1.462781    2.798891    7.519615
 ---------------------------------------------------------------------

 SCF Done:  E(RB3LYP) =  -2054.05399948     A.U. after    1 cycles

 Alpha  occ. eigenvalues --  -19.30281 -19.25834 -19.24253 -19.22306 -19.21012
 Alpha  occ. eigenvalues --  -19.20756 -19.20675 -19.17869 -14.53051 -14.53022
 Alpha  occ. eigenvalues --  -14.51828 -14.47249 -14.47006 -14.45173 -14.41912
 Alpha  occ. eigenvalues --  -14.37030 -10.49199 -10.42633 -10.39357 -10.38561
 Alpha  occ. eigenvalues --  -10.37800 -10.36357 -10.34925 -10.34300 -10.32396
 Alpha  occ. eigenvalues --  -10.31865 -10.31713 -10.31160 -10.30623 -10.30513
 Alpha  occ. eigenvalues --  -10.30377 -10.28475 -10.28265 -10.27921 -10.27885
 Alpha  occ. eigenvalues --  -10.27774 -10.27685 -10.27589 -10.27091 -10.25895
 Alpha  occ. eigenvalues --  -10.25213 -10.24918  -1.21013  -1.17573  -1.16900
 Alpha  occ. eigenvalues --   -1.14427  -1.12809  -1.12080  -1.09506  -1.08830
 Alpha  occ. eigenvalues --   -1.07821  -1.06987  -1.06911  -1.05518  -1.03651
 Alpha  occ. eigenvalues --   -1.01441  -0.98846  -0.94497  -0.93243  -0.92240
 Alpha  occ. eigenvalues --   -0.89323  -0.88240  -0.85873  -0.85189  -0.83964
 Alpha  occ. eigenvalues --   -0.82737  -0.81987  -0.80971  -0.79435  -0.78520
 Alpha  occ. eigenvalues --   -0.77250  -0.75004  -0.74531  -0.74028  -0.71370
 Alpha  occ. eigenvalues --   -0.71295  -0.70537  -0.70072  -0.69844  -0.68356
 Alpha  occ. eigenvalues --   -0.68081  -0.67919  -0.66172  -0.65117  -0.64871
 Alpha  occ. eigenvalues --   -0.64456  -0.64202  -0.63762  -0.62878  -0.61874
 Alpha  occ. eigenvalues --   -0.60832  -0.59801  -0.59487  -0.58596  -0.58359
 Alpha  occ. eigenvalues --   -0.57568  -0.57275  -0.56817  -0.56387  -0.56087
 Alpha  occ. eigenvalues --   -0.55908  -0.55528  -0.54929  -0.54781  -0.54090
 Alpha  occ. eigenvalues --   -0.53672  -0.53440  -0.53056  -0.52875  -0.52317
 Alpha  occ. eigenvalues --   -0.51922  -0.51771  -0.51418  -0.51088  -0.50549
 Alpha  occ. eigenvalues --   -0.50033  -0.49861  -0.49617  -0.48919  -0.48789
 Alpha  occ. eigenvalues --   -0.48400  -0.47881  -0.47473  -0.47148  -0.46286
 Alpha  occ. eigenvalues --   -0.46214  -0.46132  -0.45951  -0.45814  -0.45571
 Alpha  occ. eigenvalues --   -0.44711  -0.44416  -0.43897  -0.43671  -0.43624
 Alpha  occ. eigenvalues --   -0.42709  -0.42251  -0.42186  -0.42132  -0.41507
 Alpha  occ. eigenvalues --   -0.41455  -0.40352  -0.39621  -0.38608  -0.38117
 Alpha  occ. eigenvalues --   -0.36971  -0.36762  -0.36126  -0.34937  -0.34432
 Alpha  occ. eigenvalues --   -0.34264  -0.33198  -0.32353  -0.32032  -0.31634
 Alpha  occ. eigenvalues --   -0.29695  -0.28986
 Alpha virt. eigenvalues --   -0.12965  -0.10948  -0.09706  -0.09309  -0.08843
 Alpha virt. eigenvalues --   -0.07368  -0.06690  -0.05377  -0.05353  -0.04277
 Alpha virt. eigenvalues --   -0.03627  -0.03067  -0.02703  -0.02477  -0.00810

 Mulliken charges:
               1
     1  N   -0.696496
     2  H    0.298813
     3  H    0.309545
     4  C   -0.087278
     5  H    0.158891
     6  C    0.565907
     7  C   -0.249784
     8  H    0.158711
     9  H    0.157123
    10  O   -0.546181
    11  C   -0.362471
    12  H    0.188941
    13  H    0.207115
    14  C    0.585269
    15  O   -0.477804
    16  O   -0.553871
    17  N   -0.640948
    18  H    0.394138
    19  C    0.024618
    20  H    0.179382
    21  C    0.581564
    22  C   -0.357810
    23  H    0.127336
    24  H    0.173252
    25  O   -0.533684
    26  C    0.022372
    27  C    0.035263
    28  H    0.194365
    29  C    0.063740
    30  C    0.319512
    31  C   -0.330326
    32  H    0.160024
    33  N   -0.682391
    34  H    0.345584
    35  C   -0.158839
    36  H    0.148649
    37  C   -0.154375
    38  H    0.149777
    39  C   -0.152723
    40  H    0.152929
    41  N   -0.605845
    42  H    0.357349
    43  C   -0.091954
    44  H    0.165518
    45  C    0.625211
    46  C    0.159955
    47  H    0.156787
    48  O   -0.537277
    49  C   -0.478119
    50  H    0.150581
    51  H    0.185005
    52  H    0.141137
    53  O   -0.620977
    54  H    0.409019
    55  N   -0.608915
    56  H    0.351289
    57  C   -0.056527
    58  H    0.222466
    59  C    0.586499
    60  C   -0.264939
    61  H    0.186899
    62  H    0.128097
    63  O   -0.440965
    64  C   -0.269779
    65  H    0.184558
    66  H    0.157118
    67  C   -0.196051
    68  H    0.194736
    69  H    0.199352
    70  N   -0.591336
    71  H    0.363873
    72  N   -0.778577
    73  H    0.379479
    74  H    0.415112
    75  N   -0.762663
    76  H    0.379937
    77  H    0.381701
    78  C    0.824630
    79  O   -0.568636
    80  H    0.432850
    81  H    0.415564
 Sum of Mulliken charges =   1.00000

 Dipole moment (field-independent basis, Debye):
    X=              5.8314    Y=             13.6812    Z=            -13.1772  Tot=             19.8700
 Quadrupole moment (field-independent basis, Debye-Ang):
   XX=           -183.0592   YY=           -184.1332   ZZ=           -159.1600
   XY=              9.1953   XZ=             -2.4563   YZ=            -41.3242

 Normal termination of Gaussian 16 at Thu May 12 23:07:32 2022.
