 Gaussian 16, Revision C.01,
 Gaussian 16:  ES64L-G16RevC.01  3-Jul-2019

 ----------------------------------------------------------------------
 # B3LYP/6-31G* empiricaldispersion=gd3 guess=read geom=check nosymm in
 tegral(ultrafinegrid)
 ----------------------------------------------------------------------

 ------------------------------------------------------
 Candidate Structure: Conf:538 Charge calc in gas phase
 ------------------------------------------------------
 Structure from the checkpoint file:  "conf-538.chk"
 Charge =  1 Multiplicity = 1

                          Input orientation:
 ---------------------------------------------------------------------
 Center     Atomic      Atomic             Coordinates (Angstroms)
 Number     Number       Type             X           Y           Z
 ---------------------------------------------------------------------
      1          7           0       -5.104740    3.797472    1.052803
      2          1           0       -4.899253    4.091093    0.098227
      3          1           0       -5.735968    3.001179    0.963156
      4          6           0       -3.872726    3.324799    1.683899
      5          1           0       -3.108234    4.097833    1.532273
      6          6           0       -3.382942    2.009041    1.057034
      7          6           0       -4.058331    3.151503    3.206493
      8          1           0       -3.115616    2.809540    3.648886
      9          1           0       -4.280852    4.140212    3.622599
     10          8           0       -4.164190    1.114328    0.738428
     11          6           0       -5.186543    2.175796    3.586624
     12          1           0       -5.010354    1.199802    3.119773
     13          1           0       -6.154123    2.549735    3.245794
     14          6           0       -5.294852    1.972003    5.081388
     15          8           0       -6.282543    2.157816    5.753482
     16          8           0       -4.120605    1.531099    5.610453
     17          7           0       -2.037451    1.910440    0.849416
     18          1           0       -1.395300    2.603312    1.217587
     19          6           0       -1.422307    0.735601    0.280142
     20          1           0       -1.954333   -0.154351    0.631690
     21          6           0        0.057203    0.735372    0.683487
     22          6           0       -1.427402    0.743798   -1.291073
     23          1           0       -1.161516   -0.259333   -1.643257
     24          1           0       -0.623572    1.413703   -1.616638
     25          8           0        0.600839    1.765980    1.092889
     26          6           0       -2.709628    1.196547   -1.912027
     27          6           0       -3.746127    0.421616   -2.371654
     28          1           0       -3.854364   -0.654375   -2.369462
     29          6           0       -3.125256    2.568317   -2.070100
     30          6           0       -4.427434    2.552522   -2.642854
     31          6           0       -2.525977    3.804139   -1.768903
     32          1           0       -1.548603    3.833460   -1.296296
     33          7           0       -4.767488    1.228528   -2.846744
     34          1           0       -5.701399    0.898851   -3.046263
     35          6           0       -4.508753    4.942223   -2.621490
     36          1           0       -5.039289    5.872109   -2.803166
     37          6           0       -5.127327    3.730802   -2.936185
     38          1           0       -6.129815    3.705943   -3.354484
     39          6           0       -3.220292    4.978093   -2.041567
     40          1           0       -2.780839    5.938144   -1.787087
     41          7           0        0.730398   -0.406332    0.423644
     42          1           0        0.267449   -1.193412   -0.021213
     43          6           0        2.189293   -0.455888    0.314780
     44          1           0        2.630387   -0.001167    1.206303
     45          6           0        2.579564    0.335073   -0.951376
     46          6           0        2.608518   -1.939457    0.184445
     47          1           0        3.672371   -1.958251   -0.093616
     48          8           0        2.596848   -0.188066   -2.072021
     49          6           0        2.402496   -2.718137    1.475220
     50          1           0        3.027704   -2.314271    2.278164
     51          1           0        2.670205   -3.765440    1.312861
     52          1           0        1.356095   -2.676603    1.794125
     53          8           0        1.817031   -2.554369   -0.830751
     54          1           0        2.050819   -2.083934   -1.655121
     55          7           0        2.838393    1.649738   -0.752704
     56          1           0        2.583310    2.048231    0.145383
     57          6           0        3.005444    2.554497   -1.879216
     58          1           0        3.623067    2.047593   -2.626675
     59          6           0        3.739949    3.830143   -1.483867
     60          6           0        1.632532    2.889925   -2.523204
     61          1           0        1.030243    3.447994   -1.793446
     62          1           0        1.141352    1.923286   -2.674079
     63          8           0        4.147395    4.635494   -2.290628
     64          6           0        1.711895    3.651499   -3.851690
     65          1           0        2.296537    4.566822   -3.729406
     66          1           0        2.248549    3.050430   -4.598554
     67          6           0        0.342839    4.054454   -4.403030
     68          1           0       -0.205635    4.641775   -3.656409
     69          1           0        0.475459    4.667173   -5.303779
     70          7           0       -0.479850    2.875655   -4.729606
     71          1           0       -0.001046    1.996672   -4.887133
     72          7           0       -2.447271    4.054569   -5.150635
     73          1           0       -3.410853    4.117569   -4.832091
     74          1           0       -1.937664    4.926689   -5.140564
     75          7           0       -2.452339    1.729586   -5.116243
     76          1           0       -2.234519    0.999287   -4.443419
     77          1           0       -3.442237    1.788065   -5.319026
     78          6           0       -1.790107    2.900090   -4.976179
     79          8           0        3.839413    3.991190   -0.149511
     80          1           0        4.306976    4.834010    0.009063
     81          1           0       -4.277689    1.423071    6.567478
 ---------------------------------------------------------------------

 SCF Done:  E(RB3LYP) =  -2054.06333680     A.U. after    1 cycles

 Alpha  occ. eigenvalues --  -19.30368 -19.24461 -19.24380 -19.22885 -19.22619
 Alpha  occ. eigenvalues --  -19.22536 -19.19650 -19.18649 -14.53489 -14.52655
 Alpha  occ. eigenvalues --  -14.51768 -14.50150 -14.46714 -14.46444 -14.44652
 Alpha  occ. eigenvalues --  -14.38499 -10.48949 -10.42820 -10.39668 -10.39288
 Alpha  occ. eigenvalues --  -10.37361 -10.36896 -10.36378 -10.35050 -10.34468
 Alpha  occ. eigenvalues --  -10.33954 -10.33854 -10.33112 -10.32887 -10.31643
 Alpha  occ. eigenvalues --  -10.31581 -10.31456 -10.31179 -10.31039 -10.30984
 Alpha  occ. eigenvalues --  -10.30691 -10.30492 -10.30319 -10.29765 -10.25816
 Alpha  occ. eigenvalues --  -10.25354 -10.25243  -1.21225  -1.17678  -1.15157
 Alpha  occ. eigenvalues --   -1.15083  -1.14038  -1.12192  -1.11564  -1.10191
 Alpha  occ. eigenvalues --   -1.10032  -1.07189  -1.06190  -1.05541  -1.03542
 Alpha  occ. eigenvalues --   -1.02894  -1.01369  -0.96356  -0.95990  -0.93057
 Alpha  occ. eigenvalues --   -0.92234  -0.88862  -0.87445  -0.86002  -0.85597
 Alpha  occ. eigenvalues --   -0.85147  -0.83605  -0.81956  -0.79819  -0.79244
 Alpha  occ. eigenvalues --   -0.78806  -0.76142  -0.75257  -0.74339  -0.73855
 Alpha  occ. eigenvalues --   -0.71744  -0.71394  -0.70745  -0.70284  -0.69496
 Alpha  occ. eigenvalues --   -0.68506  -0.67876  -0.67282  -0.67033  -0.66761
 Alpha  occ. eigenvalues --   -0.65793  -0.65123  -0.65005  -0.64101  -0.61904
 Alpha  occ. eigenvalues --   -0.61770  -0.61128  -0.60834  -0.59978  -0.59668
 Alpha  occ. eigenvalues --   -0.59263  -0.58385  -0.58260  -0.58016  -0.57841
 Alpha  occ. eigenvalues --   -0.56903  -0.56549  -0.55937  -0.55487  -0.55227
 Alpha  occ. eigenvalues --   -0.54962  -0.54428  -0.54063  -0.53724  -0.53553
 Alpha  occ. eigenvalues --   -0.52940  -0.52759  -0.52408  -0.52286  -0.51699
 Alpha  occ. eigenvalues --   -0.51544  -0.51244  -0.50340  -0.50054  -0.49755
 Alpha  occ. eigenvalues --   -0.49523  -0.48948  -0.48424  -0.48112  -0.48004
 Alpha  occ. eigenvalues --   -0.47680  -0.47174  -0.46814  -0.46572  -0.46372
 Alpha  occ. eigenvalues --   -0.46223  -0.46070  -0.45875  -0.45343  -0.44670
 Alpha  occ. eigenvalues --   -0.44220  -0.43830  -0.42308  -0.42248  -0.42050
 Alpha  occ. eigenvalues --   -0.41997  -0.41523  -0.41155  -0.39825  -0.38698
 Alpha  occ. eigenvalues --   -0.38212  -0.37139  -0.36602  -0.36407  -0.35751
 Alpha  occ. eigenvalues --   -0.35301  -0.34931  -0.34076  -0.33882  -0.32182
 Alpha  occ. eigenvalues --   -0.32085  -0.30511
 Alpha virt. eigenvalues --   -0.14505  -0.13873  -0.10389  -0.10136  -0.09559
 Alpha virt. eigenvalues --   -0.08195  -0.07856  -0.06191  -0.05866  -0.05653
 Alpha virt. eigenvalues --   -0.04455  -0.04085  -0.03670  -0.02759  -0.02291

 Mulliken charges:
               1
     1  N   -0.706560
     2  H    0.306749
     3  H    0.315042
     4  C   -0.082462
     5  H    0.129052
     6  C    0.623300
     7  C   -0.263149
     8  H    0.159852
     9  H    0.170896
    10  O   -0.546514
    11  C   -0.354076
    12  H    0.189941
    13  H    0.182756
    14  C    0.562777
    15  O   -0.448518
    16  O   -0.568598
    17  N   -0.632350
    18  H    0.352567
    19  C   -0.013316
    20  H    0.192429
    21  C    0.616560
    22  C   -0.387865
    23  H    0.156171
    24  H    0.151586
    25  O   -0.549744
    26  C    0.067169
    27  C    0.004003
    28  H    0.186116
    29  C    0.076456
    30  C    0.299328
    31  C   -0.224103
    32  H    0.147440
    33  N   -0.684654
    34  H    0.354881
    35  C   -0.179552
    36  H    0.167236
    37  C   -0.211594
    38  H    0.163548
    39  C   -0.164517
    40  H    0.154598
    41  N   -0.598408
    42  H    0.356012
    43  C   -0.072222
    44  H    0.183644
    45  C    0.629882
    46  C    0.102444
    47  H    0.152194
    48  O   -0.561324
    49  C   -0.451164
    50  H    0.157062
    51  H    0.182622
    52  H    0.157824
    53  O   -0.646165
    54  H    0.419364
    55  N   -0.601723
    56  H    0.381141
    57  C   -0.050725
    58  H    0.214423
    59  C    0.597068
    60  C   -0.291269
    61  H    0.156934
    62  H    0.168994
    63  O   -0.450175
    64  C   -0.324783
    65  H    0.215998
    66  H    0.170371
    67  C   -0.158203
    68  H    0.180425
    69  H    0.191690
    70  N   -0.591107
    71  H    0.373657
    72  N   -0.735290
    73  H    0.381459
    74  H    0.380943
    75  N   -0.726579
    76  H    0.365547
    77  H    0.370327
    78  C    0.772821
    79  O   -0.561705
    80  H    0.432040
    81  H    0.413076
 Sum of Mulliken charges =   1.00000

 Dipole moment (field-independent basis, Debye):
    X=             -4.6058    Y=             12.8038    Z=            -17.6651  Tot=             22.2982
 Quadrupole moment (field-independent basis, Debye-Ang):
   XX=           -211.2377   YY=           -185.2458   ZZ=           -165.7509
   XY=             -8.8139   XZ=             71.3248   YZ=            -59.3979

 Normal termination of Gaussian 16 at Thu May 12 23:07:38 2022.
