 Gaussian 16, Revision C.01,
 Gaussian 16:  ES64L-G16RevC.01  3-Jul-2019

 ----------------------------------------------------------------------
 # B3LYP/6-31G* empiricaldispersion=gd3bj guess=read geom=check nosymm
 integral(ultrafinegrid)
 ----------------------------------------------------------------------

 ------------------------------------------------------
 Candidate Structure: Conf:684 Charge calc in gas phase
 ------------------------------------------------------
 Structure from the checkpoint file:  "conf-684.chk"
 Charge =  1 Multiplicity = 1

                          Input orientation:
 ---------------------------------------------------------------------
 Center     Atomic      Atomic             Coordinates (Angstroms)
 Number     Number       Type             X           Y           Z
 ---------------------------------------------------------------------
      1          7           0        2.386965   -3.861654   -1.725865
      2          1           0        3.371529   -3.632200   -1.856892
      3          1           0        2.329948   -4.871890   -1.608891
      4          6           0        1.930941   -3.195033   -0.510674
      5          1           0        0.871630   -3.437019   -0.371389
      6          6           0        2.090518   -1.692438   -0.708124
      7          6           0        2.720004   -3.578778    0.792407
      8          1           0        2.387350   -4.576170    1.106437
      9          1           0        3.776178   -3.663985    0.512915
     10          8           0        3.129685   -1.240887   -1.205417
     11          6           0        2.589794   -2.571734    1.897618
     12          6           0        3.573367   -1.707621    2.312426
     13          1           0        4.615428   -1.668961    2.026530
     14          6           0        1.381826   -2.169390    2.579064
     15          6           0        1.705041   -1.039576    3.383694
     16          6           0        0.049250   -2.617678    2.543081
     17          1           0       -0.225323   -3.490478    1.955704
     18          7           0        3.052174   -0.777948    3.199461
     19          1           0        3.584402   -0.049108    3.656623
     20          6           0       -0.565135   -0.824755    4.077202
     21          1           0       -1.335234   -0.321986    4.653772
     22          6           0        0.744501   -0.361036    4.139493
     23          1           0        1.009075    0.498354    4.748096
     24          6           0       -0.910050   -1.941709    3.288010
     25          1           0       -1.940742   -2.282121    3.272704
     26          7           0        1.059933   -0.934019   -0.263732
     27          1           0        0.328356   -1.448740    0.210867
     28          6           0        1.139337    0.457305    0.206631
     29          1           0        1.189825    0.399808    1.299204
     30          6           0        2.413959    1.142512   -0.306017
     31          6           0       -0.113016    1.270130   -0.167805
     32          1           0       -0.117553    1.363693   -1.259949
     33          8           0        2.456919    1.670021   -1.424255
     34          6           0       -0.035592    2.695857    0.423123
     35          1           0        0.771186    3.244935   -0.076119
     36          1           0       -0.964077    3.212106    0.151552
     37          6           0       -1.390877    0.540479    0.270754
     38          1           0       -1.370596    0.279021    1.334853
     39          1           0       -2.264660    1.176836    0.098365
     40          1           0       -1.547543   -0.380508   -0.300771
     41          6           0        0.159167    2.776731    1.943652
     42          1           0        0.055288    3.812098    2.283740
     43          1           0        1.155317    2.437053    2.249954
     44          1           0       -0.576949    2.174558    2.486171
     45          7           0        3.392654    1.181325    0.620767
     46          1           0        3.195533    0.698172    1.490555
     47          6           0        4.781790    1.617025    0.513263
     48          1           0        5.412858    0.714663    0.431837
     49          6           0        5.150050    2.191141    1.886715
     50          6           0        5.101139    2.506722   -0.697890
     51          1           0        4.295868    3.232800   -0.829176
     52          1           0        6.011530    3.066849   -0.476772
     53          8           0        4.605540    1.849948    2.918254
     54          6           0        5.296452    1.652996   -1.968896
     55          1           0        4.775539    0.700996   -1.846432
     56          1           0        6.358738    1.416661   -2.104570
     57          6           0        4.761128    2.343749   -3.227025
     58          1           0        3.752867    2.720069   -3.042640
     59          1           0        5.383355    3.194349   -3.514606
     60          7           0        4.741307    1.439992   -4.393058
     61          1           0        5.341503    1.659028   -5.175460
     62          7           0        2.988566    0.085819   -3.654485
     63          1           0        2.795400   -0.876568   -3.396004
     64          1           0        2.749874    0.743776   -2.899598
     65          7           0        4.301403   -0.587102   -5.428717
     66          1           0        5.141158   -0.521549   -5.983572
     67          1           0        3.615667   -1.278877   -5.694460
     68          6           0        4.008228    0.322522   -4.475384
     69          8           0        6.184360    3.039272    1.846538
     70          1           0        6.386050    3.296761    2.767567
 ---------------------------------------------------------------------

 SCF Done:  E(RB3LYP) =  -1582.32216615     A.U. after    1 cycles

 Alpha  occ. eigenvalues --  -19.31233 -19.25653 -19.22234 -19.21767 -14.50941
 Alpha  occ. eigenvalues --  -14.50683 -14.47903 -14.46823 -14.46441 -14.45794
 Alpha  occ. eigenvalues --  -14.40559 -10.46343 -10.43795 -10.39939 -10.38422
 Alpha  occ. eigenvalues --  -10.35638 -10.34281 -10.32427 -10.31522 -10.30626
 Alpha  occ. eigenvalues --  -10.30494 -10.29629 -10.29402 -10.28121 -10.27420
 Alpha  occ. eigenvalues --  -10.27272 -10.27078 -10.27028 -10.26966 -10.26657
 Alpha  occ. eigenvalues --  -10.26438 -10.25766 -10.25258 -10.24836  -1.22352
 Alpha  occ. eigenvalues --   -1.15050  -1.14436  -1.13284  -1.12978  -1.06419
 Alpha  occ. eigenvalues --   -1.04599  -1.03875  -1.02540  -1.02276  -0.97874
 Alpha  occ. eigenvalues --   -0.92293  -0.91724  -0.89713  -0.88546  -0.86957
 Alpha  occ. eigenvalues --   -0.83271  -0.82072  -0.81576  -0.80862  -0.79701
 Alpha  occ. eigenvalues --   -0.78753  -0.76449  -0.74685  -0.73165  -0.72843
 Alpha  occ. eigenvalues --   -0.71667  -0.71145  -0.70629  -0.68804  -0.68155
 Alpha  occ. eigenvalues --   -0.67702  -0.67105  -0.64861  -0.64147  -0.63646
 Alpha  occ. eigenvalues --   -0.62915  -0.62693  -0.61745  -0.61495  -0.60832
 Alpha  occ. eigenvalues --   -0.59854  -0.59620  -0.59009  -0.57692  -0.56971
 Alpha  occ. eigenvalues --   -0.56837  -0.55643  -0.55485  -0.55382  -0.54756
 Alpha  occ. eigenvalues --   -0.54336  -0.53354  -0.52871  -0.52470  -0.51643
 Alpha  occ. eigenvalues --   -0.51411  -0.51013  -0.50808  -0.50520  -0.50159
 Alpha  occ. eigenvalues --   -0.49767  -0.49646  -0.49026  -0.48457  -0.48129
 Alpha  occ. eigenvalues --   -0.47849  -0.46958  -0.46458  -0.46150  -0.46004
 Alpha  occ. eigenvalues --   -0.45541  -0.45227  -0.44486  -0.43724  -0.43413
 Alpha  occ. eigenvalues --   -0.43182  -0.41924  -0.41507  -0.41327  -0.40746
 Alpha  occ. eigenvalues --   -0.40236  -0.40134  -0.39912  -0.38830  -0.36900
 Alpha  occ. eigenvalues --   -0.36503  -0.36064  -0.35484  -0.34537  -0.32890
 Alpha  occ. eigenvalues --   -0.30832  -0.28766
 Alpha virt. eigenvalues --   -0.11095  -0.10796  -0.09856  -0.09229  -0.07598
 Alpha virt. eigenvalues --   -0.07012  -0.06184  -0.03381  -0.03029  -0.02665
 Alpha virt. eigenvalues --   -0.01566  -0.00731  -0.00315   0.00409   0.00569

 Mulliken charges:
               1
     1  N   -0.717123
     2  H    0.305528
     3  H    0.313593
     4  C   -0.074129
     5  H    0.149466
     6  C    0.641776
     7  C   -0.356165
     8  H    0.165029
     9  H    0.149634
    10  O   -0.584738
    11  C    0.064161
    12  C   -0.023097
    13  H    0.157128
    14  C    0.085318
    15  C    0.288855
    16  C   -0.249078
    17  H    0.137895
    18  N   -0.702440
    19  H    0.365809
    20  C   -0.154686
    21  H    0.149097
    22  C   -0.165501
    23  H    0.149536
    24  C   -0.134836
    25  H    0.145950
    26  N   -0.610351
    27  H    0.358907
    28  C   -0.060466
    29  H    0.181113
    30  C    0.672822
    31  C   -0.069270
    32  H    0.149346
    33  O   -0.593147
    34  C   -0.278771
    35  H    0.148874
    36  H    0.150443
    37  C   -0.492911
    38  H    0.166855
    39  H    0.165363
    40  H    0.147664
    41  C   -0.463227
    42  H    0.159612
    43  H    0.135100
    44  H    0.159699
    45  N   -0.627462
    46  H    0.395892
    47  C   -0.058934
    48  H    0.197911
    49  C    0.611827
    50  C   -0.283226
    51  H    0.183571
    52  H    0.187755
    53  O   -0.481628
    54  C   -0.294468
    55  H    0.194529
    56  H    0.152117
    57  C   -0.175563
    58  H    0.216015
    59  H    0.178397
    60  N   -0.601078
    61  H    0.356815
    62  N   -0.767068
    63  H    0.377937
    64  H    0.443391
    65  N   -0.764391
    66  H    0.371635
    67  H    0.383197
    68  C    0.783845
    69  O   -0.549430
    70  H    0.433780
 Sum of Mulliken charges =   1.00000

 Dipole moment (field-independent basis, Debye):
    X=             19.3685    Y=              1.1405    Z=             -8.8179  Tot=             21.3119
 Quadrupole moment (field-independent basis, Debye-Ang):
   XX=            -87.3252   YY=           -168.3333   ZZ=           -115.4456
   XY=             18.4449   XZ=            -52.4800   YZ=              6.7842

 Normal termination of Gaussian 16 at Thu Jun 23 12:42:51 2022.
