 Gaussian 16, Revision C.01,
 Gaussian 16:  ES64L-G16RevC.01  3-Jul-2019

 ----------------------------------------------------------------------
 # B3LYP/6-31G* empiricaldispersion=gd3bj guess=read geom=check nosymm
 integral(ultrafinegrid)
 ----------------------------------------------------------------------

 ------------------------------------------------------
 Candidate Structure: Conf:841 Charge calc in gas phase
 ------------------------------------------------------
 Structure from the checkpoint file:  "conf-841.chk"
 Charge =  1 Multiplicity = 1

                          Input orientation:
 ---------------------------------------------------------------------
 Center     Atomic      Atomic             Coordinates (Angstroms)
 Number     Number       Type             X           Y           Z
 ---------------------------------------------------------------------
      1          7           0        0.484836    0.654714    4.205252
      2          1           0        0.115558    1.597168    4.086341
      3          1           0        0.334331    0.397216    5.179434
      4          6           0       -0.291374   -0.232308    3.351036
      5          1           0        0.189878   -1.219044    3.349400
      6          6           0       -0.250597    0.327833    1.935812
      7          6           0       -1.780751   -0.438260    3.788904
      8          1           0       -2.262184   -1.144232    3.099856
      9          1           0       -1.755828   -0.929887    4.769546
     10          8           0       -0.152910    1.541662    1.727163
     11          6           0       -2.573043    0.829152    3.872468
     12          6           0       -2.743302    1.617499    4.985612
     13          1           0       -2.398947    1.462247    5.998975
     14          6           0       -3.263547    1.495575    2.794380
     15          6           0       -3.833086    2.684341    3.325929
     16          6           0       -3.462084    1.198222    1.437330
     17          1           0       -3.037425    0.296069    1.012450
     18          7           0       -3.490380    2.735974    4.662882
     19          1           0       -3.809268    3.430592    5.319734
     20          6           0       -4.761215    3.244315    1.202799
     21          1           0       -5.343570    3.906482    0.568807
     22          6           0       -4.583835    3.566822    2.543054
     23          1           0       -5.016334    4.469294    2.966073
     24          6           0       -4.205915    2.069757    0.654351
     25          1           0       -4.370054    1.843799   -0.395815
     26          7           0       -0.421387   -0.576438    0.931860
     27          1           0       -0.238955   -1.548788    1.140380
     28          6           0       -0.442591   -0.180519   -0.480744
     29          1           0       -0.956194    0.786387   -0.500580
     30          6           0        1.030345    0.016424   -0.902609
     31          6           0       -1.164222   -1.187215   -1.398291
     32          1           0       -0.417102   -1.931741   -1.698546
     33          8           0        1.674218   -0.805164   -1.537752
     34          6           0       -1.676018   -0.475988   -2.668992
     35          1           0       -2.142996   -1.234789   -3.308883
     36          1           0       -2.482352    0.212685   -2.376076
     37          6           0       -2.335498   -1.912078   -0.723257
     38          1           0       -3.122975   -1.214251   -0.419328
     39          1           0       -2.780053   -2.622488   -1.427998
     40          1           0       -2.033886   -2.479648    0.162303
     41          6           0       -0.631914    0.287251   -3.490318
     42          1           0       -1.086793    0.682171   -4.405321
     43          1           0        0.204218   -0.360132   -3.770520
     44          1           0       -0.219338    1.140248   -2.937887
     45          7           0        1.571399    1.194166   -0.435098
     46          1           0        1.021158    1.626195    0.316119
     47          6           0        3.006083    1.270928   -0.295430
     48          1           0        3.447616    0.798169   -1.180444
     49          6           0        3.477571    0.437046    0.904084
     50          6           0        3.468069    2.731993   -0.203303
     51          1           0        3.022459    3.195067    0.688271
     52          1           0        4.554046    2.743296   -0.065763
     53          8           0        2.779141   -0.287901    1.567571
     54          6           0        3.064322    3.524452   -1.448714
     55          1           0        1.979056    3.468667   -1.581340
     56          1           0        3.503132    3.048326   -2.338064
     57          6           0        3.455554    5.001571   -1.378449
     58          1           0        3.113930    5.558737   -2.256561
     59          1           0        2.998806    5.476260   -0.506248
     60          7           0        4.910365    5.224593   -1.246951
     61          1           0        5.295696    5.234889   -0.311553
     62          7           0        5.394312    4.938398   -3.500647
     63          1           0        5.964698    5.173022   -4.300507
     64          1           0        4.530164    4.444823   -3.670369
     65          7           0        7.048267    5.635364   -2.042245
     66          1           0        7.321108    6.095413   -1.185352
     67          1           0        7.773945    5.447120   -2.719193
     68          6           0        5.777276    5.257029   -2.257311
     69          8           0        4.807674    0.591670    1.118978
     70          1           0        5.032970    0.009688    1.870180
 ---------------------------------------------------------------------

 SCF Done:  E(RB3LYP) =  -1582.28541830     A.U. after    2 cycles

 Alpha  occ. eigenvalues --  -19.28056 -19.22257 -19.18823 -19.18739 -14.55005
 Alpha  occ. eigenvalues --  -14.54957 -14.54905 -14.43163 -14.42834 -14.42101
 Alpha  occ. eigenvalues --  -14.36523 -10.51348 -10.40102 -10.37868 -10.35367
 Alpha  occ. eigenvalues --  -10.35300 -10.32537 -10.31769 -10.30424 -10.29585
 Alpha  occ. eigenvalues --  -10.28089 -10.26905 -10.26533 -10.25080 -10.24862
 Alpha  occ. eigenvalues --  -10.24005 -10.23526 -10.23349 -10.23147 -10.23082
 Alpha  occ. eigenvalues --  -10.23045 -10.23018 -10.22920 -10.22677  -1.19805
 Alpha  occ. eigenvalues --   -1.18807  -1.11222  -1.10190  -1.09769  -1.08931
 Alpha  occ. eigenvalues --   -1.07938  -1.02610  -1.00189  -0.99345  -0.94314
 Alpha  occ. eigenvalues --   -0.92888  -0.88422  -0.87580  -0.86769  -0.84717
 Alpha  occ. eigenvalues --   -0.82876  -0.80609  -0.79476  -0.78681  -0.78084
 Alpha  occ. eigenvalues --   -0.77443  -0.77226  -0.75720  -0.74475  -0.71556
 Alpha  occ. eigenvalues --   -0.71000  -0.69831  -0.68594  -0.68096  -0.67869
 Alpha  occ. eigenvalues --   -0.66957  -0.65720  -0.64720  -0.64057  -0.63028
 Alpha  occ. eigenvalues --   -0.62570  -0.61565  -0.60875  -0.59990  -0.58751
 Alpha  occ. eigenvalues --   -0.58666  -0.57641  -0.57263  -0.56391  -0.55851
 Alpha  occ. eigenvalues --   -0.55387  -0.53979  -0.53359  -0.52886  -0.52134
 Alpha  occ. eigenvalues --   -0.51878  -0.50934  -0.50349  -0.49843  -0.49474
 Alpha  occ. eigenvalues --   -0.48780  -0.48732  -0.48318  -0.48106  -0.47797
 Alpha  occ. eigenvalues --   -0.47351  -0.47088  -0.46772  -0.46390  -0.46164
 Alpha  occ. eigenvalues --   -0.46058  -0.45967  -0.45245  -0.44682  -0.44163
 Alpha  occ. eigenvalues --   -0.43655  -0.43302  -0.42632  -0.42491  -0.41516
 Alpha  occ. eigenvalues --   -0.40905  -0.40045  -0.39853  -0.39136  -0.38497
 Alpha  occ. eigenvalues --   -0.38141  -0.37881  -0.37551  -0.36111  -0.34667
 Alpha  occ. eigenvalues --   -0.33447  -0.32512  -0.31955  -0.30707  -0.28942
 Alpha  occ. eigenvalues --   -0.26829  -0.24984
 Alpha virt. eigenvalues --   -0.15228  -0.11038  -0.07568  -0.07409  -0.06663
 Alpha virt. eigenvalues --   -0.05948  -0.05696  -0.05650  -0.04102  -0.01954
 Alpha virt. eigenvalues --   -0.01919  -0.00719  -0.00012   0.00119   0.00727

 Mulliken charges:
               1
     1  N   -0.709831
     2  H    0.316948
     3  H    0.292819
     4  C   -0.063627
     5  H    0.146304
     6  C    0.679385
     7  C   -0.376860
     8  H    0.150697
     9  H    0.150782
    10  O   -0.566465
    11  C    0.079234
    12  C   -0.011102
    13  H    0.148204
    14  C    0.091088
    15  C    0.312577
    16  C   -0.203340
    17  H    0.134247
    18  N   -0.690623
    19  H    0.331018
    20  C   -0.151540
    21  H    0.127085
    22  C   -0.161787
    23  H    0.126600
    24  C   -0.159605
    25  H    0.117980
    26  N   -0.612542
    27  H    0.344414
    28  C   -0.060715
    29  H    0.180569
    30  C    0.629886
    31  C   -0.112235
    32  H    0.164787
    33  O   -0.520343
    34  C   -0.255115
    35  H    0.146201
    36  H    0.135457
    37  C   -0.459447
    38  H    0.163517
    39  H    0.158349
    40  H    0.134033
    41  C   -0.463333
    42  H    0.145650
    43  H    0.169091
    44  H    0.129227
    45  N   -0.627425
    46  H    0.380119
    47  C   -0.059275
    48  H    0.200307
    49  C    0.605577
    50  C   -0.295997
    51  H    0.166657
    52  H    0.154732
    53  O   -0.441511
    54  C   -0.275366
    55  H    0.207002
    56  H    0.139354
    57  C   -0.196593
    58  H    0.191544
    59  H    0.207425
    60  N   -0.580821
    61  H    0.372634
    62  N   -0.752955
    63  H    0.389767
    64  H    0.398382
    65  N   -0.760127
    66  H    0.389319
    67  H    0.389570
    68  C    0.828187
    69  O   -0.581928
    70  H    0.423782
 Sum of Mulliken charges =   1.00000

 Dipole moment (field-independent basis, Debye):
    X=             23.1862    Y=             23.3986    Z=             -5.2912  Tot=             33.3630
 Quadrupole moment (field-independent basis, Debye-Ang):
   XX=            -31.6951   YY=            -67.1142   ZZ=           -133.5632
   XY=            130.8338   XZ=            -62.4290   YZ=            -43.2413

 Normal termination of Gaussian 16 at Thu Jun 23 12:43:00 2022.
