 Gaussian 16, Revision C.01,
 Gaussian 16:  ES64L-G16RevC.01  3-Jul-2019

 ----------------------------------------------------------------------
 # B3LYP/6-31G* empiricaldispersion=gd3bj guess=read geom=check nosymm
 integral(ultrafinegrid)
 ----------------------------------------------------------------------

 ------------------------------------------------------
 Candidate Structure: Conf:156 Charge calc in gas phase
 ------------------------------------------------------
 Structure from the checkpoint file:  "conf-156.chk"
 Charge =  1 Multiplicity = 1

                          Input orientation:
 ---------------------------------------------------------------------
 Center     Atomic      Atomic             Coordinates (Angstroms)
 Number     Number       Type             X           Y           Z
 ---------------------------------------------------------------------
      1          7           0       -2.452334   -2.686363    2.222908
      2          1           0       -3.145851   -2.047669    1.837531
      3          1           0       -2.404981   -3.492160    1.600505
      4          6           0       -1.126861   -2.060925    2.331148
      5          1           0       -1.242162   -1.180690    2.974733
      6          6           0       -0.580183   -1.577955    0.986228
      7          6           0       -0.149568   -3.039706    3.015054
      8          1           0       -0.429319   -4.061884    2.732399
      9          1           0        0.853058   -2.885418    2.610302
     10          8           0        0.232865   -2.193986    0.304454
     11          6           0       -0.127860   -2.849939    4.501808
     12          6           0       -1.191233   -2.888570    5.372703
     13          1           0       -2.223085   -3.144055    5.178604
     14          6           0        1.014014   -2.426409    5.268436
     15          6           0        0.570837   -2.202262    6.603107
     16          6           0        2.371314   -2.211395    4.958781
     17          1           0        2.772411   -2.473694    3.983312
     18          7           0       -0.775577   -2.501630    6.634022
     19          1           0       -1.360086   -2.476553    7.455009
     20          6           0        2.758049   -1.506510    7.260130
     21          1           0        3.447565   -1.146646    8.017468
     22          6           0        1.431868   -1.747204    7.605189
     23          1           0        1.079258   -1.582472    8.619469
     24          6           0        3.226019   -1.741238    5.952155
     25          1           0        4.272407   -1.573226    5.716912
     26          7           0       -1.040450   -0.347377    0.577028
     27          1           0       -1.809548    0.082632    1.071425
     28          6           0       -0.686779    0.160270   -0.746645
     29          1           0       -0.998615    1.211770   -0.752382
     30          6           0        0.852487    0.150198   -0.851813
     31          6           0       -1.361277   -0.571227   -1.933740
     32          1           0       -0.770862   -1.471698   -2.124822
     33          8           0        1.449535   -0.175138   -1.884722
     34          6           0       -1.327440    0.290266   -3.216844
     35          1           0       -0.289774    0.571412   -3.424458
     36          1           0       -1.643669   -0.349858   -4.050285
     37          6           0       -2.791016   -1.001095   -1.582182
     38          1           0       -3.405872   -0.159388   -1.241575
     39          1           0       -3.280769   -1.430253   -2.462510
     40          1           0       -2.798458   -1.762490   -0.797179
     41          6           0       -2.206985    1.545996   -3.202584
     42          1           0       -2.101869    2.096501   -4.143479
     43          1           0       -1.938341    2.238512   -2.395003
     44          1           0       -3.267012    1.300351   -3.086362
     45          7           0        1.500577    0.598976    0.250705
     46          1           0        0.916892    0.702193    1.074040
     47          6           0        2.874922    0.194057    0.537569
     48          1           0        3.102144   -0.665424   -0.103032
     49          6           0        3.009688   -0.316720    1.977340
     50          6           0        3.943979    1.279165    0.296797
     51          1           0        3.640466    2.205606    0.801147
     52          1           0        4.854713    0.929951    0.791085
     53          8           0        4.039104   -0.793258    2.393157
     54          6           0        4.275566    1.546396   -1.178015
     55          1           0        4.360549    0.591535   -1.710279
     56          1           0        5.261406    2.024551   -1.233180
     57          6           0        3.272573    2.447457   -1.906353
     58          1           0        2.266502    2.032255   -1.894100
     59          1           0        3.220915    3.432794   -1.435581
     60          7           0        3.653310    2.674377   -3.310955
     61          1           0        4.381674    3.357459   -3.474446
     62          7           0        2.700949    0.714239   -4.135032
     63          1           0        2.384915    0.182332   -4.933548
     64          1           0        2.350254    0.402654   -3.215766
     65          7           0        3.883387    2.123492   -5.544648
     66          1           0        4.204697    3.054570   -5.765386
     67          1           0        3.741219    1.495516   -6.321850
     68          6           0        3.402426    1.827281   -4.318446
     69          8           0        1.890585   -0.161673    2.711819
     70          1           0        2.050954   -0.551476    3.606236
 ---------------------------------------------------------------------

 SCF Done:  E(RB3LYP) =  -1582.30615863     A.U. after    1 cycles

 Alpha  occ. eigenvalues --  -19.28674 -19.23594 -19.22728 -19.20883 -14.52316
 Alpha  occ. eigenvalues --  -14.52231 -14.50729 -14.46155 -14.45860 -14.43929
 Alpha  occ. eigenvalues --  -14.40608 -10.48361 -10.41302 -10.40204 -10.37217
 Alpha  occ. eigenvalues --  -10.35450 -10.33851 -10.33477 -10.30452 -10.30306
 Alpha  occ. eigenvalues --  -10.29503 -10.27853 -10.27787 -10.27612 -10.26771
 Alpha  occ. eigenvalues --  -10.26015 -10.25967 -10.25544 -10.25018 -10.24600
 Alpha  occ. eigenvalues --  -10.24532 -10.24276 -10.24224 -10.24098  -1.19467
 Alpha  occ. eigenvalues --   -1.16851  -1.15191  -1.12751  -1.10616  -1.06246
 Alpha  occ. eigenvalues --   -1.04677  -1.03752  -1.03721  -1.01664  -0.97321
 Alpha  occ. eigenvalues --   -0.91631  -0.89863  -0.89802  -0.86870  -0.86238
 Alpha  occ. eigenvalues --   -0.83160  -0.81276  -0.80889  -0.79674  -0.79296
 Alpha  occ. eigenvalues --   -0.77811  -0.77101  -0.74339  -0.73488  -0.73044
 Alpha  occ. eigenvalues --   -0.71977  -0.70729  -0.69581  -0.68964  -0.68150
 Alpha  occ. eigenvalues --   -0.67591  -0.65676  -0.65140  -0.64884  -0.64362
 Alpha  occ. eigenvalues --   -0.62483  -0.62020  -0.61587  -0.60259  -0.59939
 Alpha  occ. eigenvalues --   -0.59463  -0.58291  -0.58113  -0.57455  -0.56908
 Alpha  occ. eigenvalues --   -0.56243  -0.55933  -0.54966  -0.54084  -0.53981
 Alpha  occ. eigenvalues --   -0.53485  -0.52849  -0.52754  -0.52311  -0.51492
 Alpha  occ. eigenvalues --   -0.51018  -0.50286  -0.49926  -0.49517  -0.49388
 Alpha  occ. eigenvalues --   -0.48811  -0.48270  -0.48132  -0.47361  -0.47217
 Alpha  occ. eigenvalues --   -0.46675  -0.46473  -0.46278  -0.45802  -0.44976
 Alpha  occ. eigenvalues --   -0.44695  -0.44272  -0.43469  -0.42920  -0.42892
 Alpha  occ. eigenvalues --   -0.41960  -0.41393  -0.41122  -0.40949  -0.40709
 Alpha  occ. eigenvalues --   -0.40330  -0.39555  -0.39227  -0.38405  -0.37490
 Alpha  occ. eigenvalues --   -0.36537  -0.35510  -0.34513  -0.33555  -0.31240
 Alpha  occ. eigenvalues --   -0.28263  -0.26159
 Alpha virt. eigenvalues --   -0.12055  -0.09751  -0.08716  -0.08382  -0.07718
 Alpha virt. eigenvalues --   -0.07211  -0.04742  -0.03913  -0.03631  -0.03179
 Alpha virt. eigenvalues --   -0.01279  -0.00350   0.00019   0.00340   0.00918

 Mulliken charges:
               1
     1  N   -0.707094
     2  H    0.301786
     3  H    0.317509
     4  C   -0.077830
     5  H    0.155013
     6  C    0.622699
     7  C   -0.344894
     8  H    0.164221
     9  H    0.167164
    10  O   -0.520207
    11  C    0.057779
    12  C    0.010451
    13  H    0.175113
    14  C    0.088841
    15  C    0.320461
    16  C   -0.334021
    17  H    0.168111
    18  N   -0.689432
    19  H    0.336196
    20  C   -0.153251
    21  H    0.138576
    22  C   -0.155666
    23  H    0.138054
    24  C   -0.130255
    25  H    0.144106
    26  N   -0.646648
    27  H    0.335227
    28  C   -0.044499
    29  H    0.164240
    30  C    0.642926
    31  C   -0.063737
    32  H    0.171987
    33  O   -0.580902
    34  C   -0.272995
    35  H    0.120501
    36  H    0.146340
    37  C   -0.469991
    38  H    0.140127
    39  H    0.164954
    40  H    0.145395
    41  C   -0.459334
    42  H    0.153178
    43  H    0.136410
    44  H    0.165792
    45  N   -0.593494
    46  H    0.371667
    47  C   -0.054228
    48  H    0.211221
    49  C    0.605054
    50  C   -0.279346
    51  H    0.154165
    52  H    0.198833
    53  O   -0.449796
    54  C   -0.273645
    55  H    0.164057
    56  H    0.156630
    57  C   -0.180322
    58  H    0.193593
    59  H    0.185895
    60  N   -0.595144
    61  H    0.359286
    62  N   -0.796336
    63  H    0.369937
    64  H    0.465981
    65  N   -0.768675
    66  H    0.379388
    67  H    0.380386
    68  C    0.820191
    69  O   -0.608955
    70  H    0.441256
 Sum of Mulliken charges =   1.00000

 Dipole moment (field-independent basis, Debye):
    X=              7.4401    Y=              8.5864    Z=            -10.5705  Tot=             15.5183
 Quadrupole moment (field-independent basis, Debye-Ang):
   XX=           -142.6351   YY=           -178.0441   ZZ=            -74.5078
   XY=             43.2948   XZ=            -65.5198   YZ=            -36.3770

 Normal termination of Gaussian 16 at Thu Jun 23 12:43:03 2022.
