 Gaussian 16, Revision C.01,
 Gaussian 16:  ES64L-G16RevC.01  3-Jul-2019

 ----------------------------------------------------------------------
 # B3LYP/6-31G* empiricaldispersion=gd3bj guess=read geom=check nosymm
 integral(ultrafinegrid)
 ----------------------------------------------------------------------

 ------------------------------------------------------
 Candidate Structure: Conf:879 Charge calc in gas phase
 ------------------------------------------------------
 Structure from the checkpoint file:  "conf-879.chk"
 Charge =  1 Multiplicity = 1

                          Input orientation:
 ---------------------------------------------------------------------
 Center     Atomic      Atomic             Coordinates (Angstroms)
 Number     Number       Type             X           Y           Z
 ---------------------------------------------------------------------
      1          7           0       -2.097645   -2.716138    2.228741
      2          1           0       -1.963902   -3.234081    1.361566
      3          1           0       -2.570422   -3.337263    2.879127
      4          6           0       -0.796429   -2.293107    2.764131
      5          1           0       -0.880899   -2.261981    3.857078
      6          6           0       -0.485439   -0.839826    2.352911
      7          6           0        0.378123   -3.226774    2.419194
      8          1           0        1.275171   -2.867159    2.939878
      9          1           0        0.161179   -4.210339    2.855136
     10          8           0        0.626881   -0.325448    2.558082
     11          6           0        0.649829   -3.389325    0.947144
     12          6           0        0.172445   -2.639822   -0.109755
     13          1           0       -0.444385   -1.753915   -0.122387
     14          6           0        1.517013   -4.398653    0.374742
     15          6           0        1.523106   -4.203535   -1.032978
     16          6           0        2.296227   -5.431282    0.924888
     17          1           0        2.316794   -5.597807    1.998065
     18          7           0        0.716652   -3.106921   -1.293005
     19          1           0        0.425062   -2.802714   -2.209894
     20          6           0        3.018605   -6.031804   -1.324164
     21          1           0        3.605238   -6.683072   -1.964498
     22          6           0        2.265610   -5.014223   -1.896715
     23          1           0        2.252469   -4.859478   -2.971689
     24          6           0        3.036398   -6.236952    0.071142
     25          1           0        3.639497   -7.041440    0.480107
     26          7           0       -1.520053   -0.201233    1.784451
     27          1           0       -2.352987   -0.781370    1.697031
     28          6           0       -1.493571    1.151758    1.245029
     29          1           0       -1.580207    1.872965    2.070488
     30          6           0       -0.139685    1.332805    0.548330
     31          6           0       -2.685089    1.373014    0.285457
     32          1           0       -2.599789    0.615962   -0.505805
     33          8           0        0.256399    0.544345   -0.304467
     34          6           0       -2.644823    2.775626   -0.365376
     35          1           0       -3.674397    3.047139   -0.624674
     36          1           0       -2.328817    3.514915    0.385176
     37          6           0       -4.016268    1.180658    1.029195
     38          1           0       -4.137125    1.941074    1.810109
     39          1           0       -4.851356    1.285007    0.330027
     40          1           0       -4.116558    0.198819    1.504046
     41          6           0       -1.789194    2.909751   -1.630981
     42          1           0       -1.930889    3.900741   -2.074689
     43          1           0       -2.083047    2.164760   -2.378952
     44          1           0       -0.721522    2.783202   -1.440160
     45          7           0        0.604201    2.405834    0.953760
     46          1           0        0.267365    2.929014    1.751187
     47          6           0        2.050883    2.258777    0.852995
     48          1           0        2.223856    1.192023    0.953090
     49          6           0        2.763984    2.881321    2.034718
     50          6           0        2.688212    2.728738   -0.494962
     51          1           0        1.915908    3.275541   -1.041961
     52          1           0        3.502610    3.438616   -0.306352
     53          8           0        3.893847    2.564231    2.371079
     54          6           0        3.192501    1.563555   -1.365227
     55          1           0        3.386219    1.936039   -2.377898
     56          1           0        2.378072    0.836261   -1.444644
     57          6           0        4.497235    0.888628   -0.891773
     58          1           0        4.751829    0.042399   -1.538962
     59          1           0        5.333021    1.589432   -0.961396
     60          7           0        4.477595    0.432820    0.506464
     61          1           0        4.639903    1.172848    1.189065
     62          7           0        3.104470   -1.415898    0.129959
     63          1           0        2.454689   -2.109507    0.492764
     64          1           0        3.061444   -1.250260   -0.862711
     65          7           0        3.434666   -0.661497    2.282924
     66          1           0        3.839337    0.061070    2.867128
     67          1           0        2.463774   -0.881229    2.536703
     68          6           0        3.667715   -0.538917    0.955060
     69          8           0        2.057076    3.821617    2.671213
     70          1           0        2.600578    4.165283    3.407758
 ---------------------------------------------------------------------

 SCF Done:  E(RB3LYP) =  -1582.33222039     A.U. after    1 cycles

 Alpha  occ. eigenvalues --  -19.33275 -19.27624 -19.22920 -19.22839 -14.49190
 Alpha  occ. eigenvalues --  -14.49137 -14.47814 -14.47500 -14.46978 -14.46166
 Alpha  occ. eigenvalues --  -14.42761 -10.45752 -10.45275 -10.39699 -10.39181
 Alpha  occ. eigenvalues --  -10.35614 -10.34860 -10.33910 -10.33110 -10.31349
 Alpha  occ. eigenvalues --  -10.31050 -10.30748 -10.30113 -10.29428 -10.29342
 Alpha  occ. eigenvalues --  -10.28331 -10.27552 -10.27513 -10.27224 -10.27161
 Alpha  occ. eigenvalues --  -10.26864 -10.26758 -10.26391 -10.25547  -1.24319
 Alpha  occ. eigenvalues --   -1.15351  -1.15170  -1.14223  -1.13640  -1.07319
 Alpha  occ. eigenvalues --   -1.04154  -1.03738  -1.03573  -1.01967  -0.99530
 Alpha  occ. eigenvalues --   -0.92609  -0.91846  -0.90619  -0.89498  -0.87020
 Alpha  occ. eigenvalues --   -0.84362  -0.82970  -0.82215  -0.81390  -0.80642
 Alpha  occ. eigenvalues --   -0.80078  -0.76878  -0.75519  -0.74048  -0.72172
 Alpha  occ. eigenvalues --   -0.71642  -0.71040  -0.70756  -0.70379  -0.68342
 Alpha  occ. eigenvalues --   -0.67954  -0.66976  -0.66492  -0.65104  -0.64732
 Alpha  occ. eigenvalues --   -0.63148  -0.62962  -0.61632  -0.61448  -0.61336
 Alpha  occ. eigenvalues --   -0.60746  -0.59726  -0.59195  -0.58885  -0.58292
 Alpha  occ. eigenvalues --   -0.57900  -0.56996  -0.56091  -0.55757  -0.55288
 Alpha  occ. eigenvalues --   -0.54217  -0.53913  -0.53611  -0.53350  -0.52934
 Alpha  occ. eigenvalues --   -0.52610  -0.52086  -0.51687  -0.51514  -0.51080
 Alpha  occ. eigenvalues --   -0.50859  -0.50639  -0.50366  -0.49360  -0.49188
 Alpha  occ. eigenvalues --   -0.48649  -0.48089  -0.47364  -0.47163  -0.46704
 Alpha  occ. eigenvalues --   -0.45719  -0.45291  -0.45243  -0.45117  -0.44274
 Alpha  occ. eigenvalues --   -0.43849  -0.42321  -0.42222  -0.42014  -0.41675
 Alpha  occ. eigenvalues --   -0.41570  -0.41451  -0.40199  -0.38598  -0.38232
 Alpha  occ. eigenvalues --   -0.37316  -0.36979  -0.36468  -0.35844  -0.34415
 Alpha  occ. eigenvalues --   -0.31271  -0.29719
 Alpha virt. eigenvalues --   -0.12678  -0.11058  -0.10231  -0.09477  -0.08343
 Alpha virt. eigenvalues --   -0.06284  -0.05066  -0.04405  -0.03182  -0.02502
 Alpha virt. eigenvalues --   -0.01506  -0.01270  -0.00643  -0.00399   0.00458

 Mulliken charges:
               1
     1  N   -0.761849
     2  H    0.328951
     3  H    0.332966
     4  C   -0.079536
     5  H    0.183813
     6  C    0.636119
     7  C   -0.348229
     8  H    0.161167
     9  H    0.168867
    10  O   -0.593501
    11  C   -0.020127
    12  C   -0.020988
    13  H    0.192952
    14  C    0.073055
    15  C    0.296029
    16  C   -0.202604
    17  H    0.138204
    18  N   -0.698698
    19  H    0.341759
    20  C   -0.146974
    21  H    0.149691
    22  C   -0.167667
    23  H    0.140740
    24  C   -0.136203
    25  H    0.146897
    26  N   -0.629373
    27  H    0.388986
    28  C    0.007289
    29  H    0.149887
    30  C    0.642142
    31  C   -0.104654
    32  H    0.149776
    33  O   -0.543789
    34  C   -0.275273
    35  H    0.160036
    36  H    0.133714
    37  C   -0.475322
    38  H    0.159891
    39  H    0.173180
    40  H    0.153902
    41  C   -0.461324
    42  H    0.159468
    43  H    0.153559
    44  H    0.157681
    45  N   -0.610966
    46  H    0.356890
    47  C   -0.034609
    48  H    0.202802
    49  C    0.590944
    50  C   -0.289829
    51  H    0.196979
    52  H    0.167834
    53  O   -0.490080
    54  C   -0.307556
    55  H    0.173194
    56  H    0.185122
    57  C   -0.187427
    58  H    0.182006
    59  H    0.192813
    60  N   -0.570759
    61  H    0.384562
    62  N   -0.739743
    63  H    0.410762
    64  H    0.372902
    65  N   -0.760779
    66  H    0.362571
    67  H    0.408860
    68  C    0.696815
    69  O   -0.548917
    70  H    0.441001
 Sum of Mulliken charges =   1.00000

 Dipole moment (field-independent basis, Debye):
    X=              5.9182    Y=              0.5397    Z=              3.6908  Tot=              6.9956
 Quadrupole moment (field-independent basis, Debye-Ang):
   XX=           -153.5988   YY=           -151.1628   ZZ=           -164.4824
   XY=              7.3940   XZ=             -4.3972   YZ=              7.2628

 Normal termination of Gaussian 16 at Thu Jun 23 12:42:51 2022.
