 Gaussian 16, Revision C.01,
 Gaussian 16:  ES64L-G16RevC.01  3-Jul-2019

 ----------------------------------------------------------------------
 # B3LYP/6-31G* empiricaldispersion=gd3bj guess=read geom=check nosymm
 integral(ultrafinegrid)
 ----------------------------------------------------------------------

 ------------------------------------------------------
 Candidate Structure: Conf:474 Charge calc in gas phase
 ------------------------------------------------------
 Structure from the checkpoint file:  "conf-474.chk"
 Charge =  1 Multiplicity = 1

                          Input orientation:
 ---------------------------------------------------------------------
 Center     Atomic      Atomic             Coordinates (Angstroms)
 Number     Number       Type             X           Y           Z
 ---------------------------------------------------------------------
      1          7           0       -1.770740   -2.571654    2.103458
      2          1           0       -1.928143   -3.133684    2.938551
      3          1           0       -2.665875   -2.150490    1.864500
      4          6           0       -0.769037   -1.537946    2.398430
      5          1           0       -1.176922   -0.696427    2.988855
      6          6           0       -0.283170   -0.998132    1.049657
      7          6           0        0.418873   -2.129790    3.175931
      8          1           0        0.892269   -2.882366    2.538278
      9          1           0        1.156415   -1.330620    3.313037
     10          8           0        0.734328   -1.383070    0.486473
     11          6           0        0.027753   -2.721077    4.496589
     12          6           0        0.008778   -2.087365    5.715903
     13          1           0        0.291524   -1.075323    5.972129
     14          6           0       -0.435616   -4.069887    4.732274
     15          6           0       -0.717873   -4.182546    6.122134
     16          6           0       -0.631592   -5.190903    3.904755
     17          1           0       -0.431991   -5.128209    2.838923
     18          7           0       -0.441307   -2.956082    6.692759
     19          1           0       -0.510866   -2.742382    7.675234
     20          6           0       -1.367233   -6.458399    5.852724
     21          1           0       -1.727600   -7.395619    6.266032
     22          6           0       -1.183326   -5.369323    6.695857
     23          1           0       -1.393420   -5.438973    7.759414
     24          6           0       -1.094616   -6.370490    4.471979
     25          1           0       -1.249817   -7.242859    3.844299
     26          7           0       -1.065650   -0.006124    0.502723
     27          1           0       -1.971049    0.159932    0.921690
     28          6           0       -0.915693    0.361335   -0.910269
     29          1           0       -1.502887    1.278934   -1.036466
     30          6           0        0.559663    0.728600   -1.164347
     31          6           0       -1.418007   -0.708008   -1.914487
     32          1           0       -0.601208   -1.424554   -2.042946
     33          8           0        1.152202    0.448067   -2.196811
     34          6           0       -1.700603   -0.080258   -3.297877
     35          1           0       -0.799899    0.439667   -3.636953
     36          1           0       -1.861880   -0.904564   -4.004062
     37          6           0       -2.636151   -1.468943   -1.373808
     38          1           0       -3.442305   -0.793750   -1.058972
     39          1           0       -3.044922   -2.115966   -2.157248
     40          1           0       -2.369116   -2.108533   -0.527848
     41          6           0       -2.906860    0.863676   -3.364076
     42          1           0       -3.018140    1.268213   -4.375635
     43          1           0       -2.807255    1.721531   -2.686725
     44          1           0       -3.841369    0.351933   -3.111835
     45          7           0        1.153902    1.455781   -0.152061
     46          1           0        0.639596    1.430418    0.721067
     47          6           0        2.598564    1.314955    0.000580
     48          1           0        2.852452    0.247307   -0.101074
     49          6           0        3.041502    1.708632    1.402103
     50          6           0        3.387195    2.092216   -1.060138
     51          1           0        4.451204    1.901939   -0.884942
     52          1           0        3.083593    1.648352   -2.015276
     53          8           0        4.108766    2.215227    1.666404
     54          6           0        3.104653    3.594217   -1.062150
     55          1           0        3.445780    4.039467   -0.120602
     56          1           0        2.023682    3.761538   -1.126084
     57          6           0        3.752769    4.326076   -2.236820
     58          1           0        3.400510    3.936875   -3.196575
     59          1           0        3.507863    5.391787   -2.216511
     60          7           0        5.227763    4.240696   -2.239363
     61          1           0        5.716539    4.817928   -1.566130
     62          7           0        5.425213    2.380612   -3.624488
     63          1           0        5.941781    1.887062   -4.338363
     64          1           0        4.534060    1.997915   -3.337305
     65          7           0        7.298146    3.616196   -3.064784
     66          1           0        7.712576    4.497710   -2.797760
     67          1           0        7.922380    2.877771   -3.356673
     68          6           0        5.973237    3.408559   -2.964741
     69          8           0        2.122186    1.391484    2.341602
     70          1           0        2.501778    1.639878    3.206155
 ---------------------------------------------------------------------

 SCF Done:  E(RB3LYP) =  -1582.27912229     A.U. after    2 cycles

 Alpha  occ. eigenvalues --  -19.30107 -19.24207 -19.20188 -19.19335 -14.53910
 Alpha  occ. eigenvalues --  -14.53880 -14.53544 -14.44127 -14.43737 -14.43136
 Alpha  occ. eigenvalues --  -14.38094 -10.50188 -10.42331 -10.37097 -10.36781
 Alpha  occ. eigenvalues --  -10.35833 -10.33493 -10.31006 -10.30332 -10.29580
 Alpha  occ. eigenvalues --  -10.28995 -10.27232 -10.26727 -10.25232 -10.24663
 Alpha  occ. eigenvalues --  -10.23665 -10.23524 -10.23502 -10.23394 -10.23368
 Alpha  occ. eigenvalues --  -10.23256 -10.23042 -10.22961 -10.22504  -1.20899
 Alpha  occ. eigenvalues --   -1.18605  -1.12404  -1.11871  -1.10989  -1.07802
 Alpha  occ. eigenvalues --   -1.06697  -1.02903  -1.01580  -0.99959  -0.95422
 Alpha  occ. eigenvalues --   -0.92096  -0.88451  -0.87502  -0.86742  -0.85028
 Alpha  occ. eigenvalues --   -0.82235  -0.80790  -0.79663  -0.79018  -0.78107
 Alpha  occ. eigenvalues --   -0.77304  -0.76192  -0.76079  -0.74510  -0.72067
 Alpha  occ. eigenvalues --   -0.71635  -0.69881  -0.68467  -0.67564  -0.67088
 Alpha  occ. eigenvalues --   -0.66954  -0.66310  -0.65176  -0.63948  -0.63367
 Alpha  occ. eigenvalues --   -0.61604  -0.60775  -0.60578  -0.60071  -0.58903
 Alpha  occ. eigenvalues --   -0.58699  -0.58465  -0.57419  -0.57231  -0.56292
 Alpha  occ. eigenvalues --   -0.55293  -0.55085  -0.54212  -0.53164  -0.52898
 Alpha  occ. eigenvalues --   -0.52529  -0.52147  -0.51669  -0.51395  -0.50765
 Alpha  occ. eigenvalues --   -0.49705  -0.48803  -0.48364  -0.48329  -0.47937
 Alpha  occ. eigenvalues --   -0.47763  -0.47292  -0.46969  -0.46426  -0.46051
 Alpha  occ. eigenvalues --   -0.45716  -0.44994  -0.44827  -0.44621  -0.44034
 Alpha  occ. eigenvalues --   -0.43800  -0.43010  -0.42744  -0.42184  -0.42107
 Alpha  occ. eigenvalues --   -0.42043  -0.41834  -0.39716  -0.39474  -0.38603
 Alpha  occ. eigenvalues --   -0.38111  -0.38030  -0.37945  -0.37763  -0.35070
 Alpha  occ. eigenvalues --   -0.34316  -0.33541  -0.32565  -0.32004  -0.29873
 Alpha  occ. eigenvalues --   -0.27004  -0.25164
 Alpha virt. eigenvalues --   -0.14310  -0.09801  -0.09385  -0.06733  -0.05876
 Alpha virt. eigenvalues --   -0.05743  -0.05658  -0.05265  -0.04372  -0.02700
 Alpha virt. eigenvalues --   -0.02200  -0.00903  -0.00828   0.00956   0.01161

 Mulliken charges:
               1
     1  N   -0.727000
     2  H    0.337073
     3  H    0.297666
     4  C   -0.079460
     5  H    0.115714
     6  C    0.658908
     7  C   -0.347862
     8  H    0.184654
     9  H    0.136580
    10  O   -0.518935
    11  C    0.051757
    12  C   -0.000720
    13  H    0.139465
    14  C    0.056592
    15  C    0.315344
    16  C   -0.217271
    17  H    0.147788
    18  N   -0.689144
    19  H    0.332285
    20  C   -0.149899
    21  H    0.134716
    22  C   -0.161362
    23  H    0.130768
    24  C   -0.139818
    25  H    0.131563
    26  N   -0.646965
    27  H    0.333042
    28  C   -0.051713
    29  H    0.163430
    30  C    0.628423
    31  C   -0.062664
    32  H    0.169845
    33  O   -0.523315
    34  C   -0.274315
    35  H    0.155439
    36  H    0.143261
    37  C   -0.492808
    38  H    0.128054
    39  H    0.161174
    40  H    0.177944
    41  C   -0.459083
    42  H    0.154604
    43  H    0.131214
    44  H    0.156593
    45  N   -0.620179
    46  H    0.362483
    47  C   -0.038974
    48  H    0.220300
    49  C    0.590143
    50  C   -0.311895
    51  H    0.150612
    52  H    0.179780
    53  O   -0.465849
    54  C   -0.265270
    55  H    0.170193
    56  H    0.187491
    57  C   -0.195002
    58  H    0.190626
    59  H    0.199781
    60  N   -0.578480
    61  H    0.369512
    62  N   -0.754604
    63  H    0.385535
    64  H    0.403694
    65  N   -0.760142
    66  H    0.386020
    67  H    0.387074
    68  C    0.817070
    69  O   -0.569482
    70  H    0.428001
 Sum of Mulliken charges =   1.00000

 Dipole moment (field-independent basis, Debye):
    X=             19.8584    Y=             15.6422    Z=             -4.8276  Tot=             25.7360
 Quadrupole moment (field-independent basis, Debye-Ang):
   XX=            -37.2425   YY=           -140.0755   ZZ=           -114.6153
   XY=             89.4473   XZ=            -78.7465   YZ=            -41.8217

 Normal termination of Gaussian 16 at Thu Jun 23 12:42:56 2022.
