 Gaussian 16, Revision C.01,
 Gaussian 16:  ES64L-G16RevC.01  3-Jul-2019

 ----------------------------------------------------------------------
 # B3LYP/6-31G* empiricaldispersion=gd3bj guess=read geom=check nosymm
 integral(ultrafinegrid)
 ----------------------------------------------------------------------

 ------------------------------------------------------
 Candidate Structure: Conf:883 Charge calc in gas phase
 ------------------------------------------------------
 Structure from the checkpoint file:  "conf-883.chk"
 Charge =  1 Multiplicity = 1

                          Input orientation:
 ---------------------------------------------------------------------
 Center     Atomic      Atomic             Coordinates (Angstroms)
 Number     Number       Type             X           Y           Z
 ---------------------------------------------------------------------
      1          7           0        0.523145   -3.508763    1.105858
      2          1           0       -0.174241   -3.800791    0.422701
      3          1           0        1.417987   -3.491411    0.617178
      4          6           0        0.235379   -2.158929    1.582617
      5          1           0       -0.798250   -2.138906    1.946115
      6          6           0        0.440731   -1.107258    0.494600
      7          6           0        1.174705   -1.785023    2.753073
      8          1           0        2.205379   -1.914540    2.389324
      9          1           0        1.061396   -0.713745    2.958122
     10          8           0        1.479346   -1.093357   -0.181246
     11          6           0        0.920701   -2.544520    4.019437
     12          6           0        0.708388   -3.895208    4.173164
     13          1           0        0.669232   -4.666607    3.419717
     14          6           0        0.862329   -1.962371    5.339108
     15          6           0        0.608009   -3.022814    6.252879
     16          6           0        0.996754   -0.654973    5.838221
     17          1           0        1.189045    0.178839    5.168822
     18          7           0        0.520881   -4.183456    5.510515
     19          1           0        0.331920   -5.100560    5.883757
     20          6           0        0.622441   -1.508534    8.092083
     21          1           0        0.531908   -1.308909    9.155569
     22          6           0        0.485783   -2.811465    7.629082
     23          1           0        0.290713   -3.633758    8.311672
     24          6           0        0.874330   -0.441837    7.205248
     25          1           0        0.970740    0.564615    7.602717
     26          7           0       -0.512506   -0.153398    0.363208
     27          1           0       -1.383621   -0.276605    0.860675
     28          6           0       -0.422881    0.933781   -0.621215
     29          1           0       -1.142129    1.688780   -0.281304
     30          6           0        0.989261    1.541496   -0.482857
     31          6           0       -0.761886    0.541229   -2.082177
     32          1           0        0.183050    0.304373   -2.580491
     33          8           0        1.762740    1.646729   -1.440320
     34          6           0       -1.427897    1.722716   -2.818300
     35          1           0       -1.635194    1.397563   -3.844853
     36          1           0       -2.409935    1.906774   -2.357295
     37          6           0       -1.673121   -0.689786   -2.150088
     38          1           0       -2.616415   -0.528373   -1.613135
     39          1           0       -1.924822   -0.904262   -3.193250
     40          1           0       -1.192103   -1.580878   -1.736501
     41          6           0       -0.636394    3.033072   -2.866543
     42          1           0       -1.178483    3.777896   -3.457933
     43          1           0        0.349473    2.886592   -3.316535
     44          1           0       -0.483120    3.464772   -1.869903
     45          7           0        1.308046    1.934097    0.769042
     46          1           0        0.660653    1.731898    1.524869
     47          6           0        2.684773    2.117974    1.194665
     48          1           0        3.277614    1.271184    0.830309
     49          6           0        2.683068    2.000099    2.713551
     50          6           0        3.329385    3.442482    0.700451
     51          1           0        2.796185    3.749098   -0.204310
     52          1           0        3.153754    4.226394    1.443133
     53          8           0        1.686135    1.805229    3.375912
     54          6           0        4.838311    3.321354    0.410738
     55          1           0        5.311151    2.659644    1.144444
     56          1           0        5.311317    4.302474    0.529077
     57          6           0        5.157622    2.841786   -1.014172
     58          1           0        4.810381    3.577754   -1.745106
     59          1           0        6.238660    2.753990   -1.150671
     60          7           0        4.497128    1.579286   -1.365213
     61          1           0        3.475419    1.644143   -1.498121
     62          7           0        6.291366    0.133895   -1.003715
     63          1           0        6.634514   -0.798698   -0.827146
     64          1           0        6.957394    0.794461   -1.375278
     65          7           0        4.118239   -0.677658   -1.070706
     66          1           0        3.108955   -0.564912   -0.940750
     67          1           0        4.458923   -1.627136   -1.105920
     68          6           0        4.966670    0.352729   -1.154911
     69          8           0        3.914695    2.123491    3.227287
     70          1           0        3.840515    2.032492    4.197730
 ---------------------------------------------------------------------

 SCF Done:  E(RB3LYP) =  -1582.32001461     A.U. after    1 cycles

 Alpha  occ. eigenvalues --  -19.31980 -19.26620 -19.24470 -19.23594 -14.51362
 Alpha  occ. eigenvalues --  -14.49922 -14.49440 -14.47998 -14.47706 -14.43580
 Alpha  occ. eigenvalues --  -14.41006 -10.46987 -10.44526 -10.41240 -10.39670
 Alpha  occ. eigenvalues --  -10.36239 -10.35442 -10.34546 -10.31881 -10.30855
 Alpha  occ. eigenvalues --  -10.30617 -10.28174 -10.27464 -10.27333 -10.27269
 Alpha  occ. eigenvalues --  -10.26508 -10.26290 -10.25175 -10.24194 -10.24182
 Alpha  occ. eigenvalues --  -10.23937 -10.23837 -10.23638 -10.23372  -1.23121
 Alpha  occ. eigenvalues --   -1.16556  -1.15396  -1.14872  -1.14246  -1.05379
 Alpha  occ. eigenvalues --   -1.04789  -1.03753  -1.03489  -1.03385  -0.98398
 Alpha  occ. eigenvalues --   -0.92300  -0.90467  -0.89178  -0.87825  -0.86578
 Alpha  occ. eigenvalues --   -0.83594  -0.81614  -0.81142  -0.80247  -0.78795
 Alpha  occ. eigenvalues --   -0.77811  -0.77056  -0.74591  -0.73712  -0.72915
 Alpha  occ. eigenvalues --   -0.72764  -0.70793  -0.70250  -0.69823  -0.68550
 Alpha  occ. eigenvalues --   -0.67549  -0.65792  -0.65064  -0.64759  -0.64444
 Alpha  occ. eigenvalues --   -0.63358  -0.62868  -0.61839  -0.61561  -0.60512
 Alpha  occ. eigenvalues --   -0.59941  -0.59377  -0.59163  -0.58562  -0.57922
 Alpha  occ. eigenvalues --   -0.56744  -0.56636  -0.55581  -0.54985  -0.54787
 Alpha  occ. eigenvalues --   -0.54445  -0.53365  -0.53080  -0.52788  -0.52308
 Alpha  occ. eigenvalues --   -0.51872  -0.51604  -0.50831  -0.50187  -0.49961
 Alpha  occ. eigenvalues --   -0.49713  -0.49434  -0.48590  -0.48222  -0.47575
 Alpha  occ. eigenvalues --   -0.47285  -0.47009  -0.46640  -0.46107  -0.45478
 Alpha  occ. eigenvalues --   -0.45380  -0.44650  -0.44194  -0.43972  -0.43260
 Alpha  occ. eigenvalues --   -0.42380  -0.42101  -0.41470  -0.40837  -0.40797
 Alpha  occ. eigenvalues --   -0.40386  -0.39432  -0.39061  -0.38706  -0.38656
 Alpha  occ. eigenvalues --   -0.37794  -0.37575  -0.36518  -0.33538  -0.32530
 Alpha  occ. eigenvalues --   -0.27628  -0.25765
 Alpha virt. eigenvalues --   -0.11640  -0.11318  -0.10534  -0.09368  -0.07444
 Alpha virt. eigenvalues --   -0.06435  -0.04402  -0.03800  -0.03452  -0.02670
 Alpha virt. eigenvalues --   -0.01593  -0.00464  -0.00068   0.00180   0.00515

 Mulliken charges:
               1
     1  N   -0.689119
     2  H    0.311675
     3  H    0.304968
     4  C   -0.078968
     5  H    0.151167
     6  C    0.631173
     7  C   -0.358582
     8  H    0.141730
     9  H    0.155094
    10  O   -0.584964
    11  C    0.058707
    12  C    0.012500
    13  H    0.176259
    14  C    0.064785
    15  C    0.315525
    16  C   -0.230722
    17  H    0.136448
    18  N   -0.692018
    19  H    0.333573
    20  C   -0.150724
    21  H    0.133427
    22  C   -0.160914
    23  H    0.132101
    24  C   -0.146430
    25  H    0.120850
    26  N   -0.623014
    27  H    0.351815
    28  C   -0.046369
    29  H    0.178710
    30  C    0.651107
    31  C   -0.079092
    32  H    0.164277
    33  O   -0.571795
    34  C   -0.264888
    35  H    0.153736
    36  H    0.136426
    37  C   -0.458739
    38  H    0.140595
    39  H    0.168775
    40  H    0.142223
    41  C   -0.454367
    42  H    0.161859
    43  H    0.162083
    44  H    0.130237
    45  N   -0.599852
    46  H    0.368461
    47  C   -0.034676
    48  H    0.180271
    49  C    0.592113
    50  C   -0.291264
    51  H    0.183803
    52  H    0.180497
    53  O   -0.448011
    54  C   -0.277590
    55  H    0.174178
    56  H    0.176163
    57  C   -0.172241
    58  H    0.196905
    59  H    0.161077
    60  N   -0.618908
    61  H    0.429278
    62  N   -0.757258
    63  H    0.373376
    64  H    0.379775
    65  N   -0.792577
    66  H    0.440331
    67  H    0.361880
    68  C    0.779444
    69  O   -0.555956
    70  H    0.439664
 Sum of Mulliken charges =   1.00000

 Dipole moment (field-independent basis, Debye):
    X=             16.0675    Y=              1.2373    Z=             -0.1306  Tot=             16.1156
 Quadrupole moment (field-independent basis, Debye-Ang):
   XX=            -86.9228   YY=           -156.0290   ZZ=           -175.9968
   XY=             16.4204   XZ=             -8.6442   YZ=             -7.8342

 Normal termination of Gaussian 16 at Thu Jun 23 12:42:49 2022.
