 Gaussian 16, Revision C.01,
 Gaussian 16:  ES64L-G16RevC.01  3-Jul-2019

 ----------------------------------------------------------------------
 # B3LYP/6-31G* empiricaldispersion=gd3bj guess=read geom=check nosymm
 integral(ultrafinegrid)
 ----------------------------------------------------------------------

 ------------------------------------------------------
 Candidate Structure: Conf:962 Charge calc in gas phase
 ------------------------------------------------------
 Structure from the checkpoint file:  "conf-962.chk"
 Charge =  1 Multiplicity = 1

                          Input orientation:
 ---------------------------------------------------------------------
 Center     Atomic      Atomic             Coordinates (Angstroms)
 Number     Number       Type             X           Y           Z
 ---------------------------------------------------------------------
      1          7           0        2.644070   -4.609944    1.498344
      2          1           0        2.311958   -5.039991    0.636236
      3          1           0        3.448489   -4.049770    1.215146
      4          6           0        1.624475   -3.707164    2.009856
      5          1           0        0.687014   -4.267699    2.091770
      6          6           0        1.377216   -2.507157    1.082180
      7          6           0        2.035237   -3.238907    3.434840
      8          1           0        2.237016   -4.157871    3.996711
      9          1           0        2.987830   -2.699605    3.358872
     10          8           0        2.175693   -2.181245    0.202920
     11          6           0        1.029263   -2.378909    4.139039
     12          6           0        1.239493   -1.112894    4.629526
     13          1           0        2.148194   -0.529714    4.643067
     14          6           0       -0.365858   -2.682876    4.377060
     15          6           0       -0.942866   -1.542566    5.008301
     16          6           0       -1.188820   -3.795727    4.115202
     17          1           0       -0.778850   -4.694880    3.664955
     18          7           0        0.057237   -0.599974    5.138304
     19          1           0       -0.020396    0.254991    5.667042
     20          6           0       -3.074723   -2.605090    5.097561
     21          1           0       -4.124942   -2.598814    5.372803
     22          6           0       -2.290581   -1.491855    5.375583
     23          1           0       -2.709566   -0.617108    5.864952
     24          6           0       -2.529871   -3.745370    4.473692
     25          1           0       -3.168257   -4.602465    4.282722
     26          7           0        0.242276   -1.790576    1.319978
     27          1           0       -0.374624   -2.088502    2.065760
     28          6           0       -0.151482   -0.644913    0.514516
     29          1           0       -0.788929   -0.026418    1.161592
     30          6           0        1.092866    0.193222    0.173576
     31          6           0       -0.943816   -0.995166   -0.764366
     32          1           0       -0.211341   -1.333201   -1.505416
     33          8           0        1.319713    0.589110   -0.977875
     34          6           0       -1.654028    0.266203   -1.306525
     35          1           0       -2.634796    0.360453   -0.820945
     36          1           0       -1.087773    1.162735   -1.029908
     37          6           0       -1.948736   -2.123111   -0.510074
     38          1           0       -2.637481   -1.867716    0.305559
     39          1           0       -2.551367   -2.308007   -1.405259
     40          1           0       -1.447875   -3.059031   -0.248703
     41          6           0       -1.829075    0.244160   -2.826363
     42          1           0       -2.357347    1.136507   -3.186214
     43          1           0       -2.407849   -0.624686   -3.156583
     44          1           0       -0.852743    0.184357   -3.325307
     45          7           0        1.886665    0.544142    1.209815
     46          1           0        1.777714    0.051940    2.093358
     47          6           0        3.220952    1.039976    0.911988
     48          1           0        3.663231    0.381894    0.150145
     49          6           0        4.082222    0.869483    2.149164
     50          6           0        3.214857    2.496879    0.364346
     51          1           0        2.181715    2.852572    0.405904
     52          1           0        3.806202    3.155075    1.008820
     53          8           0        3.723564    0.345436    3.181139
     54          6           0        3.739677    2.557963   -1.071971
     55          1           0        3.314004    1.729146   -1.641451
     56          1           0        4.826034    2.406917   -1.078864
     57          6           0        3.478006    3.879105   -1.796795
     58          1           0        4.081506    4.677960   -1.358648
     59          1           0        3.766146    3.788205   -2.849403
     60          7           0        2.087801    4.395279   -1.739753
     61          1           0        1.971528    5.317431   -1.342328
     62          7           0        0.929249    2.625309   -2.715664
     63          1           0        0.167498    2.327095   -3.312058
     64          1           0        1.282491    1.893331   -2.077529
     65          7           0        0.034151    4.767709   -2.732576
     66          1           0        0.205154    5.758386   -2.830069
     67          1           0       -0.876071    4.424941   -3.005227
     68          6           0        1.021581    3.914375   -2.395983
     69          8           0        5.321136    1.349758    1.946842
     70          1           0        5.836610    1.177571    2.758168
 ---------------------------------------------------------------------

 SCF Done:  E(RB3LYP) =  -1582.30756606     A.U. after    2 cycles

 Alpha  occ. eigenvalues --  -19.30445 -19.25112 -19.22877 -19.19782 -14.52916
 Alpha  occ. eigenvalues --  -14.52519 -14.50585 -14.45842 -14.44928 -14.44250
 Alpha  occ. eigenvalues --  -14.37661 -10.48483 -10.43086 -10.39673 -10.36099
 Alpha  occ. eigenvalues --  -10.36086 -10.34461 -10.32741 -10.30134 -10.30074
 Alpha  occ. eigenvalues --  -10.29291 -10.28948 -10.28458 -10.27438 -10.27186
 Alpha  occ. eigenvalues --  -10.26980 -10.25879 -10.25725 -10.25493 -10.25415
 Alpha  occ. eigenvalues --  -10.25297 -10.25234 -10.25158 -10.24730  -1.21595
 Alpha  occ. eigenvalues --   -1.16942  -1.14721  -1.12698  -1.11522  -1.06310
 Alpha  occ. eigenvalues --   -1.04777  -1.04747  -1.03105  -1.00846  -0.95467
 Alpha  occ. eigenvalues --   -0.91964  -0.90658  -0.89784  -0.87345  -0.86820
 Alpha  occ. eigenvalues --   -0.83388  -0.81565  -0.80901  -0.80174  -0.79300
 Alpha  occ. eigenvalues --   -0.78155  -0.77711  -0.74356  -0.73352  -0.72798
 Alpha  occ. eigenvalues --   -0.72629  -0.70206  -0.69732  -0.68956  -0.68376
 Alpha  occ. eigenvalues --   -0.67385  -0.66117  -0.65766  -0.65196  -0.65018
 Alpha  occ. eigenvalues --   -0.63141  -0.61923  -0.61316  -0.60933  -0.60190
 Alpha  occ. eigenvalues --   -0.59654  -0.58819  -0.58177  -0.57406  -0.56332
 Alpha  occ. eigenvalues --   -0.55707  -0.55230  -0.55185  -0.54741  -0.54215
 Alpha  occ. eigenvalues --   -0.53857  -0.52903  -0.52791  -0.52272  -0.51558
 Alpha  occ. eigenvalues --   -0.51313  -0.50831  -0.50247  -0.49733  -0.49651
 Alpha  occ. eigenvalues --   -0.49193  -0.48609  -0.48263  -0.47808  -0.47146
 Alpha  occ. eigenvalues --   -0.46945  -0.46163  -0.45879  -0.45720  -0.45148
 Alpha  occ. eigenvalues --   -0.44755  -0.44722  -0.44334  -0.43607  -0.42929
 Alpha  occ. eigenvalues --   -0.42618  -0.42011  -0.41538  -0.41272  -0.41105
 Alpha  occ. eigenvalues --   -0.40909  -0.40175  -0.39610  -0.38680  -0.37173
 Alpha  occ. eigenvalues --   -0.36350  -0.34511  -0.33496  -0.33387  -0.30555
 Alpha  occ. eigenvalues --   -0.29210  -0.27137
 Alpha virt. eigenvalues --   -0.13811  -0.09954  -0.09236  -0.08594  -0.08116
 Alpha virt. eigenvalues --   -0.05776  -0.05485  -0.04487  -0.04047  -0.02464
 Alpha virt. eigenvalues --   -0.01432  -0.00942  -0.00018   0.00276   0.01162

 Mulliken charges:
               1
     1  N   -0.684272
     2  H    0.306868
     3  H    0.307967
     4  C   -0.108235
     5  H    0.155707
     6  C    0.586054
     7  C   -0.332393
     8  H    0.186173
     9  H    0.149549
    10  O   -0.536694
    11  C    0.055904
    12  C   -0.031605
    13  H    0.193796
    14  C    0.023186
    15  C    0.314256
    16  C   -0.226050
    17  H    0.145550
    18  N   -0.688364
    19  H    0.333419
    20  C   -0.150897
    21  H    0.140860
    22  C   -0.164652
    23  H    0.133698
    24  C   -0.137914
    25  H    0.139178
    26  N   -0.621513
    27  H    0.363274
    28  C   -0.048986
    29  H    0.166731
    30  C    0.648941
    31  C   -0.056388
    32  H    0.164494
    33  O   -0.583888
    34  C   -0.258312
    35  H    0.145073
    36  H    0.107471
    37  C   -0.466569
    38  H    0.145919
    39  H    0.158735
    40  H    0.159364
    41  C   -0.466552
    42  H    0.127564
    43  H    0.175704
    44  H    0.142219
    45  N   -0.617014
    46  H    0.376863
    47  C   -0.013008
    48  H    0.221942
    49  C    0.570176
    50  C   -0.273288
    51  H    0.156981
    52  H    0.168876
    53  O   -0.461053
    54  C   -0.306978
    55  H    0.187907
    56  H    0.181496
    57  C   -0.158614
    58  H    0.182085
    59  H    0.196425
    60  N   -0.595260
    61  H    0.362301
    62  N   -0.766411
    63  H    0.370704
    64  H    0.456817
    65  N   -0.753103
    66  H    0.379216
    67  H    0.380877
    68  C    0.764043
    69  O   -0.559249
    70  H    0.432901
 Sum of Mulliken charges =   1.00000

 Dipole moment (field-independent basis, Debye):
    X=              4.2671    Y=             16.3987    Z=             -3.3772  Tot=             17.2780
 Quadrupole moment (field-independent basis, Debye-Ang):
   XX=           -158.0220   YY=           -118.7165   ZZ=           -157.4773
   XY=             29.8077   XZ=              2.1040   YZ=            -26.9757

 Normal termination of Gaussian 16 at Thu Jun 23 12:43:02 2022.
