 Gaussian 16, Revision C.01,
 Gaussian 16:  ES64L-G16RevC.01  3-Jul-2019

 ----------------------------------------------------------------------
 # B3LYP/6-31G* empiricaldispersion=gd3bj guess=read geom=check nosymm
 integral(ultrafinegrid)
 ----------------------------------------------------------------------

 ------------------------------------------------------
 Candidate Structure: Conf:472 Charge calc in gas phase
 ------------------------------------------------------
 Structure from the checkpoint file:  "conf-472.chk"
 Charge =  1 Multiplicity = 1

                          Input orientation:
 ---------------------------------------------------------------------
 Center     Atomic      Atomic             Coordinates (Angstroms)
 Number     Number       Type             X           Y           Z
 ---------------------------------------------------------------------
      1          7           0       -0.263718   -3.622698    1.108166
      2          1           0        0.590786   -3.696417    0.558495
      3          1           0       -0.204036   -4.339845    1.828567
      4          6           0       -0.300328   -2.313832    1.741079
      5          1           0       -1.329927   -2.143452    2.082651
      6          6           0        0.001551   -1.279072    0.662860
      7          6           0        0.641751   -2.068731    2.993509
      8          1           0        1.183425   -1.126170    2.865024
      9          1           0        0.001569   -1.938712    3.872771
     10          8           0        0.812894   -1.462622   -0.241551
     11          6           0        1.626605   -3.158422    3.285017
     12          6           0        1.656039   -3.922652    4.427541
     13          1           0        0.977247   -3.922552    5.269425
     14          6           0        2.782256   -3.546730    2.510883
     15          6           0        3.478950   -4.537166    3.259307
     16          6           0        3.292460   -3.166628    1.257262
     17          1           0        2.743151   -2.470984    0.632190
     18          7           0        2.762302   -4.749717    4.418483
     19          1           0        3.012321   -5.396264    5.150376
     20          6           0        5.166716   -4.697267    1.582495
     21          1           0        6.088633   -5.128740    1.204776
     22          6           0        4.668909   -5.117730    2.809453
     23          1           0        5.186436   -5.870344    3.397377
     24          6           0        4.481571   -3.736016    0.810042
     25          1           0        4.874646   -3.457363   -0.163881
     26          7           0       -0.643110   -0.072170    0.790080
     27          1           0       -1.430472   -0.041436    1.424043
     28          6           0       -0.699191    0.850165   -0.345996
     29          1           0       -1.094207    1.789653    0.060212
     30          6           0        0.728271    1.149427   -0.830431
     31          6           0       -1.610148    0.380552   -1.512797
     32          1           0       -0.996002   -0.261798   -2.150607
     33          8           0        1.003465    1.246521   -2.033595
     34          6           0       -2.071924    1.580897   -2.370301
     35          1           0       -1.190267    2.150051   -2.684916
     36          1           0       -2.519186    1.178151   -3.287938
     37          6           0       -2.799920   -0.449233   -1.013289
     38          1           0       -3.382735    0.073950   -0.245469
     39          1           0       -3.477769   -0.662703   -1.846367
     40          1           0       -2.477456   -1.410042   -0.602323
     41          6           0       -3.081902    2.523073   -1.705051
     42          1           0       -3.327335    3.355182   -2.373489
     43          1           0       -2.698421    2.961186   -0.774982
     44          1           0       -4.018308    2.010439   -1.465025
     45          7           0        1.648540    1.392893    0.134508
     46          1           0        1.375767    1.139021    1.082433
     47          6           0        3.060980    1.128374   -0.131547
     48          1           0        3.128394    0.583585   -1.077560
     49          6           0        3.540086    0.194609    0.977333
     50          6           0        3.958179    2.379229   -0.207768
     51          1           0        3.772858    3.010204    0.670373
     52          1           0        4.997557    2.041465   -0.142283
     53          8           0        2.963881    0.066786    2.037229
     54          6           0        3.805685    3.186066   -1.505202
     55          1           0        3.816092    2.499438   -2.360319
     56          1           0        4.678131    3.841376   -1.618492
     57          6           0        2.544373    4.054895   -1.568297
     58          1           0        1.637840    3.466604   -1.441324
     59          1           0        2.550275    4.808990   -0.776835
     60          7           0        2.439466    4.782936   -2.843450
     61          1           0        3.015085    5.609454   -2.939958
     62          7           0        1.435441    3.045545   -4.028478
     63          1           0        0.915305    2.751401   -4.843117
     64          1           0        1.420252    2.394791   -3.226494
     65          7           0        1.977593    5.030578   -5.095029
     66          1           0        2.123116    6.027927   -5.039174
     67          1           0        1.639029    4.670104   -5.974894
     68          6           0        1.944718    4.271278   -3.978931
     69          8           0        4.654369   -0.453763    0.628858
     70          1           0        4.817638   -1.160699    1.290211
 ---------------------------------------------------------------------

 SCF Done:  E(RB3LYP) =  -1582.31083980     A.U. after    2 cycles

 Alpha  occ. eigenvalues --  -19.28580 -19.23626 -19.23462 -19.21031 -14.52329
 Alpha  occ. eigenvalues --  -14.52292 -14.50731 -14.45894 -14.45493 -14.44105
 Alpha  occ. eigenvalues --  -14.37248 -10.48390 -10.41555 -10.40132 -10.37363
 Alpha  occ. eigenvalues --  -10.35544 -10.33724 -10.33208 -10.30722 -10.29991
 Alpha  occ. eigenvalues --  -10.29583 -10.28150 -10.28018 -10.27475 -10.26532
 Alpha  occ. eigenvalues --  -10.25694 -10.25600 -10.25286 -10.24995 -10.24520
 Alpha  occ. eigenvalues --  -10.24513 -10.24487 -10.24448 -10.24332  -1.19936
 Alpha  occ. eigenvalues --   -1.16876  -1.15122  -1.12785  -1.11263  -1.06296
 Alpha  occ. eigenvalues --   -1.04664  -1.03982  -1.03363  -1.01551  -0.95248
 Alpha  occ. eigenvalues --   -0.91872  -0.89916  -0.89482  -0.87015  -0.85834
 Alpha  occ. eigenvalues --   -0.83143  -0.81255  -0.80393  -0.79650  -0.79172
 Alpha  occ. eigenvalues --   -0.77850  -0.77188  -0.74340  -0.73050  -0.72622
 Alpha  occ. eigenvalues --   -0.72375  -0.70722  -0.70001  -0.68322  -0.68226
 Alpha  occ. eigenvalues --   -0.67525  -0.65687  -0.65361  -0.64590  -0.64208
 Alpha  occ. eigenvalues --   -0.62187  -0.61155  -0.60639  -0.60386  -0.59958
 Alpha  occ. eigenvalues --   -0.59413  -0.58688  -0.58276  -0.57225  -0.56868
 Alpha  occ. eigenvalues --   -0.56384  -0.54929  -0.54623  -0.54341  -0.53829
 Alpha  occ. eigenvalues --   -0.53252  -0.52591  -0.52106  -0.51839  -0.50872
 Alpha  occ. eigenvalues --   -0.50692  -0.50466  -0.50054  -0.49395  -0.49180
 Alpha  occ. eigenvalues --   -0.48551  -0.48303  -0.48007  -0.47744  -0.47206
 Alpha  occ. eigenvalues --   -0.46403  -0.46289  -0.45925  -0.45871  -0.45528
 Alpha  occ. eigenvalues --   -0.44836  -0.44353  -0.43430  -0.43088  -0.42888
 Alpha  occ. eigenvalues --   -0.41692  -0.41349  -0.41084  -0.40975  -0.40594
 Alpha  occ. eigenvalues --   -0.40469  -0.39628  -0.39038  -0.37948  -0.37410
 Alpha  occ. eigenvalues --   -0.36404  -0.35164  -0.33826  -0.33297  -0.29950
 Alpha  occ. eigenvalues --   -0.28446  -0.26453
 Alpha virt. eigenvalues --   -0.12108  -0.09836  -0.08861  -0.08470  -0.07463
 Alpha virt. eigenvalues --   -0.06943  -0.04769  -0.03916  -0.03862  -0.02152
 Alpha virt. eigenvalues --   -0.01203  -0.00138   0.00113   0.00958   0.01670

 Mulliken charges:
               1
     1  N   -0.715504
     2  H    0.326786
     3  H    0.307944
     4  C   -0.047270
     5  H    0.138258
     6  C    0.615885
     7  C   -0.412294
     8  H    0.198354
     9  H    0.145409
    10  O   -0.523472
    11  C    0.070821
    12  C   -0.000739
    13  H    0.158666
    14  C    0.081648
    15  C    0.315899
    16  C   -0.277392
    17  H    0.172597
    18  N   -0.685268
    19  H    0.337133
    20  C   -0.149451
    21  H    0.137682
    22  C   -0.158342
    23  H    0.137862
    24  C   -0.174023
    25  H    0.133452
    26  N   -0.620044
    27  H    0.340484
    28  C   -0.059759
    29  H    0.167541
    30  C    0.646156
    31  C   -0.063051
    32  H    0.170785
    33  O   -0.580662
    34  C   -0.272314
    35  H    0.115613
    36  H    0.146476
    37  C   -0.483230
    38  H    0.138352
    39  H    0.164880
    40  H    0.176423
    41  C   -0.458634
    42  H    0.152043
    43  H    0.137078
    44  H    0.167361
    45  N   -0.591847
    46  H    0.368795
    47  C   -0.044692
    48  H    0.204803
    49  C    0.603226
    50  C   -0.281148
    51  H    0.162263
    52  H    0.187534
    53  O   -0.463761
    54  C   -0.272355
    55  H    0.163662
    56  H    0.157110
    57  C   -0.179975
    58  H    0.196394
    59  H    0.187647
    60  N   -0.595298
    61  H    0.359311
    62  N   -0.795345
    63  H    0.370287
    64  H    0.463702
    65  N   -0.768132
    66  H    0.379251
    67  H    0.380376
    68  C    0.819694
    69  O   -0.566279
    70  H    0.434641
 Sum of Mulliken charges =   1.00000

 Dipole moment (field-independent basis, Debye):
    X=              8.3676    Y=             14.3551    Z=             -8.1488  Tot=             18.5065
 Quadrupole moment (field-independent basis, Debye-Ang):
   XX=           -158.1580   YY=            -93.7211   ZZ=           -104.6074
   XY=             22.4562   XZ=            -15.4186   YZ=            -94.1439

 Normal termination of Gaussian 16 at Thu Jun 23 12:43:01 2022.
