 Gaussian 16, Revision C.01,
 Gaussian 16:  ES64L-G16RevC.01  3-Jul-2019

 ----------------------------------------------------------------------
 # B3LYP/6-31G* empiricaldispersion=gd3bj guess=read geom=check nosymm
 integral(ultrafinegrid)
 ----------------------------------------------------------------------

 ------------------------------------------------------
 Candidate Structure: Conf:448 Charge calc in gas phase
 ------------------------------------------------------
 Structure from the checkpoint file:  "conf-448.chk"
 Charge =  1 Multiplicity = 1

                          Input orientation:
 ---------------------------------------------------------------------
 Center     Atomic      Atomic             Coordinates (Angstroms)
 Number     Number       Type             X           Y           Z
 ---------------------------------------------------------------------
      1          7           0       -1.103152   -4.665272    2.049229
      2          1           0       -1.709496   -5.113141    1.363659
      3          1           0       -0.151116   -4.935954    1.799212
      4          6           0       -1.199827   -3.217102    1.929957
      5          1           0       -2.256759   -2.929762    1.984396
      6          6           0       -0.555176   -2.682562    0.646777
      7          6           0       -0.438129   -2.527499    3.085477
      8          1           0        0.605314   -2.873143    3.029812
      9          1           0       -0.409471   -1.453597    2.875939
     10          8           0        0.454261   -3.192672    0.170581
     11          6           0       -1.008099   -2.720002    4.455139
     12          6           0       -1.428931   -3.881624    5.058046
     13          1           0       -1.478398   -4.878215    4.647159
     14          6           0       -1.145910   -1.670820    5.434504
     15          6           0       -1.654730   -2.268779    6.621943
     16          6           0       -0.896374   -0.286751    5.428718
     17          1           0       -0.552306    0.212193    4.525396
     18          7           0       -1.820250   -3.612508    6.355487
     19          1           0       -2.175434   -4.296000    7.005781
     20          6           0       -1.632372   -0.166841    7.748135
     21          1           0       -1.811845    0.433722    8.634572
     22          6           0       -1.901367   -1.530456    7.782190
     23          1           0       -2.288901   -2.003332    8.680110
     24          6           0       -1.138933    0.450596    6.581499
     25          1           0       -0.954340    1.520980    6.585417
     26          7           0       -1.055833   -1.507956    0.142012
     27          1           0       -1.983010   -1.212151    0.415072
     28          6           0       -0.443401   -0.899938   -1.037082
     29          1           0       -0.888936    0.100129   -1.124734
     30          6           0        1.061266   -0.701270   -0.748967
     31          6           0       -0.660109   -1.653243   -2.369965
     32          1           0        0.072309   -2.465318   -2.397959
     33          8           0        1.941697   -0.957683   -1.579975
     34          6           0       -0.394328   -0.698839   -3.554493
     35          1           0       -1.298077   -0.103906   -3.745402
     36          1           0        0.390008    0.018397   -3.288061
     37          6           0       -2.066412   -2.254381   -2.453755
     38          1           0       -2.839555   -1.486272   -2.322180
     39          1           0       -2.227004   -2.716364   -3.432634
     40          1           0       -2.221641   -3.029501   -1.698296
     41          6           0        0.019375   -1.431374   -4.832913
     42          1           0        0.200844   -0.729018   -5.655146
     43          1           0       -0.752014   -2.130903   -5.170464
     44          1           0        0.930057   -2.021953   -4.663941
     45          7           0        1.355635   -0.173620    0.456606
     46          1           0        0.603480   -0.081680    1.128231
     47          6           0        2.716937   -0.167259    0.985378
     48          1           0        3.259323   -0.992711    0.519643
     49          6           0        2.716134   -0.451573    2.484286
     50          6           0        3.456984    1.168210    0.743739
     51          1           0        2.883939    1.968235    1.224737
     52          1           0        4.423945    1.112586    1.259071
     53          8           0        3.611025   -1.013754    3.061778
     54          6           0        3.671638    1.528096   -0.732256
     55          1           0        4.066157    2.550589   -0.783151
     56          1           0        2.714120    1.530491   -1.262797
     57          6           0        4.647047    0.583580   -1.443638
     58          1           0        5.610950    0.560825   -0.926141
     59          1           0        4.261454   -0.435672   -1.465605
     60          7           0        4.923739    0.995968   -2.828151
     61          1           0        5.540754    1.788720   -2.949083
     62          7           0        3.235430   -0.238336   -3.861546
     63          1           0        2.871176   -0.661692   -4.703468
     64          1           0        2.753786   -0.483382   -2.982637
     65          7           0        4.713788    1.023445   -5.126257
     66          1           0        5.663716    1.347356   -5.238683
     67          1           0        4.222714    0.770123   -5.971114
     68          6           0        4.279887    0.578572   -3.924987
     69          8           0        1.619596    0.063055    3.091336
     70          1           0        1.651693   -0.167299    4.041698
 ---------------------------------------------------------------------

 SCF Done:  E(RB3LYP) =  -1582.30869142     A.U. after    1 cycles

 Alpha  occ. eigenvalues --  -19.29831 -19.23797 -19.23733 -19.21175 -14.52279
 Alpha  occ. eigenvalues --  -14.52174 -14.50610 -14.47158 -14.46170 -14.43346
 Alpha  occ. eigenvalues --  -14.39089 -10.48295 -10.42071 -10.40682 -10.37389
 Alpha  occ. eigenvalues --  -10.35393 -10.34591 -10.33953 -10.30760 -10.30454
 Alpha  occ. eigenvalues --  -10.30382 -10.28115 -10.27627 -10.27250 -10.27224
 Alpha  occ. eigenvalues --  -10.26995 -10.26546 -10.26170 -10.24397 -10.24295
 Alpha  occ. eigenvalues --  -10.24019 -10.23776 -10.23718 -10.23665  -1.20467
 Alpha  occ. eigenvalues --   -1.16757  -1.15571  -1.13080  -1.11669  -1.06179
 Alpha  occ. eigenvalues --   -1.04687  -1.04158  -1.03173  -1.02042  -0.96718
 Alpha  occ. eigenvalues --   -0.92218  -0.90474  -0.89300  -0.87347  -0.86053
 Alpha  occ. eigenvalues --   -0.83953  -0.81783  -0.81140  -0.79646  -0.78873
 Alpha  occ. eigenvalues --   -0.77924  -0.76862  -0.74205  -0.73523  -0.73326
 Alpha  occ. eigenvalues --   -0.72400  -0.70955  -0.69959  -0.69340  -0.68516
 Alpha  occ. eigenvalues --   -0.67543  -0.66050  -0.65507  -0.64690  -0.64593
 Alpha  occ. eigenvalues --   -0.63099  -0.62066  -0.61632  -0.60887  -0.59643
 Alpha  occ. eigenvalues --   -0.59071  -0.58710  -0.58402  -0.57486  -0.57377
 Alpha  occ. eigenvalues --   -0.56374  -0.55458  -0.55102  -0.55005  -0.54258
 Alpha  occ. eigenvalues --   -0.53474  -0.53039  -0.52475  -0.52154  -0.51682
 Alpha  occ. eigenvalues --   -0.51587  -0.50532  -0.50227  -0.50116  -0.49765
 Alpha  occ. eigenvalues --   -0.48931  -0.48535  -0.48226  -0.47429  -0.47420
 Alpha  occ. eigenvalues --   -0.47078  -0.46850  -0.46293  -0.46103  -0.45974
 Alpha  occ. eigenvalues --   -0.45340  -0.44662  -0.43569  -0.43306  -0.42912
 Alpha  occ. eigenvalues --   -0.42548  -0.42038  -0.41645  -0.41605  -0.40740
 Alpha  occ. eigenvalues --   -0.40520  -0.39187  -0.38787  -0.38568  -0.38083
 Alpha  occ. eigenvalues --   -0.36186  -0.35548  -0.34771  -0.32970  -0.31459
 Alpha  occ. eigenvalues --   -0.27639  -0.25634
 Alpha virt. eigenvalues --   -0.12180  -0.10128  -0.08996  -0.08301  -0.07576
 Alpha virt. eigenvalues --   -0.06687  -0.04662  -0.04224  -0.03219  -0.02956
 Alpha virt. eigenvalues --   -0.01862  -0.01237   0.00280   0.00493   0.00852

 Mulliken charges:
               1
     1  N   -0.692553
     2  H    0.308092
     3  H    0.319811
     4  C   -0.074802
     5  H    0.143726
     6  C    0.594182
     7  C   -0.369418
     8  H    0.163453
     9  H    0.140353
    10  O   -0.519317
    11  C    0.066807
    12  C    0.016969
    13  H    0.182892
    14  C    0.074231
    15  C    0.318294
    16  C   -0.249725
    17  H    0.110743
    18  N   -0.692961
    19  H    0.335369
    20  C   -0.152144
    21  H    0.135709
    22  C   -0.156801
    23  H    0.135547
    24  C   -0.137155
    25  H    0.124511
    26  N   -0.634577
    27  H    0.342778
    28  C   -0.050644
    29  H    0.168664
    30  C    0.657455
    31  C   -0.059898
    32  H    0.173326
    33  O   -0.585384
    34  C   -0.266711
    35  H    0.146524
    36  H    0.117604
    37  C   -0.466519
    38  H    0.140230
    39  H    0.164904
    40  H    0.154479
    41  C   -0.465971
    42  H    0.141573
    43  H    0.174482
    44  H    0.134998
    45  N   -0.603208
    46  H    0.374463
    47  C   -0.043101
    48  H    0.208182
    49  C    0.590890
    50  C   -0.281343
    51  H    0.173473
    52  H    0.176326
    53  O   -0.433092
    54  C   -0.265786
    55  H    0.155845
    56  H    0.159350
    57  C   -0.177621
    58  H    0.188307
    59  H    0.210969
    60  N   -0.600947
    61  H    0.360147
    62  N   -0.804568
    63  H    0.370765
    64  H    0.469404
    65  N   -0.764557
    66  H    0.378468
    67  H    0.378152
    68  C    0.813276
    69  O   -0.586425
    70  H    0.439505
 Sum of Mulliken charges =   1.00000

 Dipole moment (field-independent basis, Debye):
    X=             11.0111    Y=              1.5194    Z=            -11.1307  Tot=             15.7304
 Quadrupole moment (field-independent basis, Debye-Ang):
   XX=           -118.7999   YY=           -178.9865   ZZ=            -98.9409
   XY=             37.3800   XZ=            -72.8927   YZ=            -21.3730

 Normal termination of Gaussian 16 at Thu Jun 23 12:42:46 2022.
