 Gaussian 16, Revision C.01,
 Gaussian 16:  ES64L-G16RevC.01  3-Jul-2019

 ----------------------------------------------------------------------
 # B3LYP/6-31G* empiricaldispersion=gd3bj guess=read geom=check nosymm
 integral(ultrafinegrid)
 ----------------------------------------------------------------------

 ------------------------------------------------------
 Candidate Structure: Conf:231 Charge calc in gas phase
 ------------------------------------------------------
 Structure from the checkpoint file:  "conf-231.chk"
 Charge =  1 Multiplicity = 1

                          Input orientation:
 ---------------------------------------------------------------------
 Center     Atomic      Atomic             Coordinates (Angstroms)
 Number     Number       Type             X           Y           Z
 ---------------------------------------------------------------------
      1          7           0       -1.642349   -5.078554    0.737852
      2          1           0       -1.983383   -5.055516   -0.222980
      3          1           0       -0.663827   -5.355833    0.672811
      4          6           0       -1.719668   -3.724723    1.271948
      5          1           0       -2.763238   -3.549781    1.573845
      6          6           0       -1.427232   -2.651523    0.187719
      7          6           0       -0.854454   -3.600964    2.537431
      8          1           0       -1.184603   -2.735150    3.131297
      9          1           0       -1.083938   -4.473949    3.161567
     10          8           0       -1.450949   -2.949652   -0.999044
     11          6           0        0.628416   -3.499930    2.305253
     12          6           0        1.327485   -3.564097    1.123063
     13          1           0        0.976540   -3.681289    0.109107
     14          6           0        1.602847   -3.249805    3.339179
     15          6           0        2.879110   -3.175374    2.710006
     16          6           0        1.513013   -3.035260    4.723270
     17          1           0        0.553584   -3.100011    5.228993
     18          7           0        2.679684   -3.390269    1.364492
     19          1           0        3.373670   -3.247094    0.646664
     20          6           0        3.915124   -2.635172    4.795139
     21          1           0        4.799451   -2.394994    5.378041
     22          6           0        4.042950   -2.859902    3.423820
     23          1           0        5.003960   -2.790473    2.924641
     24          6           0        2.665205   -2.727581    5.438423
     25          1           0        2.604804   -2.556173    6.508821
     26          7           0       -1.247379   -1.374456    0.655220
     27          1           0       -1.085319   -1.295894    1.649044
     28          6           0       -0.791829   -0.224893   -0.125392
     29          1           0       -1.005952    0.650718    0.499887
     30          6           0        0.724270   -0.312829   -0.353210
     31          6           0       -1.528735   -0.036056   -1.473184
     32          1           0       -1.276916   -0.903407   -2.086103
     33          8           0        1.267245   -1.248586   -0.920988
     34          6           0       -1.028064    1.220281   -2.217539
     35          1           0        0.040156    1.107900   -2.443338
     36          1           0       -1.536950    1.240439   -3.188921
     37          6           0       -3.046387   -0.022620   -1.263184
     38          1           0       -3.355766    0.730586   -0.528788
     39          1           0       -3.553398    0.202713   -2.207780
     40          1           0       -3.400008   -0.996859   -0.919497
     41          6           0       -1.258119    2.562538   -1.513888
     42          1           0       -0.939133    3.391609   -2.155084
     43          1           0       -0.690299    2.642029   -0.579044
     44          1           0       -2.314862    2.720383   -1.275533
     45          7           0        1.453015    0.774455    0.086263
     46          1           0        1.045965    1.362309    0.801449
     47          6           0        2.895923    0.702203    0.009697
     48          1           0        3.138238    0.238500   -0.948799
     49          6           0        3.514973   -0.212683    1.070115
     50          6           0        3.525831    2.104486    0.082492
     51          1           0        2.992000    2.745992   -0.628325
     52          1           0        3.370306    2.526393    1.084945
     53          8           0        4.545439   -0.831668    0.883481
     54          6           0        5.021687    2.073105   -0.250854
     55          1           0        5.160102    1.692931   -1.270148
     56          1           0        5.533042    1.374375    0.421266
     57          6           0        5.665584    3.452660   -0.138971
     58          1           0        5.216930    4.147824   -0.857461
     59          1           0        5.528995    3.857293    0.872576
     60          7           0        7.105002    3.345943   -0.437954
     61          1           0        7.517800    2.424553   -0.356594
     62          7           0        7.490227    5.626595   -0.582520
     63          1           0        8.006109    6.400476   -0.976596
     64          1           0        6.635712    5.839699   -0.089227
     65          7           0        9.161999    4.134386   -1.161963
     66          1           0        9.451653    3.214245   -1.462121
     67          1           0        9.860810    4.863825   -1.167988
     68          6           0        7.914941    4.363768   -0.720614
     69          8           0        2.833213   -0.194069    2.219438
     70          1           0        3.223347   -0.871789    2.821640
 ---------------------------------------------------------------------

 SCF Done:  E(RB3LYP) =  -1582.27998052     A.U. after    1 cycles

 Alpha  occ. eigenvalues --  -19.27894 -19.22763 -19.19542 -19.16862 -14.55753
 Alpha  occ. eigenvalues --  -14.55594 -14.55480 -14.44787 -14.43377 -14.42059
 Alpha  occ. eigenvalues --  -14.35187 -10.51993 -10.40863 -10.38915 -10.36351
 Alpha  occ. eigenvalues --  -10.33681 -10.33305 -10.32728 -10.31616 -10.30337
 Alpha  occ. eigenvalues --  -10.28000 -10.27239 -10.27225 -10.25231 -10.25117
 Alpha  occ. eigenvalues --  -10.24920 -10.24648 -10.24623 -10.24289 -10.24219
 Alpha  occ. eigenvalues --  -10.24129 -10.23984 -10.23965 -10.22351  -1.20481
 Alpha  occ. eigenvalues --   -1.19121  -1.11766  -1.10233  -1.09657  -1.08748
 Alpha  occ. eigenvalues --   -1.08609  -1.03512  -1.01464  -0.98551  -0.94191
 Alpha  occ. eigenvalues --   -0.93242  -0.89958  -0.88377  -0.86926  -0.85461
 Alpha  occ. eigenvalues --   -0.83088  -0.81107  -0.80298  -0.79448  -0.78927
 Alpha  occ. eigenvalues --   -0.78036  -0.76971  -0.75918  -0.74664  -0.73496
 Alpha  occ. eigenvalues --   -0.70867  -0.70114  -0.69234  -0.69056  -0.68448
 Alpha  occ. eigenvalues --   -0.68089  -0.66994  -0.65004  -0.64695  -0.64447
 Alpha  occ. eigenvalues --   -0.63348  -0.61643  -0.61372  -0.60217  -0.59805
 Alpha  occ. eigenvalues --   -0.59519  -0.57566  -0.57353  -0.56775  -0.56180
 Alpha  occ. eigenvalues --   -0.55477  -0.55199  -0.53374  -0.53070  -0.52589
 Alpha  occ. eigenvalues --   -0.52141  -0.51596  -0.51327  -0.49965  -0.49714
 Alpha  occ. eigenvalues --   -0.49130  -0.49101  -0.48997  -0.48695  -0.48217
 Alpha  occ. eigenvalues --   -0.47697  -0.47215  -0.47071  -0.46721  -0.46575
 Alpha  occ. eigenvalues --   -0.46260  -0.45904  -0.45534  -0.44937  -0.44375
 Alpha  occ. eigenvalues --   -0.44305  -0.43878  -0.43555  -0.42292  -0.41779
 Alpha  occ. eigenvalues --   -0.41261  -0.40487  -0.40327  -0.39472  -0.38825
 Alpha  occ. eigenvalues --   -0.38313  -0.38117  -0.37971  -0.37647  -0.34657
 Alpha  occ. eigenvalues --   -0.33661  -0.33231  -0.30861  -0.30211  -0.28347
 Alpha  occ. eigenvalues --   -0.27902  -0.26043
 Alpha virt. eigenvalues --   -0.15658  -0.11500  -0.08730  -0.07786  -0.07465
 Alpha virt. eigenvalues --   -0.06888  -0.06189  -0.06161  -0.03792  -0.03551
 Alpha virt. eigenvalues --   -0.02906  -0.02292  -0.01844  -0.00557   0.00667

 Mulliken charges:
               1
     1  N   -0.705996
     2  H    0.319761
     3  H    0.302574
     4  C   -0.065890
     5  H    0.165506
     6  C    0.603568
     7  C   -0.383682
     8  H    0.135262
     9  H    0.189882
    10  O   -0.524951
    11  C    0.058334
    12  C   -0.006600
    13  H    0.198387
    14  C    0.078710
    15  C    0.288683
    16  C   -0.208561
    17  H    0.136447
    18  N   -0.686908
    19  H    0.344051
    20  C   -0.148173
    21  H    0.133023
    22  C   -0.238715
    23  H    0.145332
    24  C   -0.142316
    25  H    0.134573
    26  N   -0.602927
    27  H    0.335316
    28  C   -0.041880
    29  H    0.127531
    30  C    0.637420
    31  C   -0.088861
    32  H    0.197683
    33  O   -0.516064
    34  C   -0.273872
    35  H    0.135226
    36  H    0.150046
    37  C   -0.457898
    38  H    0.134176
    39  H    0.152122
    40  H    0.171261
    41  C   -0.449350
    42  H    0.145201
    43  H    0.114355
    44  H    0.162157
    45  N   -0.610999
    46  H    0.333612
    47  C   -0.020996
    48  H    0.204399
    49  C    0.607447
    50  C   -0.308175
    51  H    0.175019
    52  H    0.159116
    53  O   -0.494744
    54  C   -0.321863
    55  H    0.178191
    56  H    0.189593
    57  C   -0.143589
    58  H    0.188687
    59  H    0.187806
    60  N   -0.609494
    61  H    0.374254
    62  N   -0.755257
    63  H    0.391455
    64  H    0.397180
    65  N   -0.760785
    66  H    0.391427
    67  H    0.390639
    68  C    0.842064
    69  O   -0.582725
    70  H    0.443793
 Sum of Mulliken charges =   1.00000

 Dipole moment (field-independent basis, Debye):
    X=             34.7384    Y=             23.2669    Z=             -0.4221  Tot=             41.8124
 Quadrupole moment (field-independent basis, Debye-Ang):
   XX=             88.1104   YY=           -111.4587   ZZ=           -189.1438
   XY=            151.6345   XZ=            -29.2664   YZ=            -15.4441

 Normal termination of Gaussian 16 at Thu Jun 23 12:42:50 2022.
