 Gaussian 16, Revision C.01,
 Gaussian 16:  ES64L-G16RevC.01  3-Jul-2019

 ----------------------------------------------------------------------
 # B3LYP/6-31G* empiricaldispersion=gd3bj guess=read geom=check nosymm
 integral(ultrafinegrid)
 ----------------------------------------------------------------------

 ------------------------------------------------------
 Candidate Structure: Conf:234 Charge calc in gas phase
 ------------------------------------------------------
 Structure from the checkpoint file:  "conf-234.chk"
 Charge =  1 Multiplicity = 1

                          Input orientation:
 ---------------------------------------------------------------------
 Center     Atomic      Atomic             Coordinates (Angstroms)
 Number     Number       Type             X           Y           Z
 ---------------------------------------------------------------------
      1          7           0       -0.177473    0.206131    4.503212
      2          1           0        0.801926    0.144749    4.225248
      3          1           0       -0.357872    1.205400    4.606602
      4          6           0       -1.004946   -0.273968    3.403141
      5          1           0       -0.694198   -1.299212    3.178120
      6          6           0       -0.815380    0.566989    2.135734
      7          6           0       -2.486383   -0.292299    3.842614
      8          1           0       -2.528347   -0.911457    4.746636
      9          1           0       -2.764653    0.725187    4.144306
     10          8           0       -0.571703    1.782082    2.199957
     11          6           0       -3.442261   -0.781986    2.796680
     12          6           0       -4.545946   -0.111786    2.330393
     13          1           0       -4.932172    0.855690    2.619641
     14          6           0       -3.389346   -2.031008    2.070817
     15          6           0       -4.499140   -2.046028    1.176453
     16          6           0       -2.508572   -3.129462    2.064253
     17          1           0       -1.677262   -3.179173    2.761521
     18          7           0       -5.189598   -0.866539    1.366311
     19          1           0       -6.030985   -0.597836    0.881166
     20          6           0       -3.829863   -4.156051    0.291050
     21          1           0       -3.979551   -4.986636   -0.391800
     22          6           0       -4.729423   -3.096546    0.284645
     23          1           0       -5.578549   -3.084448   -0.392723
     24          6           0       -2.732409   -4.174412    1.174751
     25          1           0       -2.058216   -5.025520    1.167006
     26          7           0       -0.862281   -0.089555    0.953733
     27          1           0       -1.108043   -1.071652    0.949892
     28          6           0       -0.683284    0.585376   -0.331053
     29          1           0       -1.041875    1.609536   -0.183788
     30          6           0        0.822331    0.709529   -0.642153
     31          6           0       -1.488157   -0.082722   -1.455861
     32          1           0       -1.188838    0.438481   -2.374420
     33          8           0        1.371520    0.256744   -1.640672
     34          6           0       -3.001929    0.105757   -1.251266
     35          1           0       -3.506543   -0.335665   -2.120132
     36          1           0       -3.317192   -0.484879   -0.387428
     37          6           0       -1.159520   -1.573587   -1.633574
     38          1           0       -1.518245   -2.177976   -0.790820
     39          1           0       -1.667017   -1.958565   -2.524187
     40          1           0       -0.086568   -1.732223   -1.759310
     41          6           0       -3.472374    1.550803   -1.069620
     42          1           0       -4.566531    1.602791   -1.083519
     43          1           0       -3.102151    2.201628   -1.872217
     44          1           0       -3.143896    1.969636   -0.111926
     45          7           0        1.511463    1.408720    0.316599
     46          1           0        0.992336    1.701881    1.148395
     47          6           0        2.947001    1.312121    0.389982
     48          1           0        3.250379    0.488477   -0.269699
     49          6           0        3.359917    0.929993    1.807879
     50          6           0        3.655310    2.591063   -0.105065
     51          1           0        3.373932    3.419485    0.559941
     52          1           0        4.739640    2.435241   -0.020394
     53          8           0        2.604005    0.592030    2.688267
     54          6           0        3.273654    2.916040   -1.550777
     55          1           0        2.188020    3.039678   -1.620828
     56          1           0        3.519585    2.069421   -2.200655
     57          6           0        3.967053    4.156458   -2.113304
     58          1           0        5.056902    4.084313   -2.047163
     59          1           0        3.722937    4.284547   -3.171506
     60          7           0        3.563711    5.410658   -1.442792
     61          1           0        2.656127    5.784533   -1.691703
     62          7           0        5.289034    5.506302    0.115100
     63          1           0        5.943846    6.065411    0.642955
     64          1           0        5.399670    4.502074    0.136126
     65          7           0        3.902470    7.330576   -0.193484
     66          1           0        3.299356    7.876075   -0.792812
     67          1           0        4.200778    7.753131    0.674225
     68          6           0        4.245713    6.069861   -0.508809
     69          8           0        4.701513    0.996958    1.970397
     70          1           0        4.888309    0.685647    2.877141
 ---------------------------------------------------------------------

 SCF Done:  E(RB3LYP) =  -1582.29957674     A.U. after    3 cycles

 Alpha  occ. eigenvalues --  -19.29871 -19.24234 -19.19826 -19.18579 -14.54839
 Alpha  occ. eigenvalues --  -14.54747 -14.54638 -14.43679 -14.43229 -14.43083
 Alpha  occ. eigenvalues --  -14.36415 -10.51142 -10.42201 -10.37589 -10.36425
 Alpha  occ. eigenvalues --  -10.34966 -10.33775 -10.31320 -10.31026 -10.29986
 Alpha  occ. eigenvalues --  -10.27967 -10.27616 -10.27591 -10.25480 -10.24654
 Alpha  occ. eigenvalues --  -10.24585 -10.24384 -10.24227 -10.24019 -10.23909
 Alpha  occ. eigenvalues --  -10.23762 -10.23584 -10.23500 -10.22697  -1.20763
 Alpha  occ. eigenvalues --   -1.19552  -1.12045  -1.11530  -1.10206  -1.08716
 Alpha  occ. eigenvalues --   -1.07664  -1.03559  -1.01026  -0.99417  -0.94251
 Alpha  occ. eigenvalues --   -0.92865  -0.89515  -0.88005  -0.87079  -0.85571
 Alpha  occ. eigenvalues --   -0.82953  -0.80829  -0.79919  -0.79400  -0.78982
 Alpha  occ. eigenvalues --   -0.77519  -0.77116  -0.76353  -0.74340  -0.71983
 Alpha  occ. eigenvalues --   -0.71434  -0.70137  -0.68734  -0.68380  -0.67908
 Alpha  occ. eigenvalues --   -0.67878  -0.66673  -0.65291  -0.64922  -0.63214
 Alpha  occ. eigenvalues --   -0.62684  -0.61798  -0.61117  -0.60371  -0.59646
 Alpha  occ. eigenvalues --   -0.59176  -0.58826  -0.57339  -0.57122  -0.56237
 Alpha  occ. eigenvalues --   -0.55196  -0.54853  -0.54223  -0.53484  -0.53007
 Alpha  occ. eigenvalues --   -0.52686  -0.52069  -0.51372  -0.50497  -0.50084
 Alpha  occ. eigenvalues --   -0.49695  -0.49312  -0.49115  -0.48554  -0.48222
 Alpha  occ. eigenvalues --   -0.47685  -0.47308  -0.47267  -0.47067  -0.46882
 Alpha  occ. eigenvalues --   -0.46335  -0.46257  -0.45596  -0.44597  -0.44244
 Alpha  occ. eigenvalues --   -0.43559  -0.43244  -0.43102  -0.42530  -0.42031
 Alpha  occ. eigenvalues --   -0.41618  -0.41212  -0.40221  -0.39093  -0.38878
 Alpha  occ. eigenvalues --   -0.38681  -0.38373  -0.38079  -0.37593  -0.35093
 Alpha  occ. eigenvalues --   -0.34008  -0.33140  -0.32722  -0.31267  -0.29330
 Alpha  occ. eigenvalues --   -0.27969  -0.25958
 Alpha virt. eigenvalues --   -0.15192  -0.10746  -0.09199  -0.07054  -0.06896
 Alpha virt. eigenvalues --   -0.06503  -0.06149  -0.05343  -0.04098  -0.03351
 Alpha virt. eigenvalues --   -0.01923  -0.01741   0.00216   0.00475   0.00850

 Mulliken charges:
               1
     1  N   -0.707771
     2  H    0.322497
     3  H    0.303880
     4  C   -0.091481
     5  H    0.145282
     6  C    0.622909
     7  C   -0.330495
     8  H    0.178456
     9  H    0.147063
    10  O   -0.581454
    11  C    0.072357
    12  C   -0.007363
    13  H    0.158376
    14  C    0.068853
    15  C    0.297316
    16  C   -0.249288
    17  H    0.141808
    18  N   -0.673527
    19  H    0.334311
    20  C   -0.150088
    21  H    0.138294
    22  C   -0.165898
    23  H    0.134399
    24  C   -0.136445
    25  H    0.134479
    26  N   -0.605510
    27  H    0.361817
    28  C   -0.071644
    29  H    0.181790
    30  C    0.612996
    31  C   -0.093580
    32  H    0.138767
    33  O   -0.525426
    34  C   -0.266274
    35  H    0.137505
    36  H    0.170312
    37  C   -0.488332
    38  H    0.155036
    39  H    0.155049
    40  H    0.174678
    41  C   -0.461037
    42  H    0.142113
    43  H    0.135462
    44  H    0.156514
    45  N   -0.629196
    46  H    0.388368
    47  C   -0.050512
    48  H    0.215871
    49  C    0.585064
    50  C   -0.299856
    51  H    0.136075
    52  H    0.157124
    53  O   -0.447474
    54  C   -0.255973
    55  H    0.176459
    56  H    0.200078
    57  C   -0.196286
    58  H    0.184367
    59  H    0.207113
    60  N   -0.579936
    61  H    0.370695
    62  N   -0.754554
    63  H    0.387127
    64  H    0.398772
    65  N   -0.758659
    66  H    0.388154
    67  H    0.388448
    68  C    0.818551
    69  O   -0.573660
    70  H    0.427133
 Sum of Mulliken charges =   1.00000

 Dipole moment (field-independent basis, Debye):
    X=             15.4847    Y=             25.0741    Z=             -2.3319  Tot=             29.5622
 Quadrupole moment (field-independent basis, Debye-Ang):
   XX=            -74.7202   YY=            -25.7305   ZZ=           -200.2944
   XY=            109.0816   XZ=              7.8112   YZ=             -9.0066

 Normal termination of Gaussian 16 at Thu Jun 23 12:43:13 2022.
