 Gaussian 16, Revision C.01,
 Gaussian 16:  ES64L-G16RevC.01  3-Jul-2019

 ----------------------------------------------------------------------
 # B3LYP/6-31G* empiricaldispersion=gd3bj guess=read geom=check nosymm
 integral(ultrafinegrid)
 ----------------------------------------------------------------------

 ------------------------------------------------------
 Candidate Structure: Conf:433 Charge calc in gas phase
 ------------------------------------------------------
 Structure from the checkpoint file:  "conf-433.chk"
 Charge =  1 Multiplicity = 1

                          Input orientation:
 ---------------------------------------------------------------------
 Center     Atomic      Atomic             Coordinates (Angstroms)
 Number     Number       Type             X           Y           Z
 ---------------------------------------------------------------------
      1          7           0        0.978792   -3.995802    2.143639
      2          1           0        0.644736   -4.532631    1.345031
      3          1           0        1.956969   -3.787699    1.940665
      4          6           0        0.262177   -2.733034    2.227729
      5          1           0       -0.810802   -2.938428    2.128584
      6          6           0        0.661058   -1.744439    1.129434
      7          6           0        0.487594   -2.096958    3.631534
      8          1           0        1.546562   -2.214168    3.883465
      9          1           0        0.303758   -1.017803    3.589094
     10          8           0        1.710884   -1.824447    0.497069
     11          6           0       -0.403785   -2.719106    4.654309
     12          6           0       -0.181390   -3.846363    5.404120
     13          1           0        0.692347   -4.480237    5.446707
     14          6           0       -1.749781   -2.291801    4.941024
     15          6           0       -2.289689   -3.204760    5.889662
     16          6           0       -2.550696   -1.231069    4.487348
     17          1           0       -2.156896   -0.507701    3.775177
     18          7           0       -1.307282   -4.138876    6.152223
     19          1           0       -1.391821   -4.908454    6.797490
     20          6           0       -4.357794   -2.019058    5.916504
     21          1           0       -5.372182   -1.894189    6.283095
     22          6           0       -3.588988   -3.077840    6.387522
     23          1           0       -3.987191   -3.780172    7.114357
     24          6           0       -3.844970   -1.103265    4.975646
     25          1           0       -4.473275   -0.285318    4.634983
     26          7           0       -0.207675   -0.696062    0.928409
     27          1           0       -1.127462   -0.764297    1.345049
     28          6           0       -0.065965    0.170171   -0.241075
     29          1           0       -0.717675    1.031839   -0.051912
     30          6           0        1.375579    0.707136   -0.274864
     31          6           0       -0.469089   -0.480588   -1.589355
     32          1           0        0.405349   -1.034176   -1.944829
     33          8           0        2.029811    0.803491   -1.321183
     34          6           0       -0.802140    0.598544   -2.645592
     35          1           0        0.027716    1.312174   -2.697307
     36          1           0       -0.845520    0.102980   -3.624326
     37          6           0       -1.624523   -1.474152   -1.417912
     38          1           0       -2.494102   -1.022134   -0.926741
     39          1           0       -1.953834   -1.837786   -2.396987
     40          1           0       -1.321226   -2.344680   -0.829864
     41          6           0       -2.112823    1.362617   -2.424082
     42          1           0       -2.242791    2.130707   -3.193698
     43          1           0       -2.140351    1.873039   -1.453638
     44          1           0       -2.982425    0.700527   -2.473005
     45          7           0        1.861691    1.131891    0.911726
     46          1           0        1.346128    0.845810    1.740659
     47          6           0        3.294459    1.259636    1.124739
     48          1           0        3.808024    0.649315    0.374331
     49          6           0        3.598124    0.651661    2.489043
     50          6           0        3.792013    2.719309    1.057075
     51          1           0        3.258826    3.297711    1.819567
     52          1           0        4.854398    2.737569    1.325028
     53          8           0        2.753381    0.292600    3.279347
     54          6           0        3.579853    3.387392   -0.307396
     55          1           0        3.795265    4.458592   -0.208054
     56          1           0        2.531640    3.298216   -0.609836
     57          6           0        4.477761    2.798363   -1.400032
     58          1           0        5.532834    2.881414   -1.120234
     59          1           0        4.261108    1.741991   -1.558902
     60          7           0        4.325530    3.488918   -2.689151
     61          1           0        4.719980    4.418416   -2.755805
     62          7           0        2.740891    2.057134   -3.626589
     63          1           0        2.342887    1.658993   -4.465110
     64          1           0        2.482765    1.610745   -2.732605
     65          7           0        3.649894    3.785609   -4.875212
     66          1           0        4.466102    4.339806   -5.089630
     67          1           0        3.009509    3.601264   -5.633243
     68          6           0        3.566141    3.093954   -3.717570
     69          8           0        4.919712    0.581061    2.713684
     70          1           0        5.044345    0.195448    3.602441
 ---------------------------------------------------------------------

 SCF Done:  E(RB3LYP) =  -1582.30918016     A.U. after    1 cycles

 Alpha  occ. eigenvalues --  -19.30062 -19.24633 -19.23506 -19.20721 -14.52364
 Alpha  occ. eigenvalues --  -14.52252 -14.50670 -14.46014 -14.45237 -14.42752
 Alpha  occ. eigenvalues --  -14.37929 -10.48353 -10.42577 -10.40210 -10.36743
 Alpha  occ. eigenvalues --  -10.35463 -10.34446 -10.33211 -10.30602 -10.30207
 Alpha  occ. eigenvalues --  -10.29237 -10.27807 -10.26992 -10.26643 -10.26642
 Alpha  occ. eigenvalues --  -10.25843 -10.25762 -10.25159 -10.23787 -10.23666
 Alpha  occ. eigenvalues --  -10.23195 -10.23134 -10.23007 -10.22900  -1.21167
 Alpha  occ. eigenvalues --   -1.16799  -1.15181  -1.12404  -1.12306  -1.06238
 Alpha  occ. eigenvalues --   -1.04606  -1.03616  -1.02555  -1.01384  -0.95607
 Alpha  occ. eigenvalues --   -0.92126  -0.89771  -0.88653  -0.87233  -0.85207
 Alpha  occ. eigenvalues --   -0.83050  -0.81505  -0.80154  -0.79072  -0.78213
 Alpha  occ. eigenvalues --   -0.77959  -0.76232  -0.74278  -0.73065  -0.72840
 Alpha  occ. eigenvalues --   -0.72438  -0.70657  -0.70006  -0.68631  -0.67333
 Alpha  occ. eigenvalues --   -0.66980  -0.65894  -0.64995  -0.64538  -0.64065
 Alpha  occ. eigenvalues --   -0.61573  -0.61359  -0.61267  -0.60547  -0.59385
 Alpha  occ. eigenvalues --   -0.58844  -0.58646  -0.57930  -0.57616  -0.56968
 Alpha  occ. eigenvalues --   -0.56437  -0.55070  -0.54829  -0.54585  -0.53430
 Alpha  occ. eigenvalues --   -0.53303  -0.52677  -0.52005  -0.51851  -0.51277
 Alpha  occ. eigenvalues --   -0.50595  -0.50399  -0.50296  -0.49430  -0.48792
 Alpha  occ. eigenvalues --   -0.48175  -0.47882  -0.47456  -0.47395  -0.46779
 Alpha  occ. eigenvalues --   -0.46446  -0.46375  -0.46252  -0.45624  -0.45315
 Alpha  occ. eigenvalues --   -0.44677  -0.43846  -0.42955  -0.42724  -0.42345
 Alpha  occ. eigenvalues --   -0.42071  -0.41439  -0.41385  -0.40882  -0.40589
 Alpha  occ. eigenvalues --   -0.40105  -0.38542  -0.38259  -0.38060  -0.37579
 Alpha  occ. eigenvalues --   -0.36783  -0.34996  -0.34062  -0.32226  -0.30532
 Alpha  occ. eigenvalues --   -0.26977  -0.24993
 Alpha virt. eigenvalues --   -0.12326  -0.09590  -0.09270  -0.08370  -0.06954
 Alpha virt. eigenvalues --   -0.05775  -0.04638  -0.03867  -0.02584  -0.02102
 Alpha virt. eigenvalues --   -0.01899  -0.01342   0.00274   0.00897   0.01016

 Mulliken charges:
               1
     1  N   -0.688429
     2  H    0.305494
     3  H    0.309752
     4  C   -0.091144
     5  H    0.159231
     6  C    0.587683
     7  C   -0.348783
     8  H    0.159180
     9  H    0.152441
    10  O   -0.526615
    11  C    0.064662
    12  C    0.023323
    13  H    0.161412
    14  C    0.086423
    15  C    0.315510
    16  C   -0.220216
    17  H    0.091565
    18  N   -0.692505
    19  H    0.333556
    20  C   -0.152433
    21  H    0.132795
    22  C   -0.158696
    23  H    0.132639
    24  C   -0.136779
    25  H    0.120766
    26  N   -0.633419
    27  H    0.348063
    28  C   -0.046461
    29  H    0.170867
    30  C    0.647167
    31  C   -0.064159
    32  H    0.162579
    33  O   -0.587201
    34  C   -0.276949
    35  H    0.117336
    36  H    0.140854
    37  C   -0.471522
    38  H    0.146935
    39  H    0.163072
    40  H    0.155145
    41  C   -0.457698
    42  H    0.153162
    43  H    0.143225
    44  H    0.167399
    45  N   -0.586910
    46  H    0.374976
    47  C   -0.053606
    48  H    0.205806
    49  C    0.597820
    50  C   -0.277394
    51  H    0.171185
    52  H    0.174955
    53  O   -0.455238
    54  C   -0.265701
    55  H    0.154458
    56  H    0.165228
    57  C   -0.174221
    58  H    0.185780
    59  H    0.205842
    60  N   -0.600628
    61  H    0.359871
    62  N   -0.797658
    63  H    0.369245
    64  H    0.468781
    65  N   -0.765629
    66  H    0.379115
    67  H    0.379188
    68  C    0.812100
    69  O   -0.559353
    70  H    0.432760
 Sum of Mulliken charges =   1.00000

 Dipole moment (field-independent basis, Debye):
    X=             13.4094    Y=             10.3472    Z=             -9.1680  Tot=             19.2595
 Quadrupole moment (field-independent basis, Debye-Ang):
   XX=           -124.3323   YY=           -134.7613   ZZ=           -108.6884
   XY=             56.5929   XZ=            -37.2319   YZ=            -64.0382

 Normal termination of Gaussian 16 at Thu Jun 23 12:42:47 2022.
