 Gaussian 16, Revision C.01,
 Gaussian 16:  ES64L-G16RevC.01  3-Jul-2019

 ----------------------------------------------------------------------
 # B3LYP/6-31G* empiricaldispersion=gd3bj guess=read geom=check nosymm
 integral(ultrafinegrid)
 ----------------------------------------------------------------------

 ------------------------------------------------------
 Candidate Structure: Conf:948 Charge calc in gas phase
 ------------------------------------------------------
 Structure from the checkpoint file:  "conf-948.chk"
 Charge =  1 Multiplicity = 1

                          Input orientation:
 ---------------------------------------------------------------------
 Center     Atomic      Atomic             Coordinates (Angstroms)
 Number     Number       Type             X           Y           Z
 ---------------------------------------------------------------------
      1          7           0       -1.349717   -3.355204    1.227824
      2          1           0       -2.181075   -2.830037    0.963922
      3          1           0       -1.005116   -3.811379    0.383877
      4          6           0       -0.307041   -2.478914    1.776976
      5          1           0       -0.719874   -1.992884    2.670129
      6          6           0        0.098275   -1.399840    0.771524
      7          6           0        0.901895   -3.338371    2.171444
      8          1           0        0.527262   -4.111594    2.851471
      9          1           0        1.254981   -3.847914    1.268225
     10          8           0        1.018571   -1.521161   -0.032805
     11          6           0        2.050335   -2.600714    2.792042
     12          6           0        3.288563   -2.425096    2.227858
     13          1           0        3.643027   -2.729705    1.253439
     14          6           0        2.113923   -2.008974    4.108845
     15          6           0        3.436155   -1.513869    4.285671
     16          6           0        1.190293   -1.853869    5.156113
     17          1           0        0.175806   -2.230154    5.056179
     18          7           0        4.121562   -1.751184    3.109297
     19          1           0        5.115562   -1.632942    2.987581
     20          6           0        2.911869   -0.756050    6.486265
     21          1           0        3.203734   -0.294379    7.424888
     22          6           0        3.854570   -0.901048    5.472463
     23          1           0        4.884954   -0.580449    5.608540
     24          6           0        1.591289   -1.222724    6.325915
     25          1           0        0.883473   -1.097529    7.139315
     26          7           0       -0.668221   -0.261621    0.778056
     27          1           0       -1.488893   -0.211442    1.364981
     28          6           0       -0.441015    0.777834   -0.222290
     29          1           0       -1.003213    1.649540    0.136647
     30          6           0        1.053366    1.172196   -0.147949
     31          6           0       -0.906861    0.460389   -1.672161
     32          1           0       -0.017963    0.186840   -2.248193
     33          8           0        1.740634    1.418518   -1.154864
     34          6           0       -1.560518    1.701435   -2.316243
     35          1           0       -1.898809    1.421552   -3.321281
     36          1           0       -2.472395    1.944054   -1.750821
     37          6           0       -1.890895   -0.714102   -1.721976
     38          1           0       -2.787478   -0.517380   -1.121038
     39          1           0       -2.218350   -0.877068   -2.753715
     40          1           0       -1.434379   -1.641694   -1.369754
     41          6           0       -0.692778    2.958398   -2.426590
     42          1           0       -1.255599    3.767389   -2.903822
     43          1           0        0.202462    2.771501   -3.027910
     44          1           0       -0.365117    3.327722   -1.447465
     45          7           0        1.498153    1.335218    1.109036
     46          1           0        0.855206    1.077911    1.853990
     47          6           0        2.881144    1.336848    1.570244
     48          1           0        3.325018    0.351424    1.369736
     49          6           0        2.782598    1.438652    3.092524
     50          6           0        3.788217    2.404120    0.934407
     51          1           0        4.753496    2.365385    1.445768
     52          1           0        3.962478    2.090722   -0.096906
     53          8           0        1.737544    1.362564    3.700222
     54          6           0        3.213066    3.833888    0.969527
     55          1           0        3.606045    4.394773    1.822807
     56          1           0        2.124039    3.798252    1.097714
     57          6           0        3.517270    4.614098   -0.315194
     58          1           0        3.116197    5.631718   -0.250848
     59          1           0        4.598946    4.679641   -0.484035
     60          7           0        2.900796    3.895955   -1.440907
     61          1           0        2.273902    3.123322   -1.187640
     62          7           0        4.260349    4.670498   -3.163747
     63          1           0        4.744839    4.510689   -4.034493
     64          1           0        4.361993    5.575410   -2.729262
     65          7           0        3.068244    2.682313   -3.385345
     66          1           0        2.518529    1.953438   -2.932310
     67          1           0        3.148292    2.678227   -4.391508
     68          6           0        3.406718    3.761275   -2.662666
     69          8           0        3.983075    1.576957    3.670669
     70          1           0        3.844990    1.420480    4.628430
 ---------------------------------------------------------------------

 SCF Done:  E(RB3LYP) =  -1582.31490581     A.U. after    2 cycles

 Alpha  occ. eigenvalues --  -19.29388 -19.24105 -19.23984 -19.20880 -14.52137
 Alpha  occ. eigenvalues --  -14.50703 -14.50092 -14.46515 -14.45919 -14.45212
 Alpha  occ. eigenvalues --  -14.40172 -10.47503 -10.42124 -10.40735 -10.37251
 Alpha  occ. eigenvalues --  -10.35760 -10.34619 -10.33702 -10.30790 -10.30485
 Alpha  occ. eigenvalues --  -10.30068 -10.28980 -10.28796 -10.27980 -10.27052
 Alpha  occ. eigenvalues --  -10.26769 -10.26101 -10.25954 -10.25814 -10.25564
 Alpha  occ. eigenvalues --  -10.25423 -10.25328 -10.25186 -10.24734  -1.20705
 Alpha  occ. eigenvalues --   -1.16337  -1.15271  -1.12780  -1.11892  -1.05445
 Alpha  occ. eigenvalues --   -1.04919  -1.04440  -1.04115  -1.01725  -0.97239
 Alpha  occ. eigenvalues --   -0.91931  -0.90748  -0.89975  -0.87546  -0.87062
 Alpha  occ. eigenvalues --   -0.83188  -0.81492  -0.81138  -0.80295  -0.79701
 Alpha  occ. eigenvalues --   -0.78182  -0.78087  -0.74049  -0.73295  -0.72804
 Alpha  occ. eigenvalues --   -0.72547  -0.70770  -0.69896  -0.69205  -0.68384
 Alpha  occ. eigenvalues --   -0.67240  -0.66187  -0.65399  -0.64907  -0.64569
 Alpha  occ. eigenvalues --   -0.63580  -0.62040  -0.61629  -0.61107  -0.60538
 Alpha  occ. eigenvalues --   -0.60200  -0.58507  -0.58342  -0.57966  -0.56866
 Alpha  occ. eigenvalues --   -0.56522  -0.55890  -0.55087  -0.54836  -0.54290
 Alpha  occ. eigenvalues --   -0.53782  -0.53518  -0.53186  -0.52708  -0.52162
 Alpha  occ. eigenvalues --   -0.51391  -0.50723  -0.50448  -0.50129  -0.49809
 Alpha  occ. eigenvalues --   -0.49596  -0.49069  -0.48922  -0.48665  -0.47756
 Alpha  occ. eigenvalues --   -0.46943  -0.46558  -0.46081  -0.45905  -0.45437
 Alpha  occ. eigenvalues --   -0.45063  -0.44668  -0.44100  -0.43661  -0.42779
 Alpha  occ. eigenvalues --   -0.42543  -0.41900  -0.41744  -0.41670  -0.40891
 Alpha  occ. eigenvalues --   -0.40272  -0.40190  -0.39995  -0.38436  -0.37812
 Alpha  occ. eigenvalues --   -0.36866  -0.36267  -0.34817  -0.34205  -0.31160
 Alpha  occ. eigenvalues --   -0.29180  -0.27345
 Alpha virt. eigenvalues --   -0.11863  -0.10350  -0.09352  -0.07998  -0.07394
 Alpha virt. eigenvalues --   -0.07079  -0.04660  -0.03944  -0.03130  -0.01871
 Alpha virt. eigenvalues --   -0.01685  -0.01172  -0.00562  -0.00232   0.00826

 Mulliken charges:
               1
     1  N   -0.697608
     2  H    0.303219
     3  H    0.316086
     4  C   -0.088669
     5  H    0.148640
     6  C    0.640338
     7  C   -0.335912
     8  H    0.177512
     9  H    0.156125
    10  O   -0.534649
    11  C    0.069635
    12  C   -0.011060
    13  H    0.165655
    14  C    0.083542
    15  C    0.314015
    16  C   -0.204788
    17  H    0.135462
    18  N   -0.690703
    19  H    0.333263
    20  C   -0.146502
    21  H    0.140013
    22  C   -0.234164
    23  H    0.135792
    24  C   -0.130133
    25  H    0.138037
    26  N   -0.644694
    27  H    0.339264
    28  C   -0.034654
    29  H    0.170724
    30  C    0.654441
    31  C   -0.071502
    32  H    0.158941
    33  O   -0.606204
    34  C   -0.266087
    35  H    0.150960
    36  H    0.139074
    37  C   -0.462650
    38  H    0.135264
    39  H    0.161896
    40  H    0.158271
    41  C   -0.449986
    42  H    0.161627
    43  H    0.125884
    44  H    0.128676
    45  N   -0.606620
    46  H    0.372185
    47  C   -0.040785
    48  H    0.217933
    49  C    0.621803
    50  C   -0.297731
    51  H    0.186790
    52  H    0.165433
    53  O   -0.460999
    54  C   -0.317619
    55  H    0.184675
    56  H    0.174640
    57  C   -0.156223
    58  H    0.185035
    59  H    0.174494
    60  N   -0.619917
    61  H    0.418572
    62  N   -0.754720
    63  H    0.380337
    64  H    0.385887
    65  N   -0.782040
    66  H    0.426372
    67  H    0.369406
    68  C    0.792761
    69  O   -0.581807
    70  H    0.429750
 Sum of Mulliken charges =   1.00000

 Dipole moment (field-independent basis, Debye):
    X=             13.5793    Y=             13.8921    Z=             -5.3777  Tot=             20.1571
 Quadrupole moment (field-independent basis, Debye-Ang):
   XX=           -118.8584   YY=           -136.6261   ZZ=           -145.1459
   XY=             53.8065   XZ=            -17.5144   YZ=            -30.0457

 Normal termination of Gaussian 16 at Thu Jun 23 12:43:07 2022.
