 Gaussian 16, Revision C.01,
 Gaussian 16:  ES64L-G16RevC.01  3-Jul-2019

 ----------------------------------------------------------------------
 # B3LYP/6-31G* empiricaldispersion=gd3bj guess=read geom=check nosymm
 integral(ultrafinegrid)
 ----------------------------------------------------------------------

 ------------------------------------------------------
 Candidate Structure: Conf:669 Charge calc in gas phase
 ------------------------------------------------------
 Structure from the checkpoint file:  "conf-669.chk"
 Charge =  1 Multiplicity = 1

                          Input orientation:
 ---------------------------------------------------------------------
 Center     Atomic      Atomic             Coordinates (Angstroms)
 Number     Number       Type             X           Y           Z
 ---------------------------------------------------------------------
      1          7           0       -0.065871   -4.282261    1.825046
      2          1           0       -0.826046   -4.723555    1.309891
      3          1           0        0.764276   -4.419277    1.252048
      4          6           0       -0.328279   -2.856611    1.952126
      5          1           0       -1.300153   -2.747719    2.451039
      6          6           0       -0.386052   -2.116086    0.601207
      7          6           0        0.706894   -2.193502    2.893073
      8          1           0        0.376988   -1.171366    3.118631
      9          1           0        0.653513   -2.752398    3.835026
     10          8           0        0.276865   -2.483702   -0.365316
     11          6           0        2.147294   -2.139639    2.447149
     12          6           0        2.726234   -2.491134    1.249344
     13          1           0        2.263368   -2.869127    0.350497
     14          6           0        3.221201   -1.638157    3.275096
     15          6           0        4.423835   -1.703945    2.511413
     16          6           0        3.273952   -1.103984    4.573633
     17          1           0        2.374314   -1.039986    5.177512
     18          7           0        4.086149   -2.216167    1.279913
     19          1           0        4.736252   -2.488592    0.558309
     20          6           0        5.673270   -0.734193    4.300609
     21          1           0        6.619791   -0.427463    4.739764
     22          6           0        5.654689   -1.264983    3.012283
     23          1           0        6.567893   -1.364593    2.430657
     24          6           0        4.492110   -0.644577    5.071819
     25          1           0        4.545514   -0.255190    6.084366
     26          7           0       -1.158821   -0.992630    0.557193
     27          1           0       -1.778059   -0.796798    1.330763
     28          6           0       -1.103813   -0.042828   -0.566597
     29          1           0       -1.750747    0.792811   -0.270074
     30          6           0        0.350925    0.486372   -0.629689
     31          6           0       -1.591184   -0.584043   -1.923447
     32          1           0       -0.792066   -1.213852   -2.323439
     33          8           0        1.099274    0.363455   -1.586289
     34          6           0       -1.809497    0.601960   -2.883823
     35          1           0       -2.682169    1.180432   -2.544726
     36          1           0       -0.944202    1.271397   -2.827700
     37          6           0       -2.858901   -1.426598   -1.756295
     38          1           0       -3.669317   -0.843180   -1.299292
     39          1           0       -3.215387   -1.783015   -2.726426
     40          1           0       -2.676808   -2.305214   -1.131505
     41          6           0       -2.002226    0.183338   -4.343416
     42          1           0       -2.108023    1.061649   -4.988993
     43          1           0       -2.895989   -0.433851   -4.481036
     44          1           0       -1.138878   -0.391336   -4.697932
     45          7           0        0.757726    1.095493    0.535156
     46          1           0        0.160597    0.988459    1.347331
     47          6           0        2.168891    1.086136    0.861113
     48          1           0        2.574590    0.093609    0.614551
     49          6           0        2.281515    1.211630    2.368931
     50          6           0        3.022131    2.129217    0.106311
     51          1           0        2.516374    2.353450   -0.833619
     52          1           0        3.079385    3.056768    0.687456
     53          8           0        1.356735    1.107666    3.142276
     54          6           0        4.420578    1.557155   -0.174472
     55          1           0        4.391266    0.983480   -1.108130
     56          1           0        4.690801    0.831127    0.598624
     57          6           0        5.533902    2.593765   -0.310991
     58          1           0        6.502683    2.101617   -0.443269
     59          1           0        5.363837    3.227605   -1.184593
     60          7           0        5.660572    3.533012    0.827181
     61          1           0        5.360700    4.486490    0.675345
     62          7           0        6.390258    2.005691    2.419754
     63          1           0        6.938806    1.823000    3.249086
     64          1           0        5.655135    1.326429    2.240108
     65          7           0        6.679835    4.285182    2.761964
     66          1           0        6.856480    5.198602    2.367869
     67          1           0        6.867841    4.160149    3.746386
     68          6           0        6.227702    3.269718    2.005231
     69          8           0        3.554539    1.429638    2.783763
     70          1           0        3.582585    1.188420    3.735868
 ---------------------------------------------------------------------

 SCF Done:  E(RB3LYP) =  -1582.29592803     A.U. after    1 cycles

 Alpha  occ. eigenvalues --  -19.30966 -19.25375 -19.20083 -19.19505 -14.54049
 Alpha  occ. eigenvalues --  -14.53732 -14.52542 -14.47273 -14.44507 -14.43959
 Alpha  occ. eigenvalues --  -14.38236 -10.49798 -10.43235 -10.36814 -10.36776
 Alpha  occ. eigenvalues --  -10.36130 -10.33771 -10.31858 -10.31177 -10.30905
 Alpha  occ. eigenvalues --  -10.30191 -10.30157 -10.29653 -10.29436 -10.29170
 Alpha  occ. eigenvalues --  -10.28526 -10.28383 -10.27907 -10.27280 -10.27202
 Alpha  occ. eigenvalues --  -10.24696 -10.23550 -10.23070 -10.22354  -1.21849
 Alpha  occ. eigenvalues --   -1.18289  -1.13119  -1.12219  -1.11222  -1.07570
 Alpha  occ. eigenvalues --   -1.07139  -1.06299  -1.01784  -1.00118  -0.96050
 Alpha  occ. eigenvalues --   -0.93900  -0.92309  -0.88815  -0.87777  -0.86850
 Alpha  occ. eigenvalues --   -0.83720  -0.82897  -0.82060  -0.80904  -0.79425
 Alpha  occ. eigenvalues --   -0.78837  -0.76827  -0.75616  -0.74087  -0.73101
 Alpha  occ. eigenvalues --   -0.71871  -0.71606  -0.70662  -0.69132  -0.68351
 Alpha  occ. eigenvalues --   -0.67449  -0.67044  -0.66550  -0.66061  -0.64543
 Alpha  occ. eigenvalues --   -0.63414  -0.63005  -0.62083  -0.60538  -0.60169
 Alpha  occ. eigenvalues --   -0.59561  -0.59424  -0.58753  -0.58347  -0.56886
 Alpha  occ. eigenvalues --   -0.56369  -0.56202  -0.55809  -0.54911  -0.54242
 Alpha  occ. eigenvalues --   -0.53689  -0.53392  -0.52896  -0.52037  -0.51871
 Alpha  occ. eigenvalues --   -0.51629  -0.51186  -0.50903  -0.50600  -0.49937
 Alpha  occ. eigenvalues --   -0.48755  -0.48504  -0.48000  -0.47757  -0.46696
 Alpha  occ. eigenvalues --   -0.46610  -0.46345  -0.45924  -0.45622  -0.45073
 Alpha  occ. eigenvalues --   -0.44844  -0.44584  -0.43912  -0.43413  -0.43157
 Alpha  occ. eigenvalues --   -0.43057  -0.42693  -0.42303  -0.41257  -0.41051
 Alpha  occ. eigenvalues --   -0.39465  -0.38846  -0.38280  -0.37898  -0.36984
 Alpha  occ. eigenvalues --   -0.35748  -0.33953  -0.33541  -0.32293  -0.32060
 Alpha  occ. eigenvalues --   -0.30646  -0.29702
 Alpha virt. eigenvalues --   -0.14860  -0.11866  -0.10131  -0.09731  -0.08166
 Alpha virt. eigenvalues --   -0.07044  -0.06096  -0.05986  -0.05128  -0.04025
 Alpha virt. eigenvalues --   -0.02533  -0.01963  -0.01382  -0.00585  -0.00096

 Mulliken charges:
               1
     1  N   -0.688377
     2  H    0.310933
     3  H    0.314358
     4  C   -0.098307
     5  H    0.144361
     6  C    0.614200
     7  C   -0.342112
     8  H    0.162336
     9  H    0.183725
    10  O   -0.523507
    11  C    0.068015
    12  C   -0.037791
    13  H    0.220293
    14  C    0.064801
    15  C    0.334809
    16  C   -0.227362
    17  H    0.159658
    18  N   -0.693577
    19  H    0.340833
    20  C   -0.177888
    21  H    0.130130
    22  C   -0.209142
    23  H    0.140648
    24  C   -0.183549
    25  H    0.146947
    26  N   -0.629357
    27  H    0.335219
    28  C   -0.052421
    29  H    0.157855
    30  C    0.626221
    31  C   -0.065098
    32  H    0.178417
    33  O   -0.513612
    34  C   -0.266672
    35  H    0.123834
    36  H    0.145926
    37  C   -0.460084
    38  H    0.131398
    39  H    0.162831
    40  H    0.147719
    41  C   -0.451193
    42  H    0.148604
    43  H    0.151096
    44  H    0.153897
    45  N   -0.616549
    46  H    0.345420
    47  C   -0.046867
    48  H    0.216648
    49  C    0.621072
    50  C   -0.262168
    51  H    0.204121
    52  H    0.133632
    53  O   -0.465641
    54  C   -0.304313
    55  H    0.196883
    56  H    0.153684
    57  C   -0.168632
    58  H    0.195524
    59  H    0.193877
    60  N   -0.585032
    61  H    0.367668
    62  N   -0.763429
    63  H    0.367644
    64  H    0.431845
    65  N   -0.752087
    66  H    0.384286
    67  H    0.383290
    68  C    0.790681
    69  O   -0.624829
    70  H    0.424260
 Sum of Mulliken charges =   1.00000

 Dipole moment (field-independent basis, Debye):
    X=             24.3236    Y=             12.8032    Z=              9.9171  Tot=             29.2217
 Quadrupole moment (field-independent basis, Debye-Ang):
   XX=            -19.7095   YY=           -140.3792   ZZ=           -169.0123
   XY=             84.5349   XZ=             56.0941   YZ=             29.5906

 Normal termination of Gaussian 16 at Thu Jun 23 12:42:52 2022.
