 Gaussian 16, Revision C.01,
 Gaussian 16:  ES64L-G16RevC.01  3-Jul-2019

 ----------------------------------------------------------------------
 # B3LYP/6-31G* empiricaldispersion=gd3bj guess=read geom=check nosymm
 integral(ultrafinegrid)
 ----------------------------------------------------------------------

 ------------------------------------------------------
 Candidate Structure: Conf:197 Charge calc in gas phase
 ------------------------------------------------------
 Structure from the checkpoint file:  "conf-197.chk"
 Charge =  1 Multiplicity = 1

                          Input orientation:
 ---------------------------------------------------------------------
 Center     Atomic      Atomic             Coordinates (Angstroms)
 Number     Number       Type             X           Y           Z
 ---------------------------------------------------------------------
      1          7           0       -3.159714   -0.345223    4.218878
      2          1           0       -3.117175   -0.949775    5.033121
      3          1           0       -3.109590    0.625238    4.519582
      4          6           0       -2.045678   -0.628821    3.328467
      5          1           0       -1.104830   -0.872349    3.859592
      6          6           0       -1.742765    0.634913    2.516711
      7          6           0       -2.403523   -1.848979    2.441976
      8          1           0       -3.317647   -1.599352    1.893812
      9          1           0       -1.614014   -2.031378    1.701002
     10          8           0       -2.196400    1.734295    2.817698
     11          6           0       -2.596694   -3.084970    3.262445
     12          6           0       -3.778871   -3.587576    3.747439
     13          1           0       -4.786179   -3.221168    3.609664
     14          6           0       -1.549685   -3.939562    3.766453
     15          6           0       -2.171960   -4.954270    4.546872
     16          6           0       -0.151134   -3.945893    3.635370
     17          1           0        0.351399   -3.180168    3.048934
     18          7           0       -3.530703   -4.711391    4.515500
     19          1           0       -4.234107   -5.269390    4.973250
     20          6           0       -0.056617   -5.938918    5.033421
     21          1           0        0.542112   -6.704572    5.517786
     22          6           0       -1.438734   -5.959914    5.182607
     23          1           0       -1.928232   -6.728223    5.774543
     24          6           0        0.581775   -4.942130    4.267809
     25          1           0        1.664154   -4.955430    4.176805
     26          7           0       -0.909248    0.458558    1.446750
     27          1           0       -0.392785   -0.406946    1.354118
     28          6           0       -0.358588    1.577336    0.713440
     29          1           0       -0.482593    2.473854    1.328177
     30          6           0        1.125562    1.299753    0.487224
     31          6           0       -1.067422    1.807864   -0.656210
     32          1           0       -0.497988    2.593572   -1.174797
     33          8           0        1.589764    0.158998    0.517738
     34          6           0       -2.509524    2.311610   -0.476597
     35          1           0       -2.975806    2.335550   -1.470703
     36          1           0       -3.073088    1.578209    0.112280
     37          6           0       -1.041325    0.534931   -1.512417
     38          1           0       -1.643660   -0.250105   -1.043475
     39          1           0       -1.459394    0.733681   -2.505016
     40          1           0       -0.025027    0.138403   -1.631946
     41          6           0       -2.623962    3.691583    0.174594
     42          1           0       -3.659848    4.044042    0.140804
     43          1           0       -2.005545    4.432835   -0.348368
     44          1           0       -2.329346    3.657892    1.226533
     45          7           0        1.879719    2.386013    0.157258
     46          1           0        1.525135    3.317946    0.346910
     47          6           0        3.319784    2.286921    0.014787
     48          1           0        3.671138    1.447441    0.624868
     49          6           0        3.927129    3.577636    0.547511
     50          6           0        3.770997    2.053187   -1.447052
     51          1           0        3.533354    2.944261   -2.042640
     52          1           0        4.860094    1.934612   -1.452531
     53          8           0        3.283380    4.552795    0.862453
     54          6           0        3.084959    0.827693   -2.051808
     55          1           0        2.005543    1.012807   -2.081101
     56          1           0        3.239614   -0.044851   -1.410251
     57          6           0        3.562464    0.517787   -3.467202
     58          1           0        3.424141    1.387667   -4.122976
     59          1           0        4.622593    0.240206   -3.471396
     60          7           0        2.781348   -0.621031   -3.985166
     61          1           0        1.920034   -0.835412   -3.496303
     62          7           0        4.073592   -0.970101   -5.875800
     63          1           0        4.457208   -1.601113   -6.564757
     64          1           0        4.479939   -0.048463   -5.810025
     65          7           0        2.420267   -2.488750   -5.310626
     66          1           0        1.806618   -2.903255   -4.623383
     67          1           0        2.467985   -2.933318   -6.216330
     68          6           0        3.087676   -1.352268   -5.052882
     69          8           0        5.268972    3.509074    0.593062
     70          1           0        5.591466    4.366584    0.932177
 ---------------------------------------------------------------------

 SCF Done:  E(RB3LYP) =  -1582.28293443     A.U. after    1 cycles

 Alpha  occ. eigenvalues --  -19.29879 -19.24368 -19.21470 -19.17604 -14.55236
 Alpha  occ. eigenvalues --  -14.54995 -14.54964 -14.45703 -14.42450 -14.42106
 Alpha  occ. eigenvalues --  -14.35113 -10.51439 -10.42375 -10.38281 -10.38149
 Alpha  occ. eigenvalues --  -10.34452 -10.34386 -10.31786 -10.31065 -10.30691
 Alpha  occ. eigenvalues --  -10.27410 -10.27246 -10.26315 -10.26313 -10.25967
 Alpha  occ. eigenvalues --  -10.24291 -10.24261 -10.23314 -10.23171 -10.22814
 Alpha  occ. eigenvalues --  -10.22800 -10.22613 -10.22548 -10.22404  -1.20927
 Alpha  occ. eigenvalues --   -1.19942  -1.13457  -1.12059  -1.09540  -1.09094
 Alpha  occ. eigenvalues --   -1.08095  -1.02603  -1.02243  -0.99124  -0.93607
 Alpha  occ. eigenvalues --   -0.93178  -0.89054  -0.88221  -0.87655  -0.84355
 Alpha  occ. eigenvalues --   -0.83187  -0.81117  -0.80242  -0.79247  -0.78173
 Alpha  occ. eigenvalues --   -0.77719  -0.77464  -0.75592  -0.74193  -0.72525
 Alpha  occ. eigenvalues --   -0.71789  -0.70578  -0.68736  -0.68636  -0.68170
 Alpha  occ. eigenvalues --   -0.67726  -0.66609  -0.64877  -0.64136  -0.63668
 Alpha  occ. eigenvalues --   -0.63606  -0.62456  -0.61480  -0.60223  -0.60051
 Alpha  occ. eigenvalues --   -0.58479  -0.58159  -0.57512  -0.57322  -0.56424
 Alpha  occ. eigenvalues --   -0.55628  -0.54872  -0.54255  -0.53498  -0.52963
 Alpha  occ. eigenvalues --   -0.52475  -0.51822  -0.51537  -0.51327  -0.50328
 Alpha  occ. eigenvalues --   -0.49680  -0.49071  -0.48839  -0.48145  -0.47896
 Alpha  occ. eigenvalues --   -0.47673  -0.47490  -0.46884  -0.46586  -0.46425
 Alpha  occ. eigenvalues --   -0.46219  -0.46148  -0.45689  -0.45575  -0.44047
 Alpha  occ. eigenvalues --   -0.43786  -0.43267  -0.43093  -0.42589  -0.41991
 Alpha  occ. eigenvalues --   -0.41745  -0.41236  -0.39846  -0.39555  -0.39417
 Alpha  occ. eigenvalues --   -0.38987  -0.38112  -0.37781  -0.37648  -0.35772
 Alpha  occ. eigenvalues --   -0.35078  -0.32473  -0.31722  -0.30870  -0.27770
 Alpha  occ. eigenvalues --   -0.26634  -0.24640
 Alpha virt. eigenvalues --   -0.15098  -0.11080  -0.09308  -0.07591  -0.07375
 Alpha virt. eigenvalues --   -0.06753  -0.05696  -0.05498  -0.03694  -0.03162
 Alpha virt. eigenvalues --   -0.01896  -0.01777  -0.01362  -0.00481   0.00206

 Mulliken charges:
               1
     1  N   -0.731456
     2  H    0.307206
     3  H    0.324973
     4  C   -0.068904
     5  H    0.145350
     6  C    0.618778
     7  C   -0.329305
     8  H    0.157209
     9  H    0.117661
    10  O   -0.523272
    11  C    0.049255
    12  C    0.007287
    13  H    0.164371
    14  C    0.084862
    15  C    0.313826
    16  C   -0.214636
    17  H    0.108650
    18  N   -0.691568
    19  H    0.332547
    20  C   -0.152030
    21  H    0.129532
    22  C   -0.161083
    23  H    0.130095
    24  C   -0.140128
    25  H    0.118500
    26  N   -0.613918
    27  H    0.347905
    28  C   -0.060688
    29  H    0.188336
    30  C    0.612912
    31  C   -0.068094
    32  H    0.116782
    33  O   -0.547188
    34  C   -0.250405
    35  H    0.131509
    36  H    0.162142
    37  C   -0.477047
    38  H    0.172239
    39  H    0.145485
    40  H    0.113860
    41  C   -0.470706
    42  H    0.158162
    43  H    0.126270
    44  H    0.190982
    45  N   -0.615067
    46  H    0.363986
    47  C   -0.040356
    48  H    0.209653
    49  C    0.586278
    50  C   -0.275156
    51  H    0.157878
    52  H    0.174994
    53  O   -0.448919
    54  C   -0.325532
    55  H    0.180025
    56  H    0.198001
    57  C   -0.143610
    58  H    0.184551
    59  H    0.188344
    60  N   -0.610374
    61  H    0.377168
    62  N   -0.755932
    63  H    0.390304
    64  H    0.396731
    65  N   -0.761526
    66  H    0.391631
    67  H    0.389394
    68  C    0.840781
    69  O   -0.561839
    70  H    0.432334
 Sum of Mulliken charges =   1.00000

 Dipole moment (field-independent basis, Debye):
    X=             15.4865    Y=             -5.1279    Z=            -20.9049  Tot=             26.5168
 Quadrupole moment (field-independent basis, Debye-Ang):
   XX=           -121.0569   YY=           -164.8411   ZZ=            -64.1911
   XY=             19.1862   XZ=            -81.0454   YZ=             15.1992

 Normal termination of Gaussian 16 at Thu Jun 23 12:42:44 2022.
