 Gaussian 16, Revision C.01,
 Gaussian 16:  ES64L-G16RevC.01  3-Jul-2019

 ----------------------------------------------------------------------
 # B3LYP/6-31G* empiricaldispersion=gd3bj guess=read geom=check nosymm
 integral(ultrafinegrid)
 ----------------------------------------------------------------------

 ------------------------------------------------------
 Candidate Structure: Conf:966 Charge calc in gas phase
 ------------------------------------------------------
 Structure from the checkpoint file:  "conf-966.chk"
 Charge =  1 Multiplicity = 1

                          Input orientation:
 ---------------------------------------------------------------------
 Center     Atomic      Atomic             Coordinates (Angstroms)
 Number     Number       Type             X           Y           Z
 ---------------------------------------------------------------------
      1          7           0       -1.128842   -3.215177    2.221330
      2          1           0       -1.231584   -3.797924    3.050588
      3          1           0       -2.049686   -3.151811    1.792526
      4          6           0       -0.650319   -1.887095    2.622424
      5          1           0       -1.439609   -1.255999    3.070433
      6          6           0       -0.135423   -1.205658    1.354137
      7          6           0        0.497993   -1.998383    3.642791
      8          1           0        1.324044   -2.523709    3.153484
      9          1           0        0.847167   -0.982711    3.859580
     10          8           0        1.003096   -1.336868    0.919034
     11          6           0        0.097956   -2.693647    4.908305
     12          6           0       -0.379786   -2.106165    6.055390
     13          1           0       -0.530604   -1.059314    6.281481
     14          6           0        0.110697   -4.117880    5.154260
     15          6           0       -0.374258   -4.321269    6.476386
     16          6           0        0.491196   -5.235945    4.389398
     17          1           0        0.856880   -5.108276    3.374558
     18          7           0       -0.668411   -3.076405    6.996464
     19          1           0       -0.999476   -2.899838    7.931926
     20          6           0       -0.103673   -6.678270    6.262443
     21          1           0       -0.178003   -7.681016    6.672355
     22          6           0       -0.486459   -5.594229    7.043010
     23          1           0       -0.858081   -5.732242    8.054436
     24          6           0        0.379913   -6.501431    4.949731
     25          1           0        0.670509   -7.372377    4.369947
     26          7           0       -1.039503   -0.392310    0.710097
     27          1           0       -2.006174   -0.422021    1.003978
     28          6           0       -0.749188    0.098017   -0.636702
     29          1           0       -1.487047    0.889614   -0.824610
     30          6           0        0.630690    0.784379   -0.604747
     31          6           0       -0.854975   -0.961989   -1.778696
     32          1           0        0.164200   -1.254410   -2.047114
     33          8           0        1.420468    0.715210   -1.555644
     34          6           0       -1.540343   -0.361854   -3.023325
     35          1           0       -1.668803   -1.165405   -3.757957
     36          1           0       -2.556016   -0.042135   -2.746781
     37          6           0       -1.613330   -2.221216   -1.338176
     38          1           0       -2.638987   -1.988373   -1.022534
     39          1           0       -1.684960   -2.915534   -2.181429
     40          1           0       -1.108684   -2.746986   -0.524093
     41          6           0       -0.813027    0.800584   -3.706105
     42          1           0       -1.369046    1.128354   -4.591623
     43          1           0        0.187788    0.483568   -4.020576
     44          1           0       -0.701455    1.665148   -3.040990
     45          7           0        0.885970    1.518649    0.504547
     46          1           0        0.229815    1.393165    1.272022
     47          6           0        2.256804    1.696996    0.966368
     48          1           0        2.809638    0.771158    0.751571
     49          6           0        2.194528    1.770770    2.486580
     50          6           0        2.994397    2.889090    0.304461
     51          1           0        2.231046    3.527291   -0.152146
     52          1           0        3.507522    3.490705    1.060350
     53          8           0        1.186994    1.598746    3.139791
     54          6           0        3.999946    2.406795   -0.747513
     55          1           0        3.578499    1.556976   -1.287948
     56          1           0        4.900737    2.025606   -0.251393
     57          6           0        4.461240    3.480946   -1.733475
     58          1           0        5.085303    4.221567   -1.227334
     59          1           0        5.065500    3.026638   -2.525793
     60          7           0        3.383960    4.275116   -2.368072
     61          1           0        3.403197    5.272749   -2.207620
     62          7           0        2.176662    2.570118   -3.402808
     63          1           0        1.615702    2.282391   -4.193916
     64          1           0        2.109290    1.934950   -2.589434
     65          7           0        1.970115    4.764405   -4.126823
     66          1           0        2.434989    5.639920   -4.320066
     67          1           0        1.154541    4.541124   -4.678982
     68          6           0        2.510923    3.853144   -3.292201
     69          8           0        3.402792    2.006088    3.020887
     70          1           0        3.300863    1.986260    3.991810
 ---------------------------------------------------------------------

 SCF Done:  E(RB3LYP) =  -1582.29428478     A.U. after    3 cycles

 Alpha  occ. eigenvalues --  -19.30219 -19.24809 -19.23070 -19.20179 -14.52658
 Alpha  occ. eigenvalues --  -14.52385 -14.50520 -14.45327 -14.45244 -14.43200
 Alpha  occ. eigenvalues --  -14.38304 -10.48343 -10.42777 -10.39705 -10.36630
 Alpha  occ. eigenvalues --  -10.35915 -10.34279 -10.33016 -10.29922 -10.29899
 Alpha  occ. eigenvalues --  -10.29381 -10.27251 -10.27242 -10.26905 -10.26810
 Alpha  occ. eigenvalues --  -10.26702 -10.24837 -10.24768 -10.23618 -10.23560
 Alpha  occ. eigenvalues --  -10.23361 -10.23156 -10.23054 -10.22618  -1.21340
 Alpha  occ. eigenvalues --   -1.16810  -1.14670  -1.12425  -1.12099  -1.06206
 Alpha  occ. eigenvalues --   -1.04603  -1.03206  -1.02968  -1.01128  -0.95761
 Alpha  occ. eigenvalues --   -0.91805  -0.89291  -0.88545  -0.87168  -0.85157
 Alpha  occ. eigenvalues --   -0.83037  -0.81369  -0.80429  -0.79296  -0.78197
 Alpha  occ. eigenvalues --   -0.78027  -0.76312  -0.74202  -0.73193  -0.72635
 Alpha  occ. eigenvalues --   -0.71937  -0.70429  -0.69605  -0.67926  -0.67648
 Alpha  occ. eigenvalues --   -0.66943  -0.65649  -0.64960  -0.64742  -0.64040
 Alpha  occ. eigenvalues --   -0.61951  -0.60999  -0.60962  -0.59972  -0.59635
 Alpha  occ. eigenvalues --   -0.58783  -0.58574  -0.57767  -0.57334  -0.56135
 Alpha  occ. eigenvalues --   -0.55678  -0.55535  -0.55111  -0.54430  -0.53293
 Alpha  occ. eigenvalues --   -0.52997  -0.52436  -0.51924  -0.51670  -0.51340
 Alpha  occ. eigenvalues --   -0.51011  -0.50590  -0.50226  -0.49523  -0.48822
 Alpha  occ. eigenvalues --   -0.48310  -0.48013  -0.47505  -0.47193  -0.47016
 Alpha  occ. eigenvalues --   -0.46227  -0.45847  -0.45593  -0.44978  -0.44745
 Alpha  occ. eigenvalues --   -0.43547  -0.43431  -0.43306  -0.43043  -0.42411
 Alpha  occ. eigenvalues --   -0.42080  -0.41823  -0.41127  -0.40989  -0.40260
 Alpha  occ. eigenvalues --   -0.39815  -0.38507  -0.38134  -0.38053  -0.37296
 Alpha  occ. eigenvalues --   -0.36405  -0.34574  -0.34151  -0.32229  -0.30337
 Alpha  occ. eigenvalues --   -0.27096  -0.25249
 Alpha virt. eigenvalues --   -0.13434  -0.09726  -0.09135  -0.08666  -0.06602
 Alpha virt. eigenvalues --   -0.05901  -0.05122  -0.03744  -0.02493  -0.02299
 Alpha virt. eigenvalues --   -0.02018  -0.01163   0.00123   0.00448   0.01304

 Mulliken charges:
               1
     1  N   -0.725949
     2  H    0.337517
     3  H    0.298184
     4  C   -0.076377
     5  H    0.117895
     6  C    0.657811
     7  C   -0.361769
     8  H    0.181496
     9  H    0.153685
    10  O   -0.524457
    11  C    0.047277
    12  C   -0.001223
    13  H    0.149670
    14  C    0.057677
    15  C    0.315164
    16  C   -0.218626
    17  H    0.146977
    18  N   -0.688963
    19  H    0.332880
    20  C   -0.150088
    21  H    0.134770
    22  C   -0.161314
    23  H    0.131199
    24  C   -0.139839
    25  H    0.131094
    26  N   -0.639728
    27  H    0.336897
    28  C   -0.039936
    29  H    0.166467
    30  C    0.631828
    31  C   -0.073771
    32  H    0.175281
    33  O   -0.572091
    34  C   -0.265241
    35  H    0.155019
    36  H    0.135176
    37  C   -0.483206
    38  H    0.125684
    39  H    0.162060
    40  H    0.194390
    41  C   -0.460722
    42  H    0.152173
    43  H    0.144347
    44  H    0.122233
    45  N   -0.599041
    46  H    0.370931
    47  C   -0.031197
    48  H    0.225529
    49  C    0.584838
    50  C   -0.277471
    51  H    0.153819
    52  H    0.178185
    53  O   -0.465613
    54  C   -0.319022
    55  H    0.193872
    56  H    0.181470
    57  C   -0.156725
    58  H    0.182703
    59  H    0.197505
    60  N   -0.597130
    61  H    0.363366
    62  N   -0.772538
    63  H    0.370262
    64  H    0.450903
    65  N   -0.756080
    66  H    0.379118
    67  H    0.380188
    68  C    0.775032
    69  O   -0.557271
    70  H    0.432819
 Sum of Mulliken charges =   1.00000

 Dipole moment (field-independent basis, Debye):
    X=              6.2710    Y=             16.1084    Z=             -5.6146  Tot=             18.1750
 Quadrupole moment (field-independent basis, Debye-Ang):
   XX=           -154.3652   YY=           -120.3412   ZZ=           -100.5331
   XY=             55.1839   XZ=            -26.1848   YZ=            -57.1458

 Normal termination of Gaussian 16 at Thu Jun 23 12:43:11 2022.
