 Gaussian 16, Revision C.01,
 Gaussian 16:  ES64L-G16RevC.01  3-Jul-2019

 ----------------------------------------------------------------------
 # B3LYP/6-31G* empiricaldispersion=gd3bj guess=read geom=check nosymm
 integral(ultrafinegrid)
 ----------------------------------------------------------------------

 ------------------------------------------------------
 Candidate Structure: Conf:862 Charge calc in gas phase
 ------------------------------------------------------
 Structure from the checkpoint file:  "conf-862.chk"
 Charge =  1 Multiplicity = 1

                          Input orientation:
 ---------------------------------------------------------------------
 Center     Atomic      Atomic             Coordinates (Angstroms)
 Number     Number       Type             X           Y           Z
 ---------------------------------------------------------------------
      1          7           0        0.594761   -2.430316   -2.589826
      2          1           0        0.384713   -3.149313   -3.278808
      3          1           0        0.384296   -1.529072   -3.013305
      4          6           0       -0.274738   -2.605288   -1.428866
      5          1           0       -1.325661   -2.813334   -1.706714
      6          6           0       -0.319698   -1.264189   -0.676494
      7          6           0        0.224906   -3.796994   -0.579356
      8          1           0       -0.556704   -4.099906    0.129144
      9          1           0        0.325140   -4.650775   -1.260863
     10          8           0       -0.094746   -0.205743   -1.273290
     11          6           0        1.508848   -3.541425    0.155815
     12          6           0        2.734937   -3.253635   -0.390738
     13          1           0        3.010368   -3.171681   -1.431063
     14          6           0        1.676539   -3.493839    1.587555
     15          6           0        3.040999   -3.175580    1.843493
     16          6           0        0.806948   -3.655618    2.678829
     17          1           0       -0.235033   -3.931502    2.526099
     18          7           0        3.655268   -3.018044    0.617222
     19          1           0        4.650268   -2.936249    0.475705
     20          6           0        2.657837   -3.207963    4.199146
     21          1           0        3.025016   -3.134508    5.218818
     22          6           0        3.546491   -3.045787    3.138207
     23          1           0        4.597735   -2.835356    3.316201
     24          6           0        1.298559   -3.502005    3.970996
     25          1           0        0.634329   -3.638563    4.819070
     26          7           0       -0.736570   -1.329049    0.613550
     27          1           0       -0.735594   -2.252032    1.022701
     28          6           0       -0.657488   -0.255916    1.601526
     29          1           0       -1.256289   -0.602634    2.452070
     30          6           0        0.813989   -0.152136    2.068074
     31          6           0       -1.286338    1.085719    1.126930
     32          1           0       -0.646771    1.491477    0.338618
     33          8           0        1.743206   -0.400710    1.291670
     34          6           0       -1.392405    2.125342    2.273234
     35          1           0       -2.334104    2.670670    2.146049
     36          1           0       -1.488791    1.625675    3.247320
     37          6           0       -2.671708    0.815648    0.523622
     38          1           0       -3.346139    0.374115    1.267844
     39          1           0       -3.116973    1.758277    0.189785
     40          1           0       -2.621318    0.145450   -0.335942
     41          6           0       -0.257718    3.150803    2.322560
     42          1           0       -0.417801    3.870756    3.130984
     43          1           0       -0.201086    3.706578    1.379004
     44          1           0        0.712026    2.680810    2.498451
     45          7           0        0.994090    0.200999    3.352253
     46          1           0        0.177373    0.451018    3.897665
     47          6           0        2.246278    0.364676    4.090235
     48          1           0        2.408099   -0.546791    4.685292
     49          6           0        1.994365    1.485992    5.097464
     50          6           0        3.518535    0.549966    3.246349
     51          1           0        4.345345    0.669857    3.951994
     52          1           0        3.674869   -0.389275    2.716087
     53          8           0        0.899126    1.946097    5.338521
     54          6           0        3.488710    1.716324    2.245415
     55          1           0        3.825534    2.647406    2.716275
     56          1           0        2.468642    1.890391    1.900679
     57          6           0        4.353788    1.396762    1.016960
     58          1           0        5.420012    1.476713    1.246884
     59          1           0        4.170997    0.369199    0.692924
     60          7           0        4.097188    2.272496   -0.132814
     61          1           0        4.514041    3.193593   -0.120472
     62          7           0        2.311021    1.025616   -0.947643
     63          1           0        1.568491    0.837416   -1.615589
     64          1           0        2.194044    0.467245   -0.088628
     65          7           0        2.969664    2.971434   -2.030722
     66          1           0        3.764135    3.521727   -2.325228
     67          1           0        2.264823    2.808293   -2.735707
     68          6           0        3.114033    2.069140   -1.029124
     69          8           0        3.119915    1.866475    5.724002
     70          1           0        2.866063    2.533307    6.391145
 ---------------------------------------------------------------------

 SCF Done:  E(RB3LYP) =  -1582.32080890     A.U. after    3 cycles

 Alpha  occ. eigenvalues --  -19.30466 -19.24895 -19.22821 -19.21767 -14.50850
 Alpha  occ. eigenvalues --  -14.50652 -14.48052 -14.47318 -14.45913 -14.45797
 Alpha  occ. eigenvalues --  -14.39865 -10.46473 -10.42881 -10.40043 -10.38661
 Alpha  occ. eigenvalues --  -10.34973 -10.34840 -10.33753 -10.31307 -10.29893
 Alpha  occ. eigenvalues --  -10.29808 -10.29448 -10.29387 -10.28453 -10.27903
 Alpha  occ. eigenvalues --  -10.27190 -10.26997 -10.26895 -10.26634 -10.26491
 Alpha  occ. eigenvalues --  -10.26351 -10.25916 -10.25852 -10.25412  -1.21530
 Alpha  occ. eigenvalues --   -1.15322  -1.14853  -1.13237  -1.12588  -1.05640
 Alpha  occ. eigenvalues --   -1.04727  -1.03929  -1.02817  -1.02345  -0.97424
 Alpha  occ. eigenvalues --   -0.92034  -0.91775  -0.90115  -0.87909  -0.86985
 Alpha  occ. eigenvalues --   -0.83854  -0.82157  -0.81402  -0.81009  -0.79835
 Alpha  occ. eigenvalues --   -0.78650  -0.76554  -0.74324  -0.73364  -0.72629
 Alpha  occ. eigenvalues --   -0.72189  -0.71046  -0.70129  -0.69217  -0.68543
 Alpha  occ. eigenvalues --   -0.67328  -0.67163  -0.65453  -0.64521  -0.64005
 Alpha  occ. eigenvalues --   -0.63180  -0.62106  -0.61986  -0.60539  -0.60234
 Alpha  occ. eigenvalues --   -0.59802  -0.58994  -0.58512  -0.57566  -0.57370
 Alpha  occ. eigenvalues --   -0.57157  -0.56591  -0.55584  -0.55001  -0.54646
 Alpha  occ. eigenvalues --   -0.54217  -0.53518  -0.52557  -0.52375  -0.51978
 Alpha  occ. eigenvalues --   -0.51446  -0.51133  -0.50986  -0.50663  -0.50142
 Alpha  occ. eigenvalues --   -0.49955  -0.49831  -0.49156  -0.48311  -0.48154
 Alpha  occ. eigenvalues --   -0.47930  -0.47411  -0.46425  -0.45872  -0.45540
 Alpha  occ. eigenvalues --   -0.45290  -0.45102  -0.44750  -0.44156  -0.43158
 Alpha  occ. eigenvalues --   -0.42578  -0.41992  -0.41615  -0.41458  -0.41351
 Alpha  occ. eigenvalues --   -0.41116  -0.40808  -0.39246  -0.38572  -0.37765
 Alpha  occ. eigenvalues --   -0.36701  -0.35888  -0.35522  -0.34488  -0.32285
 Alpha  occ. eigenvalues --   -0.30172  -0.28119
 Alpha virt. eigenvalues --   -0.10702  -0.10141  -0.09935  -0.09124  -0.07199
 Alpha virt. eigenvalues --   -0.06931  -0.05620  -0.03350  -0.03303  -0.02612
 Alpha virt. eigenvalues --   -0.01484  -0.01280  -0.01157  -0.00438   0.00024

 Mulliken charges:
               1
     1  N   -0.727879
     2  H    0.309043
     3  H    0.313764
     4  C   -0.064210
     5  H    0.157479
     6  C    0.657340
     7  C   -0.394009
     8  H    0.145947
     9  H    0.173164
    10  O   -0.583272
    11  C    0.081912
    12  C    0.021029
    13  H    0.175657
    14  C    0.088913
    15  C    0.340556
    16  C   -0.248658
    17  H    0.127694
    18  N   -0.698401
    19  H    0.331256
    20  C   -0.169421
    21  H    0.138530
    22  C   -0.181150
    23  H    0.133023
    24  C   -0.141240
    25  H    0.137052
    26  N   -0.592056
    27  H    0.350260
    28  C   -0.082647
    29  H    0.159394
    30  C    0.666234
    31  C   -0.069401
    32  H    0.152605
    33  O   -0.572848
    34  C   -0.286051
    35  H    0.162906
    36  H    0.134787
    37  C   -0.457313
    38  H    0.147809
    39  H    0.158556
    40  H    0.164536
    41  C   -0.459488
    42  H    0.168945
    43  H    0.141895
    44  H    0.142202
    45  N   -0.610320
    46  H    0.367863
    47  C   -0.038456
    48  H    0.210501
    49  C    0.600553
    50  C   -0.294772
    51  H    0.177413
    52  H    0.194353
    53  O   -0.462640
    54  C   -0.276487
    55  H    0.156880
    56  H    0.163784
    57  C   -0.178975
    58  H    0.183566
    59  H    0.197427
    60  N   -0.601980
    61  H    0.356031
    62  N   -0.808166
    63  H    0.393647
    64  H    0.460442
    65  N   -0.763351
    66  H    0.370371
    67  H    0.376651
    68  C    0.800752
    69  O   -0.561417
    70  H    0.431888
 Sum of Mulliken charges =   1.00000

 Dipole moment (field-independent basis, Debye):
    X=             12.3923    Y=              4.8285    Z=              2.1170  Tot=             13.4672
 Quadrupole moment (field-independent basis, Debye-Ang):
   XX=           -132.9147   YY=           -162.4566   ZZ=           -145.5974
   XY=             30.8283   XZ=              6.5518   YZ=             -0.2947

 Normal termination of Gaussian 16 at Thu Jun 23 12:43:28 2022.
