 Gaussian 16, Revision C.01,
 Gaussian 16:  ES64L-G16RevC.01  3-Jul-2019

 -------------------------------------------------------------------
 # B3LYP/6-31G* guess=read geom=check nosymm integral(ultrafinegrid)
 -------------------------------------------------------------------

 ------------------------------------------------------
 Candidate Structure: Conf:684 Charge calc in gas phase
 ------------------------------------------------------
 Structure from the checkpoint file:  "conf-684.chk"
 Charge =  1 Multiplicity = 1

                          Input orientation:
 ---------------------------------------------------------------------
 Center     Atomic      Atomic             Coordinates (Angstroms)
 Number     Number       Type             X           Y           Z
 ---------------------------------------------------------------------
      1          7           0       -2.854358   -3.321263    2.378610
      2          1           0       -2.622455   -4.220279    1.959100
      3          1           0       -3.341558   -3.504769    3.252349
      4          1           0       -3.295877   -2.058202    1.050744
      5          6           0       -1.667609   -2.475056    2.577369
      6          1           0       -0.745413   -3.036468    2.760247
      7          6           0       -1.517305   -1.727539    1.251908
      8          6           0       -1.938186   -1.519113    3.779362
      9          1           0       -1.761219   -2.108068    4.686533
     10          1           0       -3.008320   -1.280480    3.762975
     11          8           0       -2.613672   -1.495529    0.583959
     12          6           0       -1.199712   -0.173348    3.878826
     13          1           0       -1.598518    0.372086    4.738115
     14          1           0       -1.432740    0.450142    3.003416
     15          6           0        0.309598   -0.125421    4.019150
     16          8           0        0.946119   -1.113121    3.338517
     17          8           0        0.894862    0.749822    4.609128
     18          7           0       -0.365992   -1.323131    0.816299
     19          1           0        0.455447   -1.538463    1.387196
     20          6           0       -0.042866   -0.513044   -0.380670
     21          1           0       -0.773326    0.298554   -0.453561
     22          6           0        1.383678    0.008302   -0.057336
     23          6           0       -0.081370   -1.372877   -1.677248
     24          1           0        0.496042   -2.282586   -1.478464
     25          1           0       -1.121066   -1.672923   -1.850606
     26          8           0        2.180720   -0.793896    0.427849
     27          6           0        0.489802   -0.636741   -2.864737
     28          6           0       -0.281216    0.196893   -3.686978
     29          1           0       -1.354228    0.279796   -3.521386
     30          6           0        1.862027   -0.752177   -3.138021
     31          1           0        2.474201   -1.415845   -2.531384
     32          6           0        0.303507    0.925154   -4.720319
     33          1           0       -0.289598    1.579507   -5.351601
     34          6           0        2.458096   -0.025659   -4.160783
     35          1           0        3.521235   -0.123797   -4.361293
     36          8           0        2.238065    1.611094   -5.911056
     37          6           0        1.687318    0.846539   -4.946144
     38          7           0        1.622796    1.326754   -0.221662
     39          1           0        0.952089    1.887582   -0.731589
     40          6           0        2.912438    1.940658    0.145973
     41          1           0        3.655365    1.137372    0.099694
     42          6           0        2.829787    2.409098    1.616304
     43          6           0        3.303596    3.114455   -0.759416
     44          1           0        2.558293    3.913986   -0.647181
     45          1           0        4.227904    3.528015   -0.339990
     46          8           0        2.943751    3.549813    1.987743
     47          6           0        3.517240    2.775686   -2.241725
     48          1           0        2.598416    2.376700   -2.682477
     49          1           0        4.258643    1.967754   -2.313966
     50          6           0        4.006867    3.992394   -3.059031
     51          1           0        3.150025    4.529243   -3.482946
     52          1           0        4.475397    4.707829   -2.367255
     53          6           0        5.047648    3.752769   -4.159138
     54          1           0        5.476225    4.723440   -4.447758
     55          1           0        5.871991    3.155611   -3.750557
     56          7           0        4.524830    3.027929   -5.343719
     57          1           0        5.311794    2.734565   -5.923837
     58          1           0        4.009163    3.694451   -5.923011
     59          1           0        3.153362    1.892383   -5.630343
     60          8           0        2.596118    1.371927    2.459395
     61          1           0        1.893579   -0.871707    3.275055
     62          1           0        2.461108    1.730419    3.360438
 ---------------------------------------------------------------------

 SCF Done:  E(RB3LYP) =  -1526.20426529     A.U. after    1 cycles

 Alpha  occ. eigenvalues --  -19.36493 -19.32708 -19.29075 -19.26516 -19.24316
 Alpha  occ. eigenvalues --  -19.23730 -19.22014 -14.54815 -14.49512 -14.49030
 Alpha  occ. eigenvalues --  -14.42031 -10.48267 -10.45063 -10.41785 -10.41714
 Alpha  occ. eigenvalues --  -10.40070 -10.38046 -10.35081 -10.34507 -10.33950
 Alpha  occ. eigenvalues --  -10.32037 -10.30995 -10.29745 -10.28288 -10.27876
 Alpha  occ. eigenvalues --  -10.27522 -10.27211 -10.26972 -10.26682 -10.26205
 Alpha  occ. eigenvalues --  -10.26115  -1.27188  -1.23231  -1.19934  -1.16660
 Alpha  occ. eigenvalues --   -1.14358  -1.11898  -1.11242  -1.10889  -1.06190
 Alpha  occ. eigenvalues --   -1.04908  -0.97670  -0.94824  -0.93743  -0.91670
 Alpha  occ. eigenvalues --   -0.89443  -0.86558  -0.85212  -0.83530  -0.82585
 Alpha  occ. eigenvalues --   -0.79962  -0.79390  -0.79001  -0.76028  -0.73883
 Alpha  occ. eigenvalues --   -0.73089  -0.71660  -0.69919  -0.69374  -0.68993
 Alpha  occ. eigenvalues --   -0.67955  -0.66971  -0.66708  -0.66147  -0.65434
 Alpha  occ. eigenvalues --   -0.63238  -0.61787  -0.61339  -0.60722  -0.60663
 Alpha  occ. eigenvalues --   -0.60134  -0.59679  -0.59435  -0.58692  -0.58302
 Alpha  occ. eigenvalues --   -0.57350  -0.56792  -0.55900  -0.55351  -0.54945
 Alpha  occ. eigenvalues --   -0.54769  -0.54296  -0.54070  -0.53243  -0.53103
 Alpha  occ. eigenvalues --   -0.52077  -0.51728  -0.51410  -0.50481  -0.50051
 Alpha  occ. eigenvalues --   -0.49890  -0.49813  -0.49559  -0.49423  -0.48584
 Alpha  occ. eigenvalues --   -0.48276  -0.47655  -0.46552  -0.46075  -0.44855
 Alpha  occ. eigenvalues --   -0.44489  -0.44038  -0.43273  -0.42931  -0.42873
 Alpha  occ. eigenvalues --   -0.42078  -0.41558  -0.41362  -0.41093  -0.40081
 Alpha  occ. eigenvalues --   -0.39681  -0.38522  -0.38114  -0.35947  -0.34518
 Alpha  occ. eigenvalues --   -0.33135  -0.29339
 Alpha virt. eigenvalues --   -0.17906  -0.12367  -0.11338  -0.08637  -0.08048
 Alpha virt. eigenvalues --   -0.07735  -0.07056  -0.04442  -0.03931  -0.02746
 Alpha virt. eigenvalues --   -0.01888  -0.01197  -0.00603  -0.00216   0.00438

 Mulliken charges:
               1
     1  N   -0.780370
     2  H    0.355746
     3  H    0.359704
     4  H    0.466706
     5  C   -0.062699
     6  H    0.204787
     7  C    0.633475
     8  C   -0.300196
     9  H    0.201866
    10  H    0.184113
    11  O   -0.546182
    12  C   -0.381267
    13  H    0.223660
    14  H    0.191412
    15  C    0.616219
    16  O   -0.601903
    17  O   -0.444986
    18  N   -0.582622
    19  H    0.422292
    20  C   -0.045989
    21  H    0.184138
    22  C    0.633844
    23  C   -0.360305
    24  H    0.176437
    25  H    0.175446
    26  O   -0.539236
    27  C    0.139726
    28  C   -0.205431
    29  H    0.128998
    30  C   -0.189361
    31  H    0.143543
    32  C   -0.164134
    33  H    0.151824
    34  C   -0.189083
    35  H    0.143209
    36  O   -0.685933
    37  C    0.359379
    38  N   -0.604688
    39  H    0.353087
    40  C   -0.051793
    41  H    0.209677
    42  C    0.601472
    43  C   -0.298558
    44  H    0.160611
    45  H    0.178699
    46  O   -0.428415
    47  C   -0.265832
    48  H    0.155143
    49  H    0.140992
    50  C   -0.264721
    51  H    0.148243
    52  H    0.152077
    53  C   -0.151392
    54  H    0.151404
    55  H    0.155866
    56  N   -0.760836
    57  H    0.330521
    58  H    0.331931
    59  H    0.453335
    60  O   -0.600520
    61  H    0.450733
    62  H    0.436135
 Sum of Mulliken charges =   1.00000

 Dipole moment (field-independent basis, Debye):
    X=             -1.2615    Y=             -3.7946    Z=              3.5068  Tot=              5.3186
 Quadrupole moment (field-independent basis, Debye-Ang):
   XX=           -126.7704   YY=           -143.1048   ZZ=           -140.1685
   XY=             36.2586   XZ=            -47.2452   YZ=            -47.2018

 Normal termination of Gaussian 16 at Tue May 24 03:26:08 2022.
