 Gaussian 16, Revision C.01,
 Gaussian 16:  ES64L-G16RevC.01  3-Jul-2019

 -------------------------------------------------------------------
 # B3LYP/6-31G* guess=read geom=check nosymm integral(ultrafinegrid)
 -------------------------------------------------------------------

 ------------------------------------------------------
 Candidate Structure: Conf:222 Charge calc in gas phase
 ------------------------------------------------------
 Structure from the checkpoint file:  "conf-222.chk"
 Charge =  1 Multiplicity = 1

                          Input orientation:
 ---------------------------------------------------------------------
 Center     Atomic      Atomic             Coordinates (Angstroms)
 Number     Number       Type             X           Y           Z
 ---------------------------------------------------------------------
      1          7           0       -0.821595   -3.950546    2.227474
      2          1           0       -0.303172   -4.265851    3.049294
      3          1           0       -1.484520   -4.681320    1.958589
      4          1           0       -0.141205   -3.691677    1.400479
      5          6           0       -1.469438   -2.590348    2.399429
      6          1           0       -1.273980   -2.247570    3.417327
      7          6           0       -0.664926   -1.712553    1.386676
      8          6           0       -2.985313   -2.701286    2.151930
      9          1           0       -3.392760   -3.416064    2.878808
     10          1           0       -3.152767   -3.117063    1.148868
     11          8           0        0.166813   -2.356937    0.672820
     12          6           0       -3.774975   -1.381005    2.277738
     13          1           0       -4.839946   -1.616299    2.220037
     14          1           0       -3.516874   -0.716527    1.449374
     15          6           0       -3.528616   -0.686372    3.622192
     16          8           0       -2.397065    0.039394    3.695689
     17          8           0       -4.266050   -0.819946    4.569683
     18          7           0       -0.935190   -0.432483    1.426978
     19          1           0       -1.898319    0.014915    2.824509
     20          6           0       -0.251485    0.446239    0.505518
     21          1           0       -0.677942    1.448798    0.656309
     22          6           0        1.221517    0.645467    0.863681
     23          6           0       -0.501791    0.089931   -1.010717
     24          1           0       -0.147796   -0.929201   -1.174723
     25          1           0       -1.594602    0.073664   -1.094809
     26          8           0        1.728223   -0.082211    1.815842
     27          6           0        0.106867    1.028856   -2.027725
     28          6           0       -0.258977    2.388402   -2.104941
     29          1           0       -1.063820    2.768194   -1.477112
     30          6           0        1.098576    0.577828   -2.910740
     31          1           0        1.375856   -0.474141   -2.907145
     32          6           0        0.391603    3.270578   -2.964195
     33          1           0        0.118930    4.320630   -3.001223
     34          6           0        1.741007    1.443946   -3.795043
     35          1           0        2.490938    1.062103   -4.481852
     36          8           0        2.089371    3.721723   -4.542086
     37          6           0        1.433321    2.817604   -3.796764
     38          7           0        1.920529    1.581873    0.252838
     39          1           0        1.414718    2.073857   -0.488890
     40          6           0        3.387058    1.839611    0.278687
     41          1           0        3.901151    0.870541    0.239969
     42          6           0        3.772899    2.529553    1.594507
     43          6           0        3.718771    2.682782   -0.955941
     44          1           0        3.257902    2.172572   -1.807481
     45          1           0        3.220367    3.654075   -0.852077
     46          8           0        4.113379    3.669492    1.736333
     47          6           0        5.207439    2.917718   -1.253748
     48          1           0        5.772048    1.977214   -1.176393
     49          1           0        5.628187    3.602662   -0.511658
     50          6           0        5.368276    3.507987   -2.671973
     51          1           0        4.559669    4.229392   -2.849523
     52          1           0        6.306352    4.071065   -2.734147
     53          6           0        5.332491    2.443783   -3.784169
     54          1           0        6.345109    2.046909   -3.947061
     55          1           0        4.708838    1.595171   -3.479365
     56          7           0        4.735656    2.986798   -5.025915
     57          1           0        2.987645    3.378137   -4.833624
     58          1           0        4.882805    2.335379   -5.797255
     59          1           0        5.217711    3.845232   -5.295926
     60          8           0        3.671245    1.637647    2.630808
     61          1           0        2.573886    0.288804    2.169006
     62          1           0        3.877405    2.096533    3.470028
 ---------------------------------------------------------------------

 SCF Done:  E(RB3LYP) =  -1526.16379439     A.U. after    1 cycles

 Alpha  occ. eigenvalues --  -19.35901 -19.35373 -19.29065 -19.23889 -19.23653
 Alpha  occ. eigenvalues --  -19.23053 -19.18828 -14.55767 -14.54355 -14.43910
 Alpha  occ. eigenvalues --  -14.41327 -10.47742 -10.46962 -10.39693 -10.38375
 Alpha  occ. eigenvalues --  -10.37613 -10.36736 -10.36090 -10.34114 -10.31631
 Alpha  occ. eigenvalues --  -10.31607 -10.31373 -10.30024 -10.29770 -10.29279
 Alpha  occ. eigenvalues --  -10.29183 -10.29054 -10.28718 -10.28376 -10.28244
 Alpha  occ. eigenvalues --  -10.28019  -1.26591  -1.25114  -1.16914  -1.14903
 Alpha  occ. eigenvalues --   -1.14594  -1.12646  -1.11403  -1.09259  -1.06773
 Alpha  occ. eigenvalues --   -1.00765  -0.99600  -0.95222  -0.94654  -0.91251
 Alpha  occ. eigenvalues --   -0.89177  -0.87595  -0.84429  -0.84382  -0.82146
 Alpha  occ. eigenvalues --   -0.82101  -0.79626  -0.77355  -0.75723  -0.74779
 Alpha  occ. eigenvalues --   -0.73055  -0.72838  -0.71197  -0.70310  -0.68819
 Alpha  occ. eigenvalues --   -0.68555  -0.68216  -0.67336  -0.66135  -0.65954
 Alpha  occ. eigenvalues --   -0.63633  -0.63178  -0.62855  -0.61191  -0.60604
 Alpha  occ. eigenvalues --   -0.59581  -0.59362  -0.58221  -0.57876  -0.57718
 Alpha  occ. eigenvalues --   -0.57088  -0.56730  -0.56645  -0.56185  -0.55786
 Alpha  occ. eigenvalues --   -0.54799  -0.54403  -0.53516  -0.52904  -0.52282
 Alpha  occ. eigenvalues --   -0.51549  -0.51178  -0.50954  -0.50784  -0.50170
 Alpha  occ. eigenvalues --   -0.49979  -0.49390  -0.48549  -0.48472  -0.47949
 Alpha  occ. eigenvalues --   -0.47686  -0.47120  -0.46815  -0.46477  -0.45686
 Alpha  occ. eigenvalues --   -0.45210  -0.45092  -0.44856  -0.44331  -0.43589
 Alpha  occ. eigenvalues --   -0.42698  -0.42491  -0.41678  -0.40863  -0.38651
 Alpha  occ. eigenvalues --   -0.36722  -0.36277  -0.36133  -0.35226  -0.34680
 Alpha  occ. eigenvalues --   -0.32415  -0.30701
 Alpha virt. eigenvalues --   -0.16975  -0.14412  -0.10663  -0.09124  -0.08366
 Alpha virt. eigenvalues --   -0.07916  -0.06895  -0.05163  -0.03301  -0.03056
 Alpha virt. eigenvalues --   -0.02803  -0.02091  -0.00629  -0.00379  -0.00264

 Mulliken charges:
               1
     1  N   -0.773402
     2  H    0.400752
     3  H    0.398189
     4  H    0.429040
     5  C   -0.108751
     6  H    0.221054
     7  C    0.624072
     8  C   -0.298110
     9  H    0.180681
    10  H    0.164056
    11  O   -0.627747
    12  C   -0.360575
    13  H    0.192954
    14  H    0.173382
    15  C    0.568721
    16  O   -0.609448
    17  O   -0.439705
    18  N   -0.572267
    19  H    0.442413
    20  C   -0.091109
    21  H    0.193388
    22  C    0.648629
    23  C   -0.359434
    24  H    0.201883
    25  H    0.183437
    26  O   -0.546682
    27  C    0.104140
    28  C   -0.232147
    29  H    0.147002
    30  C   -0.190399
    31  H    0.143901
    32  C   -0.158196
    33  H    0.164882
    34  C   -0.205923
    35  H    0.142417
    36  O   -0.673051
    37  C    0.364046
    38  N   -0.589397
    39  H    0.404902
    40  C   -0.072693
    41  H    0.207312
    42  C    0.636463
    43  C   -0.329314
    44  H    0.185412
    45  H    0.187598
    46  O   -0.393232
    47  C   -0.286603
    48  H    0.144061
    49  H    0.181764
    50  C   -0.287591
    51  H    0.168603
    52  H    0.165126
    53  C   -0.138535
    54  H    0.157138
    55  H    0.144838
    56  N   -0.773612
    57  H    0.466067
    58  H    0.332539
    59  H    0.336005
    60  O   -0.614511
    61  H    0.473462
    62  H    0.452105
 Sum of Mulliken charges =   1.00000

 Dipole moment (field-independent basis, Debye):
    X=             13.3422    Y=             -3.6541    Z=             -1.4103  Tot=             13.9053
 Quadrupole moment (field-independent basis, Debye-Ang):
   XX=           -123.3267   YY=           -125.8580   ZZ=           -157.8911
   XY=             37.3828   XZ=             -5.1317   YZ=            -31.8069

 Normal termination of Gaussian 16 at Tue May 24 03:24:44 2022.
