 Gaussian 16, Revision C.01,
 Gaussian 16:  ES64L-G16RevC.01  3-Jul-2019

 -------------------------------------------------------------------
 # B3LYP/6-31G* guess=read geom=check nosymm integral(ultrafinegrid)
 -------------------------------------------------------------------

 ------------------------------------------------------
 Candidate Structure: Conf:961 Charge calc in gas phase
 ------------------------------------------------------
 Structure from the checkpoint file:  "conf-961.chk"
 Charge =  1 Multiplicity = 1

                          Input orientation:
 ---------------------------------------------------------------------
 Center     Atomic      Atomic             Coordinates (Angstroms)
 Number     Number       Type             X           Y           Z
 ---------------------------------------------------------------------
      1          7           0       -2.110493   -4.533715    2.029515
      2          1           0       -1.951909   -4.509073    0.973409
      3          1           0       -1.613308   -5.312549    2.468801
      4          1           0       -3.113903   -4.644125    2.207258
      5          6           0       -1.595549   -3.165970    2.432435
      6          1           0       -0.534736   -3.318755    2.661768
      7          6           0       -1.588972   -2.404026    1.058851
      8          6           0       -2.329656   -2.571683    3.660125
      9          1           0       -3.056520   -3.299362    4.040343
     10          1           0       -2.908474   -1.692987    3.361477
     11          8           0       -1.626685   -3.122302    0.051042
     12          6           0       -1.379815   -2.199768    4.815196
     13          1           0       -0.828505   -3.070524    5.182890
     14          1           0       -1.974721   -1.822248    5.655943
     15          6           0       -0.398660   -1.107014    4.417185
     16          8           0        0.794398   -1.249034    4.964339
     17          8           0       -0.699553   -0.203978    3.644965
     18          7           0       -1.501305   -1.075198    1.124704
     19          1           0       -1.447578   -0.692066    2.074302
     20          6           0       -0.857491   -0.174769    0.145693
     21          1           0       -1.390103    0.778491    0.225599
     22          6           0        0.589490    0.013876    0.664642
     23          6           0       -0.892830   -0.628064   -1.331239
     24          1           0       -0.450047   -1.620899   -1.419402
     25          1           0       -1.943003   -0.712846   -1.634582
     26          8           0        1.259970   -0.980911    0.988575
     27          6           0       -0.126016    0.364389   -2.178192
     28          6           0       -0.582949    1.677588   -2.358769
     29          1           0       -1.572506    1.962623   -2.002561
     30          6           0        1.123079    0.021319   -2.715065
     31          1           0        1.490132   -0.996616   -2.604685
     32          6           0        0.205471    2.634226   -2.995246
     33          1           0       -0.162295    3.647238   -3.132982
     34          6           0        1.916911    0.962364   -3.361286
     35          1           0        2.892324    0.698885   -3.758027
     36          8           0        2.323199    3.198767   -4.012747
     37          6           0        1.486640    2.293716   -3.468020
     38          7           0        1.022062    1.278539    0.816793
     39          1           0        0.433467    2.031062    0.482639
     40          6           0        2.361177    1.648618    1.318397
     41          1           0        3.094888    1.021349    0.795346
     42          6           0        2.446175    1.329896    2.835954
     43          6           0        2.657268    3.134034    1.078221
     44          1           0        1.880908    3.728934    1.577760
     45          1           0        3.580830    3.357575    1.622797
     46          8           0        2.544867    2.160227    3.699268
     47          6           0        2.811226    3.562876   -0.389751
     48          1           0        1.881556    3.395090   -0.944409
     49          1           0        3.573042    2.941536   -0.879636
     50          6           0        3.221580    5.042646   -0.482297
     51          1           0        2.443738    5.670993   -0.021197
     52          1           0        4.122989    5.197263    0.125619
     53          6           0        3.531414    5.580534   -1.883813
     54          1           0        3.993117    6.572116   -1.772577
     55          1           0        4.265905    4.935177   -2.379485
     56          7           0        2.338250    5.641964   -2.763331
     57          1           0        2.550448    6.235110   -3.566332
     58          1           0        1.573454    6.108278   -2.274386
     59          1           0        2.144870    4.103338   -3.619432
     60          8           0        2.413575    0.005214    3.139077
     61          1           0        2.191304   -0.526137    2.322781
     62          1           0        1.417728   -0.587749    4.558526
 ---------------------------------------------------------------------

 SCF Done:  E(RB3LYP) =  -1526.21760592     A.U. after    1 cycles

 Alpha  occ. eigenvalues --  -19.30357 -19.28255 -19.27638 -19.26275 -19.24628
 Alpha  occ. eigenvalues --  -19.22960 -19.21372 -14.61042 -14.49714 -14.48739
 Alpha  occ. eigenvalues --  -14.42120 -10.44612 -10.44598 -10.42024 -10.41306
 Alpha  occ. eigenvalues --  -10.41183 -10.36070 -10.35882 -10.34572 -10.33701
 Alpha  occ. eigenvalues --  -10.31447 -10.29446 -10.29025 -10.28207 -10.26968
 Alpha  occ. eigenvalues --  -10.26959 -10.26911 -10.26904 -10.26452 -10.25939
 Alpha  occ. eigenvalues --  -10.25296  -1.22244  -1.20137  -1.19070  -1.15968
 Alpha  occ. eigenvalues --   -1.14700  -1.13352  -1.10873  -1.10208  -1.06808
 Alpha  occ. eigenvalues --   -1.04648  -0.97764  -0.95848  -0.93224  -0.90470
 Alpha  occ. eigenvalues --   -0.89006  -0.87109  -0.84834  -0.82003  -0.81840
 Alpha  occ. eigenvalues --   -0.80608  -0.78241  -0.76114  -0.75538  -0.73738
 Alpha  occ. eigenvalues --   -0.72530  -0.71561  -0.70529  -0.69694  -0.69150
 Alpha  occ. eigenvalues --   -0.69036  -0.67544  -0.66900  -0.65736  -0.64582
 Alpha  occ. eigenvalues --   -0.63447  -0.62908  -0.62400  -0.61141  -0.60673
 Alpha  occ. eigenvalues --   -0.60068  -0.59436  -0.58754  -0.58330  -0.57084
 Alpha  occ. eigenvalues --   -0.55890  -0.55395  -0.54994  -0.54575  -0.54350
 Alpha  occ. eigenvalues --   -0.54176  -0.53940  -0.53374  -0.52983  -0.51635
 Alpha  occ. eigenvalues --   -0.51537  -0.51461  -0.51058  -0.50924  -0.50242
 Alpha  occ. eigenvalues --   -0.49853  -0.49356  -0.49120  -0.48558  -0.47421
 Alpha  occ. eigenvalues --   -0.47275  -0.46875  -0.46069  -0.44764  -0.44273
 Alpha  occ. eigenvalues --   -0.43391  -0.43041  -0.42468  -0.42082  -0.41753
 Alpha  occ. eigenvalues --   -0.41597  -0.40870  -0.40676  -0.40362  -0.39875
 Alpha  occ. eigenvalues --   -0.39438  -0.38316  -0.37717  -0.35502  -0.34198
 Alpha  occ. eigenvalues --   -0.32608  -0.28485
 Alpha virt. eigenvalues --   -0.14310  -0.12229  -0.11623  -0.09698  -0.08594
 Alpha virt. eigenvalues --   -0.07923  -0.07476  -0.06676  -0.05736  -0.03055
 Alpha virt. eigenvalues --   -0.02786  -0.01316  -0.01083  -0.00273   0.00895

 Mulliken charges:
               1
     1  N   -0.758970
     2  H    0.438758
     3  H    0.418056
     4  H    0.412811
     5  C   -0.112576
     6  H    0.244033
     7  C    0.654133
     8  C   -0.326344
     9  H    0.175393
    10  H    0.213553
    11  O   -0.534210
    12  C   -0.363614
    13  H    0.189895
    14  H    0.222815
    15  C    0.597473
    16  O   -0.557693
    17  O   -0.498556
    18  N   -0.623678
    19  H    0.408432
    20  C   -0.060914
    21  H    0.171066
    22  C    0.654864
    23  C   -0.357094
    24  H    0.193300
    25  H    0.173997
    26  O   -0.583645
    27  C    0.143598
    28  C   -0.214461
    29  H    0.125431
    30  C   -0.189663
    31  H    0.136991
    32  C   -0.200810
    33  H    0.134457
    34  C   -0.163476
    35  H    0.149931
    36  O   -0.690173
    37  C    0.368436
    38  N   -0.586377
    39  H    0.358861
    40  C   -0.078783
    41  H    0.197654
    42  C    0.639481
    43  C   -0.303372
    44  H    0.161162
    45  H    0.182123
    46  O   -0.422823
    47  C   -0.276433
    48  H    0.151777
    49  H    0.154729
    50  C   -0.274951
    51  H    0.136266
    52  H    0.157847
    53  C   -0.136234
    54  H    0.151160
    55  H    0.168854
    56  N   -0.774831
    57  H    0.336154
    58  H    0.318759
    59  H    0.467027
    60  O   -0.646533
    61  H    0.456056
    62  H    0.470882
 Sum of Mulliken charges =   1.00000

 Dipole moment (field-independent basis, Debye):
    X=             -6.2221    Y=             -7.0737    Z=              8.2335  Tot=             12.5117
 Quadrupole moment (field-independent basis, Debye-Ang):
   XX=           -148.6734   YY=            -62.8942   ZZ=           -163.8766
   XY=             48.5523   XZ=            -32.3602   YZ=            -60.4922

 Normal termination of Gaussian 16 at Tue May 24 03:25:43 2022.
