 Gaussian 16, Revision C.01,
 Gaussian 16:  ES64L-G16RevC.01  3-Jul-2019

 -------------------------------------------------------------------
 # B3LYP/6-31G* guess=read geom=check nosymm integral(ultrafinegrid)
 -------------------------------------------------------------------

 ------------------------------------------------------
 Candidate Structure: Conf:746 Charge calc in gas phase
 ------------------------------------------------------
 Structure from the checkpoint file:  "conf-746.chk"
 Charge =  1 Multiplicity = 1

                          Input orientation:
 ---------------------------------------------------------------------
 Center     Atomic      Atomic             Coordinates (Angstroms)
 Number     Number       Type             X           Y           Z
 ---------------------------------------------------------------------
      1          7           0        0.245388   -4.693601    2.521524
      2          1           0        1.248489   -4.578602    2.668227
      3          1           0       -0.134843   -5.335246    3.213465
      4          1           0        0.138390   -5.112228    1.597317
      5          6           0       -0.438497   -3.386542    2.560068
      6          1           0       -0.105244   -2.835110    3.448218
      7          6           0       -0.007111   -2.578734    1.330840
      8          6           0       -1.957785   -3.546798    2.659099
      9          1           0       -2.429617   -2.563481    2.596088
     10          1           0       -2.200580   -3.955086    3.645662
     11          8           0        0.683494   -3.073743    0.456424
     12          6           0       -2.583493   -4.454492    1.606290
     13          1           0       -2.221538   -5.480408    1.716702
     14          1           0       -2.383551   -4.099756    0.594397
     15          6           0       -4.098708   -4.409052    1.897927
     16          8           0       -4.736176   -3.524818    1.297002
     17          8           0       -4.510129   -5.240788    2.726489
     18          7           0       -0.481912   -1.303294    1.292505
     19          1           0       -0.866729   -0.946653    2.148764
     20          6           0        0.033839   -0.290521    0.378943
     21          1           0       -0.647574    0.561924    0.470844
     22          6           0        1.422300    0.186945    0.835414
     23          6           0       -0.003626   -0.741225   -1.095229
     24          1           0        0.756961   -1.494404   -1.273460
     25          1           0       -0.973921   -1.214060   -1.240318
     26          8           0        2.071599   -0.425178    1.681919
     27          6           0        0.161965    0.404946   -2.044597
     28          6           0       -0.780401    1.437234   -2.074719
     29          1           0       -1.681119    1.342360   -1.475484
     30          6           0        1.295699    0.519419   -2.854591
     31          1           0        2.034787   -0.276396   -2.855950
     32          6           0       -0.563233    2.588195   -2.794668
     33          1           0       -1.286682    3.395436   -2.791760
     34          6           0        1.534437    1.648309   -3.603253
     35          1           0        2.432578    1.746959   -4.200505
     36          8           0        0.867775    3.833832   -4.172421
     37          6           0        0.634673    2.771429   -3.576829
     38          7           0        1.876063    1.332163    0.284100
     39          1           0        1.343921    1.751201   -0.469098
     40          6           0        3.288727    1.722245    0.398663
     41          1           0        3.888179    0.811843    0.317874
     42          6           0        3.541128    2.273980    1.778014
     43          6           0        3.683525    2.648681   -0.743460
     44          1           0        4.743146    2.892261   -0.643838
     45          1           0        3.590092    2.044408   -1.655729
     46          8           0        3.571950    3.398694    2.160866
     47          6           0        2.872966    3.924790   -0.905443
     48          1           0        3.010226    4.571806   -0.037968
     49          1           0        1.809059    3.679871   -0.943331
     50          6           0        3.287771    4.649520   -2.179326
     51          1           0        4.366085    4.838143   -2.139691
     52          1           0        3.133981    3.989613   -3.040730
     53          6           0        2.613332    5.994697   -2.411296
     54          1           0        2.951732    6.688951   -1.635529
     55          1           0        2.950280    6.407956   -3.366824
     56          7           0        1.134258    5.936580   -2.394274
     57          1           0        0.723226    6.828991   -2.676536
     58          1           0        0.797901    5.723768   -1.454645
     59          1           0        0.809379    5.205082   -3.046367
     60          8           0        3.733359    1.203080    2.731456
     61          1           0        3.128814    0.419671    2.439175
     62          1           0        3.505611    1.571913    3.606806
 ---------------------------------------------------------------------

 SCF Done:  E(RB3LYP) =  -1525.98907613     A.U. after    3 cycles

 Alpha  occ. eigenvalues --  -19.46399 -19.34577 -19.31116 -19.25577 -19.15715
 Alpha  occ. eigenvalues --  -19.08233 -19.08093 -14.61028 -14.58236 -14.52815
 Alpha  occ. eigenvalues --  -14.49472 -10.51022 -10.45837 -10.42881 -10.41478
 Alpha  occ. eigenvalues --  -10.38925 -10.38120 -10.37186 -10.33953 -10.32764
 Alpha  occ. eigenvalues --  -10.32107 -10.29874 -10.29190 -10.28646 -10.26682
 Alpha  occ. eigenvalues --  -10.26120 -10.26015 -10.25459 -10.24168 -10.23862
 Alpha  occ. eigenvalues --  -10.23291  -1.35378  -1.24506  -1.22792  -1.18723
 Alpha  occ. eigenvalues --   -1.15498  -1.14043  -1.10097  -1.06550  -1.06503
 Alpha  occ. eigenvalues --   -1.01992  -0.97014  -0.94014  -0.93054  -0.92739
 Alpha  occ. eigenvalues --   -0.91818  -0.88380  -0.88192  -0.83403  -0.83089
 Alpha  occ. eigenvalues --   -0.82396  -0.81522  -0.80700  -0.77525  -0.75956
 Alpha  occ. eigenvalues --   -0.75148  -0.74563  -0.73796  -0.73788  -0.72473
 Alpha  occ. eigenvalues --   -0.71802  -0.71170  -0.70316  -0.69496  -0.68567
 Alpha  occ. eigenvalues --   -0.67941  -0.66890  -0.65546  -0.64510  -0.63744
 Alpha  occ. eigenvalues --   -0.63635  -0.62930  -0.61303  -0.60262  -0.59813
 Alpha  occ. eigenvalues --   -0.58617  -0.57973  -0.57306  -0.57089  -0.56280
 Alpha  occ. eigenvalues --   -0.55694  -0.55209  -0.54017  -0.53625  -0.53559
 Alpha  occ. eigenvalues --   -0.52644  -0.52178  -0.51339  -0.51129  -0.50741
 Alpha  occ. eigenvalues --   -0.49361  -0.48864  -0.48824  -0.48398  -0.48112
 Alpha  occ. eigenvalues --   -0.47630  -0.46913  -0.46503  -0.45443  -0.45273
 Alpha  occ. eigenvalues --   -0.44816  -0.43717  -0.43279  -0.42856  -0.41710
 Alpha  occ. eigenvalues --   -0.41508  -0.39895  -0.38582  -0.38194  -0.37851
 Alpha  occ. eigenvalues --   -0.36643  -0.32561  -0.29784  -0.25456  -0.23607
 Alpha  occ. eigenvalues --   -0.22963  -0.21571
 Alpha virt. eigenvalues --   -0.20536  -0.14948  -0.13096  -0.11532  -0.10568
 Alpha virt. eigenvalues --   -0.10300  -0.07369  -0.06117  -0.05330  -0.05043
 Alpha virt. eigenvalues --   -0.04793  -0.04594  -0.04187  -0.03326  -0.02893

 Mulliken charges:
               1
     1  N   -0.700990
     2  H    0.411590
     3  H    0.427831
     4  H    0.429995
     5  C   -0.159722
     6  H    0.188820
     7  C    0.663768
     8  C   -0.299348
     9  H    0.190984
    10  H    0.181900
    11  O   -0.513047
    12  C   -0.359474
    13  H    0.105120
    14  H    0.150093
    15  C    0.561996
    16  O   -0.552911
    17  O   -0.554210
    18  N   -0.584127
    19  H    0.341901
    20  C   -0.091100
    21  H    0.191077
    22  C    0.653611
    23  C   -0.356695
    24  H    0.193771
    25  H    0.201013
    26  O   -0.584723
    27  C    0.089793
    28  C   -0.192014
    29  H    0.123647
    30  C   -0.194117
    31  H    0.113803
    32  C   -0.250084
    33  H    0.103142
    34  C   -0.224814
    35  H    0.116862
    36  O   -0.672809
    37  C    0.429027
    38  N   -0.601460
    39  H    0.402635
    40  C   -0.082179
    41  H    0.212450
    42  C    0.571844
    43  C   -0.309127
    44  H    0.181439
    45  H    0.204828
    46  O   -0.362321
    47  C   -0.309116
    48  H    0.169554
    49  H    0.138799
    50  C   -0.291887
    51  H    0.173969
    52  H    0.225838
    53  C   -0.205479
    54  H    0.194141
    55  H    0.228696
    56  N   -0.737628
    57  H    0.411288
    58  H    0.397858
    59  H    0.431779
    60  O   -0.601376
    61  H    0.491758
    62  H    0.484139
 Sum of Mulliken charges =   1.00000

 Dipole moment (field-independent basis, Debye):
    X=             26.1887    Y=             16.3532    Z=              9.6120  Tot=             32.3368
 Quadrupole moment (field-independent basis, Debye-Ang):
   XX=           -209.2575   YY=            -64.1167   ZZ=           -158.3976
   XY=            -32.8104   XZ=             39.3285   YZ=            -30.0849

 Normal termination of Gaussian 16 at Tue May 24 03:26:35 2022.
