 Gaussian 16, Revision C.01,
 Gaussian 16:  ES64L-G16RevC.01  3-Jul-2019

 -------------------------------------------------------------------
 # B3LYP/6-31G* guess=read geom=check nosymm integral(ultrafinegrid)
 -------------------------------------------------------------------

 ------------------------------------------------------
 Candidate Structure: Conf:367 Charge calc in gas phase
 ------------------------------------------------------
 Structure from the checkpoint file:  "conf-367.chk"
 Charge =  1 Multiplicity = 1

                          Input orientation:
 ---------------------------------------------------------------------
 Center     Atomic      Atomic             Coordinates (Angstroms)
 Number     Number       Type             X           Y           Z
 ---------------------------------------------------------------------
      1          7           0        0.488051   -4.373400    3.100723
      2          1           0        1.487171   -4.285570    3.288960
      3          1           0        0.028238   -4.837484    3.880665
      4          1           0        0.403828   -4.965995    2.273986
      5          6           0       -0.108791   -3.052726    2.827083
      6          1           0        0.216716   -2.347086    3.600222
      7          6           0        0.431665   -2.550475    1.483000
      8          6           0       -1.638061   -3.105719    2.864571
      9          1           0       -2.041343   -2.134535    2.567448
     10          1           0       -1.954027   -3.279949    3.898490
     11          8           0        1.103662   -3.272973    0.764801
     12          6           0       -2.273315   -4.181186    1.990578
     13          1           0       -1.983989   -5.178433    2.333260
     14          1           0       -2.005891   -4.060439    0.940140
     15          6           0       -3.794085   -3.992357    2.178138
     16          8           0       -4.341932   -3.216936    1.373399
     17          8           0       -4.297999   -4.610172    3.133104
     18          7           0        0.065784   -1.277223    1.172088
     19          1           0       -0.362919   -0.744075    1.907766
     20          6           0        0.587455   -0.493482    0.054622
     21          1           0       -0.114076    0.335135   -0.090825
     22          6           0        1.946275    0.102492    0.411345
     23          6           0        0.674356   -1.275267   -1.264289
     24          1           0        1.419783   -2.056049   -1.185915
     25          1           0       -0.291252   -1.762026   -1.401923
     26          8           0        2.873274   -0.607180    0.808041
     27          6           0        0.983855   -0.386393   -2.427402
     28          6           0        2.221795   -0.452215   -3.079335
     29          1           0        2.978023   -1.147822   -2.725776
     30          6           0        0.049126    0.552492   -2.872235
     31          1           0       -0.892889    0.639135   -2.338760
     32          6           0        2.503907    0.325850   -4.179965
     33          1           0        3.455155    0.263331   -4.690802
     34          6           0        0.279448    1.348901   -3.969390
     35          1           0       -0.455563    2.064747   -4.313210
     36          8           0        1.761673    1.962165   -5.697891
     37          6           0        1.534250    1.267838   -4.692865
     38          7           0        2.093589    1.429173    0.216008
     39          1           0        1.307381    1.951051   -0.132966
     40          6           0        3.411224    2.069637    0.081562
     41          1           0        4.040131    1.417697   -0.533416
     42          6           0        4.033800    2.164566    1.457658
     43          6           0        3.264813    3.433142   -0.580140
     44          1           0        2.668958    4.080368    0.062182
     45          1           0        4.255293    3.885460   -0.648158
     46          8           0        4.041805    3.080901    2.212255
     47          6           0        2.658361    3.377725   -1.969961
     48          1           0        1.615970    3.043732   -1.931210
     49          1           0        3.189477    2.631620   -2.576025
     50          6           0        2.709930    4.734885   -2.646330
     51          1           0        2.293197    5.490787   -1.975025
     52          1           0        3.750598    5.013151   -2.834551
     53          6           0        1.937135    4.785867   -3.943939
     54          1           0        2.296834    4.019655   -4.627649
     55          1           0        0.883930    4.576019   -3.733271
     56          7           0        2.032914    6.112216   -4.601632
     57          1           0        1.527517    6.134859   -5.487205
     58          1           0        3.005057    6.350482   -4.793249
     59          1           0        1.649239    6.844460   -4.005233
     60          8           0        4.634922    0.912121    1.860656
     61          1           0        4.036364    0.151270    1.504770
     62          1           0        4.698437    0.939241    2.835571
 ---------------------------------------------------------------------

 SCF Done:  E(RB3LYP) =  -1525.93675834     A.U. after    1 cycles

 Alpha  occ. eigenvalues --  -19.45282 -19.33107 -19.30031 -19.24652 -19.11042
 Alpha  occ. eigenvalues --  -19.06928 -19.06772 -14.64249 -14.60351 -14.52873
 Alpha  occ. eigenvalues --  -14.49014 -10.49551 -10.45093 -10.42163 -10.41108
 Alpha  occ. eigenvalues --  -10.39097 -10.38257 -10.36210 -10.34805 -10.34299
 Alpha  occ. eigenvalues --  -10.32640 -10.28451 -10.26942 -10.26484 -10.25551
 Alpha  occ. eigenvalues --  -10.23642 -10.23464 -10.23135 -10.22399 -10.21449
 Alpha  occ. eigenvalues --  -10.20995  -1.34188  -1.23223  -1.21600  -1.19125
 Alpha  occ. eigenvalues --   -1.17874  -1.14709  -1.09855  -1.05831  -1.01661
 Alpha  occ. eigenvalues --   -1.00788  -0.97406  -0.94706  -0.92285  -0.91836
 Alpha  occ. eigenvalues --   -0.90043  -0.88933  -0.86709  -0.83443  -0.81924
 Alpha  occ. eigenvalues --   -0.81448  -0.79830  -0.78794  -0.78514  -0.77409
 Alpha  occ. eigenvalues --   -0.76458  -0.75642  -0.74454  -0.73223  -0.73146
 Alpha  occ. eigenvalues --   -0.72652  -0.70282  -0.69519  -0.69014  -0.67582
 Alpha  occ. eigenvalues --   -0.66539  -0.65987  -0.65678  -0.64887  -0.63635
 Alpha  occ. eigenvalues --   -0.62639  -0.61746  -0.61266  -0.60541  -0.59413
 Alpha  occ. eigenvalues --   -0.58328  -0.57945  -0.56740  -0.56292  -0.55642
 Alpha  occ. eigenvalues --   -0.54607  -0.53749  -0.53697  -0.52380  -0.51955
 Alpha  occ. eigenvalues --   -0.51466  -0.51045  -0.50950  -0.50190  -0.49668
 Alpha  occ. eigenvalues --   -0.49286  -0.48980  -0.47901  -0.47630  -0.47173
 Alpha  occ. eigenvalues --   -0.46316  -0.45766  -0.44597  -0.44353  -0.43201
 Alpha  occ. eigenvalues --   -0.42854  -0.42684  -0.41805  -0.40570  -0.39616
 Alpha  occ. eigenvalues --   -0.38972  -0.38496  -0.37375  -0.36724  -0.35543
 Alpha  occ. eigenvalues --   -0.35122  -0.29907  -0.24848  -0.22425  -0.21849
 Alpha  occ. eigenvalues --   -0.21804  -0.20468
 Alpha virt. eigenvalues --   -0.19405  -0.14593  -0.14282  -0.12268  -0.10406
 Alpha virt. eigenvalues --   -0.09998  -0.08159  -0.07655  -0.06785  -0.05379
 Alpha virt. eigenvalues --   -0.05128  -0.04349  -0.03981  -0.03566  -0.03309

 Mulliken charges:
               1
     1  N   -0.699176
     2  H    0.407911
     3  H    0.426342
     4  H    0.429953
     5  C   -0.156474
     6  H    0.181380
     7  C    0.660804
     8  C   -0.298348
     9  H    0.188039
    10  H    0.180173
    11  O   -0.505203
    12  C   -0.357067
    13  H    0.102407
    14  H    0.150135
    15  C    0.556792
    16  O   -0.563015
    17  O   -0.564499
    18  N   -0.603458
    19  H    0.340097
    20  C   -0.058080
    21  H    0.167177
    22  C    0.668732
    23  C   -0.372308
    24  H    0.204331
    25  H    0.192878
    26  O   -0.573916
    27  C    0.124465
    28  C   -0.206933
    29  H    0.102527
    30  C   -0.209229
    31  H    0.103526
    32  C   -0.226570
    33  H    0.105973
    34  C   -0.236309
    35  H    0.087357
    36  O   -0.658363
    37  C    0.421802
    38  N   -0.587915
    39  H    0.367221
    40  C   -0.058714
    41  H    0.220929
    42  C    0.552503
    43  C   -0.315332
    44  H    0.179506
    45  H    0.182123
    46  O   -0.368789
    47  C   -0.287661
    48  H    0.169927
    49  H    0.206728
    50  C   -0.292219
    51  H    0.149428
    52  H    0.161367
    53  C   -0.238479
    54  H    0.281351
    55  H    0.226144
    56  N   -0.716109
    57  H    0.444297
    58  H    0.424251
    59  H    0.418658
    60  O   -0.603360
    61  H    0.489711
    62  H    0.480581
 Sum of Mulliken charges =   1.00000

 Dipole moment (field-independent basis, Debye):
    X=             28.7393    Y=             24.1723    Z=              2.8584  Tot=             37.6619
 Quadrupole moment (field-independent basis, Debye-Ang):
   XX=           -191.3071   YY=            -20.6054   ZZ=           -134.7403
   XY=             -6.5979   XZ=             36.1352   YZ=           -111.9302

 Normal termination of Gaussian 16 at Tue May 24 03:24:44 2022.
