 Gaussian 16, Revision C.01,
 Gaussian 16:  ES64L-G16RevC.01  3-Jul-2019

 -------------------------------------------------------------------
 # B3LYP/6-31G* guess=read geom=check nosymm integral(ultrafinegrid)
 -------------------------------------------------------------------

 ------------------------------------------------------
 Candidate Structure: Conf:384 Charge calc in gas phase
 ------------------------------------------------------
 Structure from the checkpoint file:  "conf-384.chk"
 Charge =  1 Multiplicity = 1

                          Input orientation:
 ---------------------------------------------------------------------
 Center     Atomic      Atomic             Coordinates (Angstroms)
 Number     Number       Type             X           Y           Z
 ---------------------------------------------------------------------
      1          7           0       -0.114223   -4.394905    2.714665
      2          1           0        0.900704   -4.319822    2.707170
      3          1           0       -0.400917   -4.876901    3.560940
      4          1           0       -0.373486   -4.962085    1.911511
      5          6           0       -0.723860   -3.059655    2.607111
      6          1           0       -0.382510   -2.449792    3.455551
      7          6           0       -0.231259   -2.398406    1.317368
      8          6           0       -2.243756   -3.111355    2.645013
      9          1           0       -2.602460   -3.743105    1.832951
     10          1           0       -2.637005   -2.110918    2.468458
     11          8           0        0.461298   -2.995251    0.514103
     12          6           0       -2.818694   -3.610123    3.964783
     13          1           0       -2.471612   -2.995713    4.793698
     14          1           0       -2.562168   -4.656107    4.146437
     15          6           0       -4.336942   -3.471778    3.805587
     16          8           0       -4.832372   -2.391840    4.167102
     17          8           0       -4.918293   -4.443981    3.297804
     18          7           0       -0.652282   -1.116395    1.133856
     19          1           0       -1.037997   -0.659351    1.938334
     20          6           0       -0.021289   -0.240733    0.159924
     21          1           0       -0.644918    0.659674    0.113083
     22          6           0        1.346306    0.227387    0.699959
     23          6           0       -0.054951   -0.840779   -1.259122
     24          1           0        0.680935   -1.629964   -1.360616
     25          1           0       -1.042772   -1.282851   -1.354889
     26          8           0        1.832092   -0.247479    1.724208
     27          6           0        0.147855    0.194803   -2.321555
     28          6           0       -0.775251    1.230557   -2.434744
     29          1           0       -1.662385    1.204810   -1.809493
     30          6           0        1.283507    0.212836   -3.129467
     31          1           0        2.020052   -0.578204   -3.029952
     32          6           0       -0.566403    2.297958   -3.268434
     33          1           0       -1.273442    3.110960   -3.337988
     34          6           0        1.527692    1.251656   -3.984210
     35          1           0        2.428890    1.284784   -4.581728
     36          8           0        0.874788    3.358924   -4.774234
     37          6           0        0.626033    2.367780   -4.064088
     38          7           0        1.942668    1.252425    0.064200
     39          1           0        1.527697    1.580085   -0.798171
     40          6           0        3.287785    1.699832    0.374615
     41          1           0        3.904861    0.828192    0.621597
     42          6           0        3.311225    2.509558    1.653390
     43          6           0        3.916502    2.438667   -0.810681
     44          1           0        4.900904    2.798872   -0.512069
     45          1           0        4.082388    1.685226   -1.593368
     46          8           0        4.050551    3.382677    1.922095
     47          6           0        3.053339    3.553462   -1.376024
     48          1           0        2.816979    4.285497   -0.605271
     49          1           0        2.110141    3.130245   -1.720166
     50          6           0        3.711607    4.255812   -2.548765
     51          1           0        4.544818    4.857477   -2.179490
     52          1           0        4.144246    3.520844   -3.236480
     53          6           0        2.742779    5.101544   -3.352417
     54          1           0        3.262536    5.553676   -4.200420
     55          1           0        1.960312    4.444353   -3.774344
     56          7           0        2.122284    6.170034   -2.533544
     57          1           0        1.611900    6.832152   -3.112482
     58          1           0        2.813300    6.679688   -1.991588
     59          1           0        1.457153    5.767305   -1.880501
     60          8           0        2.366802    2.071798    2.635304
     61          1           0        2.161869    1.062127    2.505973
     62          1           0        2.743560    2.282643    3.509616
 ---------------------------------------------------------------------

 SCF Done:  E(RB3LYP) =  -1525.93721553     A.U. after    3 cycles

 Alpha  occ. eigenvalues --  -19.47445 -19.34878 -19.30630 -19.25393 -19.11892
 Alpha  occ. eigenvalues --  -19.08174 -19.07934 -14.63092 -14.60973 -14.52926
 Alpha  occ. eigenvalues --  -14.49024 -10.51470 -10.45678 -10.42584 -10.42109
 Alpha  occ. eigenvalues --  -10.38627 -10.36761 -10.36590 -10.34916 -10.33882
 Alpha  occ. eigenvalues --  -10.33627 -10.28974 -10.27773 -10.27322 -10.26523
 Alpha  occ. eigenvalues --  -10.24370 -10.24325 -10.23600 -10.23426 -10.22062
 Alpha  occ. eigenvalues --  -10.21890  -1.36578  -1.25765  -1.22891  -1.18759
 Alpha  occ. eigenvalues --   -1.18150  -1.15626  -1.10609  -1.06299  -1.03046
 Alpha  occ. eigenvalues --   -1.02200  -0.97630  -0.94598  -0.93026  -0.92896
 Alpha  occ. eigenvalues --   -0.90974  -0.89201  -0.87461  -0.84629  -0.83934
 Alpha  occ. eigenvalues --   -0.82262  -0.80258  -0.80037  -0.78990  -0.76855
 Alpha  occ. eigenvalues --   -0.76423  -0.75612  -0.75007  -0.74223  -0.74068
 Alpha  occ. eigenvalues --   -0.73314  -0.71776  -0.70310  -0.69803  -0.69037
 Alpha  occ. eigenvalues --   -0.66974  -0.66586  -0.65323  -0.64667  -0.64163
 Alpha  occ. eigenvalues --   -0.63717  -0.62621  -0.61978  -0.61453  -0.60037
 Alpha  occ. eigenvalues --   -0.58946  -0.58048  -0.57758  -0.57166  -0.55830
 Alpha  occ. eigenvalues --   -0.55508  -0.54829  -0.54342  -0.53613  -0.52917
 Alpha  occ. eigenvalues --   -0.52159  -0.51898  -0.50820  -0.50472  -0.50325
 Alpha  occ. eigenvalues --   -0.49674  -0.49254  -0.49021  -0.48713  -0.48216
 Alpha  occ. eigenvalues --   -0.47435  -0.46660  -0.45875  -0.44347  -0.44122
 Alpha  occ. eigenvalues --   -0.43681  -0.43523  -0.42778  -0.41826  -0.40569
 Alpha  occ. eigenvalues --   -0.40101  -0.39428  -0.38335  -0.37859  -0.36502
 Alpha  occ. eigenvalues --   -0.36168  -0.31068  -0.26164  -0.23549  -0.23136
 Alpha  occ. eigenvalues --   -0.23062  -0.21402
 Alpha virt. eigenvalues --   -0.20372  -0.15197  -0.13679  -0.13621  -0.11380
 Alpha virt. eigenvalues --   -0.10255  -0.07484  -0.06916  -0.05870  -0.05598
 Alpha virt. eigenvalues --   -0.05087  -0.04377  -0.04105  -0.04025  -0.03735

 Mulliken charges:
               1
     1  N   -0.697188
     2  H    0.416009
     3  H    0.421013
     4  H    0.428481
     5  C   -0.162177
     6  H    0.197576
     7  C    0.648481
     8  C   -0.293986
     9  H    0.187387
    10  H    0.195480
    11  O   -0.510188
    12  C   -0.349096
    13  H    0.131439
    14  H    0.112516
    15  C    0.555493
    16  O   -0.554079
    17  O   -0.550052
    18  N   -0.582209
    19  H    0.341420
    20  C   -0.097823
    21  H    0.190348
    22  C    0.640677
    23  C   -0.349300
    24  H    0.188325
    25  H    0.185551
    26  O   -0.585752
    27  C    0.099667
    28  C   -0.201469
    29  H    0.107332
    30  C   -0.202341
    31  H    0.100761
    32  C   -0.231973
    33  H    0.101921
    34  C   -0.231651
    35  H    0.099854
    36  O   -0.663371
    37  C    0.416044
    38  N   -0.619197
    39  H    0.408432
    40  C   -0.085329
    41  H    0.234283
    42  C    0.580395
    43  C   -0.301176
    44  H    0.194087
    45  H    0.206186
    46  O   -0.358969
    47  C   -0.319382
    48  H    0.120900
    49  H    0.188196
    50  C   -0.291017
    51  H    0.155030
    52  H    0.214061
    53  C   -0.285580
    54  H    0.215521
    55  H    0.315074
    56  N   -0.712124
    57  H    0.438124
    58  H    0.408752
    59  H    0.422085
    60  O   -0.603059
    61  H    0.483839
    62  H    0.487750
 Sum of Mulliken charges =   1.00000

 Dipole moment (field-independent basis, Debye):
    X=             28.2099    Y=             18.5532    Z=              5.3749  Tot=             34.1894
 Quadrupole moment (field-independent basis, Debye-Ang):
   XX=           -215.6903   YY=            -24.6704   ZZ=           -193.2922
   XY=              7.0551   XZ=             51.1512   YZ=            -26.7052

 Normal termination of Gaussian 16 at Tue May 24 03:26:47 2022.
