 Gaussian 16, Revision C.01,
 Gaussian 16:  ES64L-G16RevC.01  3-Jul-2019

 -------------------------------------------------------------------
 # B3LYP/6-31G* guess=read geom=check nosymm integral(ultrafinegrid)
 -------------------------------------------------------------------

 -----------------------------------------------------
 Candidate Structure: Conf:51 Charge calc in gas phase
 -----------------------------------------------------
 Structure from the checkpoint file:  "conf-51.chk"
 Charge =  1 Multiplicity = 1

                          Input orientation:
 ---------------------------------------------------------------------
 Center     Atomic      Atomic             Coordinates (Angstroms)
 Number     Number       Type             X           Y           Z
 ---------------------------------------------------------------------
      1          7           0       -0.726121   -3.900941    2.828959
      2          1           0        0.287959   -3.975681    2.753142
      3          1           0       -1.014513   -4.252307    3.740234
      4          1           0       -1.121250   -4.500949    2.105475
      5          6           0       -1.151388   -2.505776    2.616264
      6          1           0       -0.679430   -1.869486    3.377409
      7          6           0       -0.651916   -2.051118    1.241562
      8          6           0       -2.661248   -2.338774    2.739458
      9          1           0       -3.156374   -2.990103    2.017251
     10          1           0       -2.929642   -1.314004    2.482422
     11          8           0       -0.105594   -2.831218    0.478197
     12          6           0       -3.208277   -2.628453    4.133400
     13          1           0       -2.730505   -1.989444    4.876287
     14          1           0       -3.074811   -3.679269    4.406115
     15          6           0       -4.709906   -2.308337    4.042116
     16          8           0       -5.432838   -3.242496    3.649671
     17          8           0       -5.039602   -1.145427    4.338787
     18          7           0       -0.903414   -0.743933    0.949633
     19          1           0       -1.180145   -0.167575    1.724754
     20          6           0       -0.266316   -0.030199   -0.148733
     21          1           0       -0.807511    0.915729   -0.254003
     22          6           0        1.178960    0.316638    0.210347
     23          6           0       -0.377649   -0.761340   -1.501752
     24          1           0        0.208329   -1.673002   -1.479456
     25          1           0       -1.423790   -1.039301   -1.616706
     26          8           0        1.812774   -0.325391    1.040397
     27          6           0        0.063994    0.116369   -2.627801
     28          6           0       -0.713778    1.216288   -3.014364
     29          1           0       -1.687658    1.347383   -2.544321
     30          6           0        1.312078   -0.077661   -3.229186
     31          1           0        1.917480   -0.924436   -2.921305
     32          6           0       -0.257198    2.142925   -3.912840
     33          1           0       -0.837484    3.013096   -4.187287
     34          6           0        1.799750    0.804589   -4.158971
     35          1           0        2.783253    0.692272   -4.601696
     36          8           0        1.511152    2.836287   -5.300577
     37          6           0        1.055008    1.996582   -4.516278
     38          7           0        1.715273    1.382169   -0.424870
     39          1           0        1.200012    1.758507   -1.210537
     40          6           0        3.176335    1.591036   -0.459652
     41          1           0        3.645692    0.620336   -0.658359
     42          6           0        3.642707    2.058419    0.894854
     43          6           0        3.508032    2.570718   -1.576543
     44          1           0        2.900532    2.266416   -2.432840
     45          1           0        3.175368    3.569672   -1.289854
     46          8           0        3.851237    3.168041    1.270231
     47          6           0        4.963802    2.588298   -1.999696
     48          1           0        5.289753    1.562653   -2.190704
     49          1           0        5.594012    2.977777   -1.197220
     50          6           0        5.172502    3.413160   -3.258866
     51          1           0        4.545636    3.021494   -4.067677
     52          1           0        4.854980    4.442874   -3.076196
     53          6           0        6.613859    3.419702   -3.716743
     54          1           0        7.244895    3.793331   -2.906788
     55          1           0        6.928220    2.393737   -3.922536
     56          7           0        6.819982    4.253088   -4.927748
     57          1           0        7.794092    4.261379   -5.232002
     58          1           0        6.543847    5.219234   -4.755770
     59          1           0        6.258160    3.911202   -5.706555
     60          8           0        3.803861    0.956488    1.806836
     61          1           0        3.029490    0.281541    1.609213
     62          1           0        3.791534    1.344510    2.702789
 ---------------------------------------------------------------------

 SCF Done:  E(RB3LYP) =  -1525.93083984     A.U. after    3 cycles

 Alpha  occ. eigenvalues --  -19.44101 -19.32073 -19.29891 -19.24248 -19.10769
 Alpha  occ. eigenvalues --  -19.06073 -19.05775 -14.66637 -14.59934 -14.50906
 Alpha  occ. eigenvalues --  -14.48098 -10.48508 -10.44220 -10.43046 -10.41565
 Alpha  occ. eigenvalues --  -10.39859 -10.37497 -10.35594 -10.35425 -10.34097
 Alpha  occ. eigenvalues --  -10.32639 -10.27686 -10.26960 -10.26436 -10.24722
 Alpha  occ. eigenvalues --  -10.23883 -10.23496 -10.23126 -10.21985 -10.21527
 Alpha  occ. eigenvalues --  -10.21153  -1.33196  -1.22257  -1.21560  -1.21531
 Alpha  occ. eigenvalues --   -1.17465  -1.14315  -1.08293  -1.05160  -1.01620
 Alpha  occ. eigenvalues --   -0.99961  -0.98301  -0.94739  -0.91949  -0.90927
 Alpha  occ. eigenvalues --   -0.90073  -0.89156  -0.86349  -0.83916  -0.81324
 Alpha  occ. eigenvalues --   -0.80941  -0.80543  -0.79633  -0.79152  -0.78728
 Alpha  occ. eigenvalues --   -0.76833  -0.74536  -0.73854  -0.73042  -0.72806
 Alpha  occ. eigenvalues --   -0.72149  -0.70097  -0.68984  -0.68882  -0.68330
 Alpha  occ. eigenvalues --   -0.66734  -0.65851  -0.65191  -0.64651  -0.64246
 Alpha  occ. eigenvalues --   -0.62848  -0.61502  -0.60892  -0.60772  -0.59128
 Alpha  occ. eigenvalues --   -0.58547  -0.57986  -0.56972  -0.56336  -0.54603
 Alpha  occ. eigenvalues --   -0.54233  -0.53614  -0.53477  -0.52418  -0.51893
 Alpha  occ. eigenvalues --   -0.51709  -0.51193  -0.50921  -0.49788  -0.49540
 Alpha  occ. eigenvalues --   -0.49300  -0.48649  -0.48457  -0.46803  -0.46699
 Alpha  occ. eigenvalues --   -0.46631  -0.45785  -0.44474  -0.43581  -0.43078
 Alpha  occ. eigenvalues --   -0.42260  -0.42122  -0.41357  -0.39909  -0.39576
 Alpha  occ. eigenvalues --   -0.38955  -0.38372  -0.37093  -0.35935  -0.35043
 Alpha  occ. eigenvalues --   -0.34619  -0.30290  -0.24582  -0.21614  -0.21556
 Alpha  occ. eigenvalues --   -0.21088  -0.19615
 Alpha virt. eigenvalues --   -0.18574  -0.16151  -0.13459  -0.11265  -0.10125
 Alpha virt. eigenvalues --   -0.09952  -0.09478  -0.09328  -0.07551  -0.05024
 Alpha virt. eigenvalues --   -0.04471  -0.04268  -0.03368  -0.03222  -0.03021

 Mulliken charges:
               1
     1  N   -0.696045
     2  H    0.411261
     3  H    0.416845
     4  H    0.427089
     5  C   -0.160627
     6  H    0.194719
     7  C    0.649919
     8  C   -0.291589
     9  H    0.184585
    10  H    0.194486
    11  O   -0.516355
    12  C   -0.345215
    13  H    0.127650
    14  H    0.105705
    15  C    0.550916
    16  O   -0.569779
    17  O   -0.567453
    18  N   -0.591345
    19  H    0.346712
    20  C   -0.086639
    21  H    0.195840
    22  C    0.660304
    23  C   -0.360225
    24  H    0.194273
    25  H    0.184143
    26  O   -0.594264
    27  C    0.090644
    28  C   -0.198151
    29  H    0.114521
    30  C   -0.189779
    31  H    0.090213
    32  C   -0.221782
    33  H    0.123815
    34  C   -0.237867
    35  H    0.066835
    36  O   -0.636780
    37  C    0.416386
    38  N   -0.595244
    39  H    0.396608
    40  C   -0.053658
    41  H    0.193010
    42  C    0.553102
    43  C   -0.334599
    44  H    0.226269
    45  H    0.189648
    46  O   -0.381962
    47  C   -0.285154
    48  H    0.161019
    49  H    0.163094
    50  C   -0.303133
    51  H    0.219504
    52  H    0.175872
    53  C   -0.226113
    54  H    0.224628
    55  H    0.230979
    56  N   -0.714916
    57  H    0.436043
    58  H    0.433905
    59  H    0.442924
    60  O   -0.607956
    61  H    0.494628
    62  H    0.478534
 Sum of Mulliken charges =   1.00000

 Dipole moment (field-independent basis, Debye):
    X=             47.7503    Y=             11.6561    Z=             -8.7726  Tot=             49.9291
 Quadrupole moment (field-independent basis, Debye-Ang):
   XX=            -47.2869   YY=            -89.2659   ZZ=           -145.4133
   XY=             92.5983   XZ=            -55.0156   YZ=            -72.3493

 Normal termination of Gaussian 16 at Tue May 24 03:25:00 2022.
