 Gaussian 16, Revision C.01,
 Gaussian 16:  ES64L-G16RevC.01  3-Jul-2019

 -------------------------------------------------------------------
 # B3LYP/6-31G* guess=read geom=check nosymm integral(ultrafinegrid)
 -------------------------------------------------------------------

 ------------------------------------------------------
 Candidate Structure: Conf:962 Charge calc in gas phase
 ------------------------------------------------------
 Structure from the checkpoint file:  "conf-962.chk"
 Charge =  1 Multiplicity = 1

                          Input orientation:
 ---------------------------------------------------------------------
 Center     Atomic      Atomic             Coordinates (Angstroms)
 Number     Number       Type             X           Y           Z
 ---------------------------------------------------------------------
      1          7           0       -1.131172   -3.499701    3.945138
      2          1           0       -0.271516   -3.236683    4.425605
      3          1           0       -2.643331   -3.197969    5.101794
      4          1           0       -0.901971   -4.347860    3.426295
      5          6           0       -1.528250   -2.444281    3.013741
      6          1           0       -1.764856   -1.559267    3.618852
      7          6           0       -0.402188   -2.074516    2.031477
      8          6           0       -2.802130   -2.860255    2.235567
      9          1           0       -2.531369   -3.603005    1.473732
     10          1           0       -3.190348   -1.986524    1.699114
     11          8           0        0.568013   -2.791895    1.846182
     12          6           0       -3.923776   -3.447137    3.121423
     13          1           0       -3.632697   -4.440318    3.478906
     14          1           0       -4.827212   -3.557351    2.517420
     15          6           0       -4.270066   -2.549935    4.311920
     16          8           0       -5.220624   -1.805674    4.328265
     17          8           0       -3.405125   -2.615918    5.348201
     18          7           0       -0.585573   -0.871641    1.375325
     19          1           0       -1.400607   -0.323483    1.616942
     20          6           0        0.275805   -0.338187    0.340256
     21          1           0       -0.278686    0.473262   -0.142876
     22          6           0        1.536366    0.300972    0.916727
     23          6           0        0.635981   -1.373381   -0.789303
     24          1           0        1.131347   -2.225502   -0.323450
     25          1           0       -0.334097   -1.721139   -1.162518
     26          8           0        1.980043   -0.178633    2.034174
     27          6           0        1.478441   -0.781912   -1.891886
     28          6           0        0.949854    0.154182   -2.799867
     29          1           0       -0.110251    0.402786   -2.766138
     30          6           0        2.834492   -1.116501   -2.011280
     31          1           0        3.260970   -1.866121   -1.347492
     32          6           0        1.749557    0.757416   -3.766239
     33          1           0        1.337702    1.473147   -4.470743
     34          6           0        3.646396   -0.529418   -2.980022
     35          1           0        4.686014   -0.828588   -3.077836
     36          8           0        3.850476    1.054438   -4.796508
     37          6           0        3.116552    0.432635   -3.860018
     38          7           0        2.126466    1.279797    0.257987
     39          1           0        1.708029    1.499630   -0.645977
     40          6           0        3.487266    1.861567    0.458294
     41          1           0        4.197732    1.026444    0.488555
     42          6           0        3.557697    2.611993    1.803672
     43          6           0        3.819615    2.820753   -0.693934
     44          1           0        3.497809    2.360841   -1.635781
     45          1           0        3.235689    3.734629   -0.548541
     46          8           0        3.533380    3.798330    1.959314
     47          6           0        5.333636    3.139514   -0.759700
     48          1           0        5.769144    3.084212    0.245369
     49          1           0        5.460268    4.183698   -1.066172
     50          6           0        6.109651    2.221315   -1.726163
     51          1           0        7.154205    2.136888   -1.401499
     52          1           0        5.691118    1.205777   -1.697976
     53          6           0        6.072592    2.742043   -3.169371
     54          1           0        5.062957    3.085767   -3.425060
     55          1           0        6.737097    3.614808   -3.248122
     56          7           0        6.417019    1.680709   -4.139700
     57          1           0        6.658884    2.100890   -5.037634
     58          1           0        4.830818    0.999248   -4.588369
     59          1           0        7.249179    1.174346   -3.837002
     60          8           0        3.666395    1.720671    2.841832
     61          1           0        2.730245    0.337914    2.430933
     62          1           0        3.688485    2.215457    3.686802
 ---------------------------------------------------------------------

 SCF Done:  E(RB3LYP) =  -1526.17820250     A.U. after    1 cycles

 Alpha  occ. eigenvalues --  -19.38299 -19.37519 -19.31081 -19.25113 -19.23895
 Alpha  occ. eigenvalues --  -19.23504 -19.18395 -14.57345 -14.49616 -14.44534
 Alpha  occ. eigenvalues --  -14.43504 -10.50477 -10.49011 -10.41712 -10.40793
 Alpha  occ. eigenvalues --  -10.40318 -10.37080 -10.35264 -10.33654 -10.33406
 Alpha  occ. eigenvalues --  -10.32298 -10.32193 -10.31425 -10.30534 -10.30411
 Alpha  occ. eigenvalues --  -10.30284 -10.30278 -10.29862 -10.29371 -10.29177
 Alpha  occ. eigenvalues --  -10.27504  -1.29143  -1.27250  -1.19010  -1.15938
 Alpha  occ. eigenvalues --   -1.14448  -1.14024  -1.13947  -1.06470  -1.06264
 Alpha  occ. eigenvalues --   -1.00422  -1.00365  -0.97333  -0.96224  -0.92219
 Alpha  occ. eigenvalues --   -0.89680  -0.87917  -0.86252  -0.85581  -0.83816
 Alpha  occ. eigenvalues --   -0.82611  -0.80214  -0.79364  -0.77631  -0.75459
 Alpha  occ. eigenvalues --   -0.74725  -0.72666  -0.72380  -0.70621  -0.70241
 Alpha  occ. eigenvalues --   -0.69822  -0.68202  -0.67899  -0.65847  -0.65286
 Alpha  occ. eigenvalues --   -0.65045  -0.64316  -0.63127  -0.62262  -0.61229
 Alpha  occ. eigenvalues --   -0.60459  -0.59594  -0.59545  -0.59060  -0.58631
 Alpha  occ. eigenvalues --   -0.58369  -0.57865  -0.57481  -0.57049  -0.55805
 Alpha  occ. eigenvalues --   -0.54834  -0.54514  -0.54123  -0.53651  -0.53106
 Alpha  occ. eigenvalues --   -0.52821  -0.52300  -0.52199  -0.51801  -0.51361
 Alpha  occ. eigenvalues --   -0.50369  -0.50188  -0.50086  -0.49538  -0.49256
 Alpha  occ. eigenvalues --   -0.48777  -0.48521  -0.47698  -0.46658  -0.46480
 Alpha  occ. eigenvalues --   -0.46004  -0.45618  -0.45021  -0.44957  -0.44067
 Alpha  occ. eigenvalues --   -0.44018  -0.43707  -0.42477  -0.41978  -0.39082
 Alpha  occ. eigenvalues --   -0.37938  -0.36977  -0.36360  -0.36163  -0.35897
 Alpha  occ. eigenvalues --   -0.32030  -0.32000
 Alpha virt. eigenvalues --   -0.19482  -0.16765  -0.11947  -0.10422  -0.10055
 Alpha virt. eigenvalues --   -0.08735  -0.06907  -0.05329  -0.04608  -0.04361
 Alpha virt. eigenvalues --   -0.03048  -0.02344  -0.01748  -0.01499  -0.00821

 Mulliken charges:
               1
     1  N   -0.736145
     2  H    0.331269
     3  H    0.442937
     4  H    0.334304
     5  C   -0.100455
     6  H    0.177373
     7  C    0.616463
     8  C   -0.282491
     9  H    0.164816
    10  H    0.155516
    11  O   -0.504695
    12  C   -0.361944
    13  H    0.171491
    14  H    0.189913
    15  C    0.576289
    16  O   -0.442058
    17  O   -0.589823
    18  N   -0.619983
    19  H    0.354741
    20  C   -0.064627
    21  H    0.190241
    22  C    0.650774
    23  C   -0.368692
    24  H    0.224547
    25  H    0.192269
    26  O   -0.533750
    27  C    0.128693
    28  C   -0.230982
    29  H    0.143166
    30  C   -0.208058
    31  H    0.147241
    32  C   -0.167268
    33  H    0.166261
    34  C   -0.199706
    35  H    0.152467
    36  O   -0.671790
    37  C    0.364347
    38  N   -0.574293
    39  H    0.396290
    40  C   -0.063492
    41  H    0.220433
    42  C    0.616480
    43  C   -0.326834
    44  H    0.183481
    45  H    0.198050
    46  O   -0.380602
    47  C   -0.284172
    48  H    0.153845
    49  H    0.181353
    50  C   -0.290211
    51  H    0.162442
    52  H    0.145565
    53  C   -0.138177
    54  H    0.163948
    55  H    0.161359
    56  N   -0.778736
    57  H    0.342661
    58  H    0.461822
    59  H    0.329034
    60  O   -0.611875
    61  H    0.481962
    62  H    0.457016
 Sum of Mulliken charges =   1.00000

 Dipole moment (field-independent basis, Debye):
    X=             17.9606    Y=              4.2463    Z=             -1.1067  Tot=             18.4889
 Quadrupole moment (field-independent basis, Debye-Ang):
   XX=           -109.9400   YY=           -156.4561   ZZ=           -169.5105
   XY=             33.2797   XZ=              7.2724   YZ=             -9.8454

 Normal termination of Gaussian 16 at Tue May 24 03:25:41 2022.
