 Gaussian 16, Revision C.01,
 Gaussian 16:  ES64L-G16RevC.01  3-Jul-2019

 -------------------------------------------------------------------
 # B3LYP/6-31G* guess=read geom=check nosymm integral(ultrafinegrid)
 -------------------------------------------------------------------

 ------------------------------------------------------
 Candidate Structure: Conf:796 Charge calc in gas phase
 ------------------------------------------------------
 Structure from the checkpoint file:  "conf-796.chk"
 Charge =  1 Multiplicity = 1

                          Input orientation:
 ---------------------------------------------------------------------
 Center     Atomic      Atomic             Coordinates (Angstroms)
 Number     Number       Type             X           Y           Z
 ---------------------------------------------------------------------
      1          7           0       -3.003958   -4.042807    1.697843
      2          1           0       -2.650018   -4.957809    1.410379
      3          1           0       -3.780742   -4.178466    2.348878
      4          1           0       -3.276361   -3.469401    0.802840
      5          6           0       -1.924629   -3.114087    2.209940
      6          1           0       -1.038554   -3.703269    2.452095
      7          6           0       -1.658434   -2.212350    0.959095
      8          6           0       -2.450499   -2.370692    3.453431
      9          1           0       -2.574066   -3.096863    4.266783
     10          1           0       -3.444695   -1.967457    3.217328
     11          8           0       -2.545719   -2.279734    0.059041
     12          6           0       -1.591147   -1.194692    3.965949
     13          1           0       -2.089752   -0.783063    4.846342
     14          1           0       -1.551066   -0.415897    3.198352
     15          6           0       -0.165297   -1.555024    4.405529
     16          8           0        0.747944   -1.677934    3.419386
     17          8           0        0.143121   -1.694758    5.565826
     18          7           0       -0.551838   -1.521454    1.029559
     19          1           0        0.308280   -1.606457    2.523713
     20          6           0       -0.179918   -0.625956   -0.048547
     21          1           0       -0.871574    0.228040   -0.111949
     22          6           0        1.174897   -0.083764    0.390951
     23          6           0       -0.042953   -1.212113   -1.485934
     24          1           0        0.559165   -2.124144   -1.440481
     25          1           0       -1.048794   -1.489593   -1.813033
     26          8           0        2.101532   -0.975678    0.565882
     27          6           0        0.613812   -0.164962   -2.358654
     28          6           0       -0.032257    1.050590   -2.632284
     29          1           0       -1.086088    1.169649   -2.385204
     30          6           0        1.952090   -0.300420   -2.759364
     31          1           0        2.471033   -1.238152   -2.576534
     32          6           0        0.648067    2.114751   -3.218207
     33          1           0        0.133604    3.048058   -3.428973
     34          6           0        2.642920    0.750193   -3.353288
     35          1           0        3.683737    0.647776   -3.643742
     36          8           0        2.743177    3.009732   -4.024737
     37          6           0        2.010932    1.987215   -3.542984
     38          7           0        1.358921    1.193726    0.651574
     39          1           0        0.547517    1.786221    0.506185
     40          6           0        2.574113    1.894305    1.146966
     41          1           0        3.424180    1.507843    0.570998
     42          6           0        2.790953    1.536101    2.633536
     43          6           0        2.446621    3.412326    0.955245
     44          1           0        1.506545    3.746515    1.415723
     45          1           0        3.237279    3.866164    1.562446
     46          8           0        2.714598    2.286322    3.564082
     47          6           0        2.564837    3.904187   -0.496612
     48          1           0        1.787633    3.455013   -1.123608
     49          1           0        3.522957    3.564164   -0.913141
     50          6           0        2.486926    5.438934   -0.580237
     51          1           0        1.472984    5.772590   -0.313125
     52          1           0        3.151684    5.879010    0.175275
     53          6           0        2.885879    6.046544   -1.930889
     54          1           0        2.899921    7.140661   -1.821775
     55          1           0        3.906710    5.737382   -2.185141
     56          7           0        2.009962    5.617771   -3.049366
     57          1           0        2.275493    6.144843   -3.882835
     58          1           0        1.047869    5.897963   -2.852843
     59          1           0        2.340867    3.881677   -3.765471
     60          8           0        3.040792    0.200164    2.741598
     61          1           0        2.775625   -0.672849    1.236284
     62          1           0        2.950229   -0.107095    3.666327
 ---------------------------------------------------------------------

 SCF Done:  E(RB3LYP) =  -1526.16726011     A.U. after    1 cycles

 Alpha  occ. eigenvalues --  -19.35337 -19.34322 -19.28347 -19.25946 -19.23279
 Alpha  occ. eigenvalues --  -19.23111 -19.21010 -14.56508 -14.55505 -14.43210
 Alpha  occ. eigenvalues --  -14.41931 -10.47757 -10.46386 -10.39814 -10.39631
 Alpha  occ. eigenvalues --  -10.38696 -10.37502 -10.35825 -10.32858 -10.32779
 Alpha  occ. eigenvalues --  -10.31869 -10.30935 -10.30284 -10.29390 -10.29132
 Alpha  occ. eigenvalues --  -10.28804 -10.28023 -10.27962 -10.27677 -10.27218
 Alpha  occ. eigenvalues --  -10.26603  -1.26317  -1.24305  -1.17011  -1.16220
 Alpha  occ. eigenvalues --   -1.15066  -1.12012  -1.11892  -1.09836  -1.08921
 Alpha  occ. eigenvalues --   -1.01124  -0.98860  -0.94880  -0.93936  -0.92112
 Alpha  occ. eigenvalues --   -0.89261  -0.87783  -0.84068  -0.83254  -0.82789
 Alpha  occ. eigenvalues --   -0.82038  -0.79148  -0.76543  -0.76330  -0.75157
 Alpha  occ. eigenvalues --   -0.73995  -0.72688  -0.70476  -0.70286  -0.69676
 Alpha  occ. eigenvalues --   -0.68972  -0.68041  -0.67270  -0.66844  -0.65099
 Alpha  occ. eigenvalues --   -0.63695  -0.62655  -0.62091  -0.61886  -0.60468
 Alpha  occ. eigenvalues --   -0.59731  -0.59457  -0.58756  -0.57923  -0.57437
 Alpha  occ. eigenvalues --   -0.57243  -0.56431  -0.56155  -0.55319  -0.54785
 Alpha  occ. eigenvalues --   -0.54609  -0.53933  -0.53527  -0.53007  -0.52708
 Alpha  occ. eigenvalues --   -0.52379  -0.52019  -0.51840  -0.50842  -0.50484
 Alpha  occ. eigenvalues --   -0.49675  -0.48978  -0.48578  -0.48385  -0.47715
 Alpha  occ. eigenvalues --   -0.47688  -0.47164  -0.46989  -0.46719  -0.46102
 Alpha  occ. eigenvalues --   -0.45357  -0.44887  -0.44600  -0.44229  -0.43789
 Alpha  occ. eigenvalues --   -0.43645  -0.41658  -0.41160  -0.40150  -0.39046
 Alpha  occ. eigenvalues --   -0.38830  -0.37116  -0.35569  -0.34831  -0.34385
 Alpha  occ. eigenvalues --   -0.33810  -0.29634
 Alpha virt. eigenvalues --   -0.16993  -0.13480  -0.09545  -0.08987  -0.08814
 Alpha virt. eigenvalues --   -0.07216  -0.07144  -0.06568  -0.04894  -0.03827
 Alpha virt. eigenvalues --   -0.02778  -0.02131  -0.01414  -0.00620   0.00595

 Mulliken charges:
               1
     1  N   -0.766610
     2  H    0.405273
     3  H    0.399656
     4  H    0.429796
     5  C   -0.101131
     6  H    0.211519
     7  C    0.611823
     8  C   -0.298835
     9  H    0.185693
    10  H    0.169862
    11  O   -0.606773
    12  C   -0.364185
    13  H    0.199097
    14  H    0.162192
    15  C    0.561373
    16  O   -0.646429
    17  O   -0.435494
    18  N   -0.610133
    19  H    0.458966
    20  C    0.008416
    21  H    0.153276
    22  C    0.635581
    23  C   -0.368946
    24  H    0.169628
    25  H    0.205445
    26  O   -0.544003
    27  C    0.124585
    28  C   -0.210979
    29  H    0.136459
    30  C   -0.198545
    31  H    0.140853
    32  C   -0.202061
    33  H    0.135764
    34  C   -0.166365
    35  H    0.153187
    36  O   -0.681682
    37  C    0.364687
    38  N   -0.557560
    39  H    0.382940
    40  C   -0.094430
    41  H    0.219575
    42  C    0.636647
    43  C   -0.309908
    44  H    0.165285
    45  H    0.197885
    46  O   -0.390124
    47  C   -0.277174
    48  H    0.158866
    49  H    0.160417
    50  C   -0.275188
    51  H    0.140883
    52  H    0.159403
    53  C   -0.141121
    54  H    0.154210
    55  H    0.167768
    56  N   -0.763506
    57  H    0.336188
    58  H    0.317651
    59  H    0.459338
    60  O   -0.614781
    61  H    0.480648
    62  H    0.465131
 Sum of Mulliken charges =   1.00000

 Dipole moment (field-independent basis, Debye):
    X=             -1.6872    Y=              0.6990    Z=              2.5216  Tot=              3.1135
 Quadrupole moment (field-independent basis, Debye-Ang):
   XX=           -134.6499   YY=            -79.2786   ZZ=           -193.8252
   XY=             48.5283   XZ=            -19.0199   YZ=            -32.1255

 Normal termination of Gaussian 16 at Tue May 24 03:26:09 2022.
