 Gaussian 16, Revision C.01,
 Gaussian 16:  ES64L-G16RevC.01  3-Jul-2019

 -------------------------------------------------------------------
 # B3LYP/6-31G* guess=read geom=check nosymm integral(ultrafinegrid)
 -------------------------------------------------------------------

 -----------------------------------------------------
 Candidate Structure: Conf:90 Charge calc in gas phase
 -----------------------------------------------------
 Structure from the checkpoint file:  "conf-90.chk"
 Charge =  1 Multiplicity = 1

                          Input orientation:
 ---------------------------------------------------------------------
 Center     Atomic      Atomic             Coordinates (Angstroms)
 Number     Number       Type             X           Y           Z
 ---------------------------------------------------------------------
      1          7           0       -2.713388   -4.149755    1.468062
      2          1           0       -2.694413   -4.191470    0.396843
      3          1           0       -2.908734   -5.051700    1.906523
      4          1           0       -3.434825   -3.479913    1.751296
      5          6           0       -1.314875   -3.610950    1.725581
      6          1           0       -0.676484   -4.501174    1.732803
      7          6           0       -1.023300   -2.877935    0.375457
      8          6           0       -1.181494   -2.872428    3.063341
      9          1           0       -0.107224   -2.780826    3.251530
     10          1           0       -1.560918   -3.534475    3.851666
     11          8           0       -1.634786   -3.361456   -0.612675
     12          6           0       -1.831029   -1.467655    3.187877
     13          1           0       -2.427348   -1.392361    4.098877
     14          1           0       -2.516204   -1.273516    2.348370
     15          6           0       -0.819201   -0.288950    3.226720
     16          8           0        0.207500   -0.395960    2.413549
     17          8           0       -1.004029    0.649471    3.981932
     18          7           0       -0.187593   -1.877943    0.480035
     19          1           0        0.025404   -1.237473    1.590819
     20          6           0        0.304622   -1.036506   -0.601019
     21          1           0       -0.484449   -0.306968   -0.846547
     22          6           0        1.452403   -0.236384    0.042482
     23          6           0        0.784182   -1.648193   -1.943373
     24          1           0        1.580219   -2.371147   -1.741527
     25          1           0       -0.046475   -2.197863   -2.391268
     26          8           0        2.404767   -0.716024    0.619526
     27          6           0        1.311089   -0.534614   -2.830744
     28          6           0        0.445303    0.426147   -3.377142
     29          1           0       -0.630725    0.313399   -3.253102
     30          6           0        2.683983   -0.378555   -3.072043
     31          1           0        3.381820   -1.112277   -2.675203
     32          6           0        0.925670    1.519992   -4.100083
     33          1           0        0.233274    2.237395   -4.533289
     34          6           0        3.179811    0.701610   -3.799127
     35          1           0        4.244083    0.808721   -3.986233
     36          8           0        2.842709    2.725064   -4.972381
     37          6           0        2.306662    1.676207   -4.307855
     38          7           0        1.289847    1.147528   -0.073744
     39          1           0        0.628467    1.502257   -0.751581
     40          6           0        2.302991    2.001892    0.443227
     41          1           0        3.119259    1.356345    0.797838
     42          6           0        1.696204    2.542291    1.711457
     43          6           0        2.816179    3.116771   -0.496438
     44          1           0        3.562853    3.721429    0.027784
     45          1           0        3.331046    2.564112   -1.291853
     46          8           0        0.968630    2.847009    2.520402
     47          6           0        1.711849    3.985919   -1.117113
     48          1           0        1.251294    4.636115   -0.359784
     49          1           0        0.920875    3.334298   -1.507447
     50          6           0        2.236287    4.803749   -2.311266
     51          1           0        2.887006    5.614904   -1.961904
     52          1           0        2.856417    4.144326   -2.928281
     53          6           0        1.110022    5.356756   -3.210581
     54          1           0        0.204827    4.752151   -3.080847
     55          1           0        0.845889    6.382796   -2.914923
     56          7           0        1.481069    5.249290   -4.637423
     57          1           0        0.717939    5.591168   -5.220767
     58          1           0        2.206030    3.502547   -5.015255
     59          1           0        2.278132    5.854141   -4.838394
     60          8           0        3.732636    2.875110    2.761206
     61          1           0        4.588392    3.275301    2.557128
     62          1           0        3.628143    2.954979    3.722549
 ---------------------------------------------------------------------

 SCF Done:  E(RB3LYP) =  -1526.08800119     A.U. after    1 cycles

 Alpha  occ. eigenvalues --  -19.42448 -19.30190 -19.23584 -19.23354 -19.21574
 Alpha  occ. eigenvalues --  -19.20059 -19.17052 -14.56258 -14.49475 -14.43095
 Alpha  occ. eigenvalues --  -14.41707 -10.52122 -10.42010 -10.40233 -10.38031
 Alpha  occ. eigenvalues --  -10.36586 -10.36049 -10.33510 -10.32990 -10.32556
 Alpha  occ. eigenvalues --  -10.31412 -10.31213 -10.30391 -10.28959 -10.28187
 Alpha  occ. eigenvalues --  -10.27642 -10.27438 -10.27297 -10.27008 -10.26874
 Alpha  occ. eigenvalues --  -10.26234  -1.32959  -1.16062  -1.15686  -1.14007
 Alpha  occ. eigenvalues --   -1.11928  -1.11561  -1.09233  -1.07323  -1.03885
 Alpha  occ. eigenvalues --   -0.99766  -0.98955  -0.94330  -0.93232  -0.90379
 Alpha  occ. eigenvalues --   -0.89310  -0.86675  -0.82599  -0.82596  -0.82299
 Alpha  occ. eigenvalues --   -0.80517  -0.75445  -0.75306  -0.74189  -0.72122
 Alpha  occ. eigenvalues --   -0.71496  -0.70821  -0.69728  -0.69684  -0.68096
 Alpha  occ. eigenvalues --   -0.67865  -0.67481  -0.66581  -0.65204  -0.64266
 Alpha  occ. eigenvalues --   -0.63771  -0.62899  -0.61552  -0.60605  -0.59980
 Alpha  occ. eigenvalues --   -0.59549  -0.59505  -0.58829  -0.57419  -0.56351
 Alpha  occ. eigenvalues --   -0.56231  -0.55694  -0.55192  -0.54783  -0.54174
 Alpha  occ. eigenvalues --   -0.53528  -0.53275  -0.52335  -0.52123  -0.51919
 Alpha  occ. eigenvalues --   -0.51328  -0.50596  -0.49882  -0.49512  -0.49275
 Alpha  occ. eigenvalues --   -0.48855  -0.48113  -0.47841  -0.47114  -0.46896
 Alpha  occ. eigenvalues --   -0.45990  -0.45900  -0.45675  -0.45293  -0.44835
 Alpha  occ. eigenvalues --   -0.44597  -0.44285  -0.44062  -0.43302  -0.42483
 Alpha  occ. eigenvalues --   -0.41192  -0.39900  -0.39077  -0.37082  -0.36665
 Alpha  occ. eigenvalues --   -0.35477  -0.34616  -0.34051  -0.33478  -0.33082
 Alpha  occ. eigenvalues --   -0.30842  -0.29288
 Alpha virt. eigenvalues --   -0.19557  -0.18982  -0.09609  -0.09094  -0.08390
 Alpha virt. eigenvalues --   -0.07629  -0.07286  -0.05774  -0.04234  -0.03649
 Alpha virt. eigenvalues --   -0.02727  -0.02342  -0.02138  -0.00688  -0.00185

 Mulliken charges:
               1
     1  N   -0.751785
     2  H    0.425655
     3  H    0.402198
     4  H    0.400873
     5  C   -0.118172
     6  H    0.215940
     7  C    0.632933
     8  C   -0.305020
     9  H    0.212249
    10  H    0.161440
    11  O   -0.598586
    12  C   -0.392931
    13  H    0.188001
    14  H    0.144156
    15  C    0.587822
    16  O   -0.653345
    17  O   -0.497060
    18  N   -0.662957
    19  H    0.478345
    20  C    0.016761
    21  H    0.141414
    22  C    0.616953
    23  C   -0.358291
    24  H    0.172527
    25  H    0.197709
    26  O   -0.476441
    27  C    0.137787
    28  C   -0.224956
    29  H    0.137651
    30  C   -0.192872
    31  H    0.147471
    32  C   -0.203609
    33  H    0.137745
    34  C   -0.174896
    35  H    0.151960
    36  O   -0.681186
    37  C    0.362326
    38  N   -0.599162
    39  H    0.369051
    40  C   -0.073663
    41  H    0.283570
    42  C    0.649311
    43  C   -0.288406
    44  H    0.173132
    45  H    0.215599
    46  O   -0.168080
    47  C   -0.299479
    48  H    0.155884
    49  H    0.149580
    50  C   -0.290892
    51  H    0.156669
    52  H    0.183191
    53  C   -0.141313
    54  H    0.152327
    55  H    0.153803
    56  N   -0.759547
    57  H    0.331230
    58  H    0.452109
    59  H    0.330240
    60  O   -0.785946
    61  H    0.433395
    62  H    0.439585
 Sum of Mulliken charges =   1.00000

 Dipole moment (field-independent basis, Debye):
    X=              1.7298    Y=              4.7187    Z=              2.3790  Tot=              5.5604
 Quadrupole moment (field-independent basis, Debye-Ang):
   XX=           -127.1009   YY=            -63.9076   ZZ=           -162.7138
   XY=             67.3079   XZ=              6.8815   YZ=            -41.0772

 Normal termination of Gaussian 16 at Tue May 24 03:24:44 2022.
