 Gaussian 16, Revision C.01,
 Gaussian 16:  ES64L-G16RevC.01  3-Jul-2019

 -------------------------------------------------------------------
 # B3LYP/6-31G* guess=read geom=check nosymm integral(ultrafinegrid)
 -------------------------------------------------------------------

 ------------------------------------------------------
 Candidate Structure: Conf:794 Charge calc in gas phase
 ------------------------------------------------------
 Structure from the checkpoint file:  "conf-794.chk"
 Charge =  1 Multiplicity = 1

                          Input orientation:
 ---------------------------------------------------------------------
 Center     Atomic      Atomic             Coordinates (Angstroms)
 Number     Number       Type             X           Y           Z
 ---------------------------------------------------------------------
      1          7           0       -0.994988   -3.852527    3.039621
      2          1           0        0.001893   -3.833249    3.255836
      3          1           0       -1.509243   -4.266671    3.813594
      4          1           0       -1.097756   -4.454776    2.222521
      5          6           0       -1.486098   -2.496730    2.725794
      6          1           0       -1.137494   -1.801950    3.499611
      7          6           0       -0.862645   -2.054612    1.396725
      8          6           0       -3.016089   -2.440553    2.710510
      9          1           0       -3.337892   -1.445766    2.393727
     10          1           0       -3.378905   -2.583469    3.733687
     11          8           0       -0.186748   -2.819971    0.730752
     12          6           0       -3.693412   -3.476444    1.820605
     13          1           0       -3.484121   -4.488302    2.178531
     14          1           0       -3.381945   -3.381429    0.779645
     15          6           0       -5.203856   -3.186457    1.955583
     16          8           0       -5.677503   -2.392639    1.122032
     17          8           0       -5.774907   -3.754403    2.903781
     18          7           0       -1.165835   -0.779791    1.024854
     19          1           0       -1.561965   -0.196885    1.740321
     20          6           0       -0.447494   -0.056641   -0.015362
     21          1           0       -1.038832    0.841920   -0.219559
     22          6           0        0.928682    0.390659    0.494377
     23          6           0       -0.331286   -0.832590   -1.343875
     24          1           0        0.311564   -1.695805   -1.214053
     25          1           0       -1.329305   -1.188668   -1.589527
     26          8           0        1.525744   -0.161521    1.400346
     27          6           0        0.196590    0.057610   -2.422427
     28          6           0       -0.633624    1.047547   -2.969925
     29          1           0       -1.680942    1.060056   -2.670569
     30          6           0        1.547914    0.021378   -2.786727
     31          1           0        2.190937   -0.733569   -2.339910
     32          6           0       -0.150101    2.011144   -3.810366
     33          1           0       -0.778475    2.793857   -4.212615
     34          6           0        2.076629    0.953431   -3.632505
     35          1           0        3.129668    0.969298   -3.891046
     36          8           0        1.734655    2.896601   -4.904912
     37          6           0        1.256296    2.024851   -4.170911
     38          7           0        1.451499    1.500500   -0.120168
     39          1           0        1.006880    1.794994   -0.979898
     40          6           0        2.909769    1.654566   -0.106985
     41          1           0        3.365700    0.770269   -0.569473
     42          6           0        3.463073    1.696858    1.294172
     43          6           0        3.316265    2.902602   -0.884885
     44          1           0        2.731713    2.906984   -1.811352
     45          1           0        3.023004    3.787050   -0.318055
     46          8           0        4.486312    1.223205    1.674763
     47          6           0        4.796676    2.934875   -1.229264
     48          1           0        5.067699    1.969924   -1.675921
     49          1           0        5.398813    3.035986   -0.324385
     50          6           0        5.152961    4.042753   -2.210964
     51          1           0        6.203643    3.951982   -2.498938
     52          1           0        4.557755    3.924597   -3.127028
     53          6           0        4.923955    5.435288   -1.661581
     54          1           0        3.861957    5.580763   -1.452913
     55          1           0        5.458218    5.542930   -0.714359
     56          7           0        5.369149    6.486906   -2.610906
     57          1           0        5.219850    7.427601   -2.245629
     58          1           0        4.865195    6.416715   -3.493726
     59          1           0        6.361972    6.391347   -2.818505
     60          8           0        2.682235    2.505266    2.186605
     61          1           0        1.715719    2.303400    2.191126
     62          1           0        2.994548    2.339413    3.094318
 ---------------------------------------------------------------------

 SCF Done:  E(RB3LYP) =  -1525.88827919     A.U. after    3 cycles

 Alpha  occ. eigenvalues --  -19.48923 -19.32074 -19.26180 -19.23392 -19.10573
 Alpha  occ. eigenvalues --  -19.06098 -19.05963 -14.67079 -14.59329 -14.49370
 Alpha  occ. eigenvalues --  -14.47282 -10.48928 -10.43532 -10.41862 -10.40779
 Alpha  occ. eigenvalues --  -10.39147 -10.37113 -10.36130 -10.34259 -10.34095
 Alpha  occ. eigenvalues --  -10.33896 -10.27505 -10.26228 -10.25984 -10.24739
 Alpha  occ. eigenvalues --  -10.23395 -10.22982 -10.22455 -10.21532 -10.21395
 Alpha  occ. eigenvalues --  -10.20760  -1.37356  -1.22628  -1.22013  -1.18538
 Alpha  occ. eigenvalues --   -1.16671  -1.13610  -1.06817  -1.04280  -1.01446
 Alpha  occ. eigenvalues --   -0.99975  -0.98702  -0.94532  -0.91292  -0.91019
 Alpha  occ. eigenvalues --   -0.89711  -0.89179  -0.86231  -0.85140  -0.84675
 Alpha  occ. eigenvalues --   -0.81253  -0.80456  -0.80125  -0.78894  -0.78765
 Alpha  occ. eigenvalues --   -0.77558  -0.74912  -0.73566  -0.72104  -0.72000
 Alpha  occ. eigenvalues --   -0.71486  -0.70524  -0.69347  -0.68573  -0.68028
 Alpha  occ. eigenvalues --   -0.65926  -0.64980  -0.64891  -0.64625  -0.63212
 Alpha  occ. eigenvalues --   -0.61730  -0.60774  -0.60725  -0.59334  -0.59159
 Alpha  occ. eigenvalues --   -0.58638  -0.57036  -0.56185  -0.55525  -0.54733
 Alpha  occ. eigenvalues --   -0.54535  -0.53552  -0.53181  -0.52678  -0.51685
 Alpha  occ. eigenvalues --   -0.51109  -0.50472  -0.50362  -0.49754  -0.49113
 Alpha  occ. eigenvalues --   -0.48946  -0.48880  -0.47247  -0.46283  -0.46182
 Alpha  occ. eigenvalues --   -0.46117  -0.44722  -0.43611  -0.42761  -0.41922
 Alpha  occ. eigenvalues --   -0.41808  -0.40978  -0.39814  -0.39756  -0.39214
 Alpha  occ. eigenvalues --   -0.38338  -0.37389  -0.36087  -0.35824  -0.34731
 Alpha  occ. eigenvalues --   -0.34530  -0.30019  -0.24335  -0.21629  -0.21169
 Alpha  occ. eigenvalues --   -0.21037  -0.19671
 Alpha virt. eigenvalues --   -0.18600  -0.16601  -0.15354  -0.11767  -0.10485
 Alpha virt. eigenvalues --   -0.09886  -0.09462  -0.09303  -0.08838  -0.08242
 Alpha virt. eigenvalues --   -0.04565  -0.04465  -0.04102  -0.03561  -0.03238

 Mulliken charges:
               1
     1  N   -0.700689
     2  H    0.411501
     3  H    0.423943
     4  H    0.428108
     5  C   -0.158258
     6  H    0.183015
     7  C    0.665710
     8  C   -0.297188
     9  H    0.188084
    10  H    0.176232
    11  O   -0.511105
    12  C   -0.355419
    13  H    0.099799
    14  H    0.149960
    15  C    0.554759
    16  O   -0.563458
    17  O   -0.568311
    18  N   -0.582649
    19  H    0.331847
    20  C   -0.084472
    21  H    0.178604
    22  C    0.596592
    23  C   -0.361252
    24  H    0.196084
    25  H    0.191184
    26  O   -0.525576
    27  C    0.084896
    28  C   -0.193450
    29  H    0.117562
    30  C   -0.193197
    31  H    0.098231
    32  C   -0.226635
    33  H    0.117586
    34  C   -0.241882
    35  H    0.082943
    36  O   -0.635858
    37  C    0.411318
    38  N   -0.659358
    39  H    0.386439
    40  C    0.004986
    41  H    0.223221
    42  C    0.537349
    43  C   -0.333165
    44  H    0.221130
    45  H    0.130028
    46  O   -0.382375
    47  C   -0.280488
    48  H    0.201845
    49  H    0.161150
    50  C   -0.307754
    51  H    0.171831
    52  H    0.221347
    53  C   -0.224645
    54  H    0.233860
    55  H    0.219537
    56  N   -0.715561
    57  H    0.436046
    58  H    0.444360
    59  H    0.431402
    60  O   -0.562865
    61  H    0.476784
    62  H    0.476341
 Sum of Mulliken charges =   1.00000

 Dipole moment (field-independent basis, Debye):
    X=             38.5730    Y=             28.4419    Z=              8.7016  Tot=             48.7087
 Quadrupole moment (field-independent basis, Debye-Ang):
   XX=           -156.3968   YY=             14.9694   ZZ=           -163.3690
   XY=            110.1342   XZ=             -9.9551   YZ=            -47.3265

 Normal termination of Gaussian 16 at Tue May 24 03:26:32 2022.
