 Gaussian 16, Revision C.01,
 Gaussian 16:  ES64L-G16RevC.01  3-Jul-2019

 -------------------------------------------------------------------
 # B3LYP/6-31G* guess=read geom=check nosymm integral(ultrafinegrid)
 -------------------------------------------------------------------

 ------------------------------------------------------
 Candidate Structure: Conf:797 Charge calc in gas phase
 ------------------------------------------------------
 Structure from the checkpoint file:  "conf-797.chk"
 Charge =  1 Multiplicity = 1

                          Input orientation:
 ---------------------------------------------------------------------
 Center     Atomic      Atomic             Coordinates (Angstroms)
 Number     Number       Type             X           Y           Z
 ---------------------------------------------------------------------
      1          7           0       -1.880451   -0.809309    3.079301
      2          1           0       -6.855093   -1.938248   -0.502100
      3          1           0       -2.141406   -1.431649    3.841013
      4          1           0       -2.469804    0.018992    3.150639
      5          6           0       -0.463857   -0.448052    3.158644
      6          1           0        0.096887   -1.393679    3.179323
      7          6           0       -0.082591    0.249699    1.839121
      8          6           0       -0.050077    0.386658    4.387594
      9          1           0       -0.427679   -0.140314    5.270373
     10          1           0       -0.543301    1.363653    4.362772
     11          8           0        0.573068    1.305393    1.831888
     12          6           0        1.473945    0.588369    4.536093
     13          1           0        2.040798   -0.131255    3.934214
     14          1           0        1.781513    0.408920    5.576361
     15          6           0        1.962452    1.985176    4.228598
     16          8           0        1.307049    3.004880    4.413980
     17          8           0        3.243602    2.137352    3.852560
     18          7           0       -0.489948   -0.399566    0.728975
     19          1           0       -1.180118   -1.133943    0.879017
     20          6           0       -0.240103    0.011165   -0.659819
     21          1           0       -0.621764    1.030698   -0.799864
     22          6           0        1.292496    0.008716   -0.898714
     23          6           0       -0.915675   -0.963942   -1.651486
     24          1           0       -0.873164   -0.490532   -2.639634
     25          1           0       -0.281842   -1.853022   -1.714519
     26          8           0        1.891609   -0.978652   -1.339808
     27          6           0       -2.333488   -1.368346   -1.312134
     28          6           0       -2.591018   -2.635421   -0.763458
     29          1           0       -1.765394   -3.326535   -0.606145
     30          6           0       -3.426040   -0.519439   -1.534222
     31          1           0       -3.266901    0.462322   -1.975617
     32          6           0       -3.881116   -3.044021   -0.440745
     33          1           0       -4.075067   -4.027782   -0.025995
     34          6           0       -4.724471   -0.912712   -1.217503
     35          1           0       -5.559374   -0.241550   -1.409612
     36          8           0       -6.197367   -2.630811   -0.334518
     37          6           0       -4.956652   -2.179305   -0.665831
     38          7           0        1.918884    1.156960   -0.536149
     39          1           0        1.390437    1.694700    0.152118
     40          6           0        3.379870    1.246585   -0.411151
     41          1           0        3.811107    0.818318   -1.322590
     42          6           0        3.840793    0.365862    0.779613
     43          6           0        3.827855    2.711650   -0.269002
     44          1           0        4.885046    2.699795    0.017597
     45          1           0        3.766878    3.188392   -1.253879
     46          8           0        4.303726    0.826334    1.812630
     47          6           0        3.020782    3.532235    0.757838
     48          1           0        2.838799    2.920074    1.642261
     49          1           0        2.040468    3.795816    0.339733
     50          6           0        3.737735    4.823633    1.172313
     51          1           0        4.742796    4.593303    1.554318
     52          1           0        3.891589    5.467578    0.297035
     53          6           0        2.994267    5.674093    2.204289
     54          1           0        3.490903    6.638767    2.333331
     55          1           0        1.954912    5.856172    1.919171
     56          7           0        2.953819    5.031008    3.580860
     57          1           0        2.209489    4.287285    3.739221
     58          1           0        2.807818    5.736789    4.309319
     59          1           0        3.834500    4.545887    3.787961
     60          8           0        3.681531   -0.941536    0.631877
     61          1           0        3.219662   -1.145136   -0.226929
     62          1           0        3.634015    1.370488    3.364088
 ---------------------------------------------------------------------

 SCF Done:  E(RB3LYP) =  -1526.23687039     A.U. after    1 cycles

 Alpha  occ. eigenvalues --  -19.30657 -19.28531 -19.26546 -19.24722 -19.24649
 Alpha  occ. eigenvalues --  -19.23632 -19.23356 -14.57938 -14.46743 -14.46455
 Alpha  occ. eigenvalues --  -14.42408 -10.44607 -10.42840 -10.40022 -10.39625
 Alpha  occ. eigenvalues --  -10.38599 -10.34932 -10.34088 -10.33044 -10.32606
 Alpha  occ. eigenvalues --  -10.32206 -10.31361 -10.30321 -10.30205 -10.29249
 Alpha  occ. eigenvalues --  -10.27910 -10.26901 -10.26791 -10.26544 -10.26368
 Alpha  occ. eigenvalues --  -10.25646  -1.22091  -1.20346  -1.15338  -1.14291
 Alpha  occ. eigenvalues --   -1.13531  -1.12905  -1.12478  -1.11770  -1.03869
 Alpha  occ. eigenvalues --   -1.03203  -0.99285  -0.93331  -0.92868  -0.89721
 Alpha  occ. eigenvalues --   -0.89372  -0.87386  -0.83568  -0.82149  -0.82031
 Alpha  occ. eigenvalues --   -0.80447  -0.76709  -0.75415  -0.74357  -0.72761
 Alpha  occ. eigenvalues --   -0.71968  -0.70916  -0.70482  -0.70118  -0.69614
 Alpha  occ. eigenvalues --   -0.68592  -0.67701  -0.66252  -0.64774  -0.63849
 Alpha  occ. eigenvalues --   -0.63122  -0.61889  -0.61658  -0.61315  -0.60336
 Alpha  occ. eigenvalues --   -0.59342  -0.58600  -0.58250  -0.57648  -0.57239
 Alpha  occ. eigenvalues --   -0.56538  -0.56147  -0.55698  -0.54430  -0.54238
 Alpha  occ. eigenvalues --   -0.53938  -0.53563  -0.52977  -0.52218  -0.51821
 Alpha  occ. eigenvalues --   -0.51227  -0.50925  -0.50135  -0.49980  -0.49601
 Alpha  occ. eigenvalues --   -0.49447  -0.49259  -0.48628  -0.48111  -0.47546
 Alpha  occ. eigenvalues --   -0.47218  -0.46341  -0.45961  -0.45873  -0.45474
 Alpha  occ. eigenvalues --   -0.45342  -0.45324  -0.44108  -0.43279  -0.42874
 Alpha  occ. eigenvalues --   -0.41677  -0.40907  -0.40730  -0.40203  -0.40120
 Alpha  occ. eigenvalues --   -0.38485  -0.37589  -0.35835  -0.35438  -0.34171
 Alpha  occ. eigenvalues --   -0.32604  -0.29131
 Alpha virt. eigenvalues --   -0.11663  -0.11088  -0.09534  -0.09237  -0.08986
 Alpha virt. eigenvalues --   -0.07896  -0.06346  -0.04123  -0.02822  -0.01886
 Alpha virt. eigenvalues --   -0.01385  -0.00894  -0.00046   0.00386   0.00844

 Mulliken charges:
               1
     1  N   -0.725460
     2  H    0.414791
     3  H    0.326094
     4  H    0.318045
     5  C   -0.086897
     6  H    0.178449
     7  C    0.631701
     8  C   -0.267035
     9  H    0.153665
    10  H    0.181404
    11  O   -0.580235
    12  C   -0.378889
    13  H    0.179706
    14  H    0.205758
    15  C    0.662966
    16  O   -0.511528
    17  O   -0.627613
    18  N   -0.602659
    19  H    0.382559
    20  C   -0.035454
    21  H    0.171075
    22  C    0.619757
    23  C   -0.395867
    24  H    0.174410
    25  H    0.198307
    26  O   -0.545024
    27  C    0.143234
    28  C   -0.205517
    29  H    0.140432
    30  C   -0.184418
    31  H    0.130448
    32  C   -0.149999
    33  H    0.156477
    34  C   -0.190116
    35  H    0.133898
    36  O   -0.630770
    37  C    0.354284
    38  N   -0.603889
    39  H    0.389822
    40  C   -0.102940
    41  H    0.203743
    42  C    0.632592
    43  C   -0.270600
    44  H    0.171711
    45  H    0.168284
    46  O   -0.515016
    47  C   -0.308500
    48  H    0.180792
    49  H    0.154485
    50  C   -0.293938
    51  H    0.166486
    52  H    0.188321
    53  C   -0.187300
    54  H    0.206427
    55  H    0.212876
    56  N   -0.763033
    57  H    0.450993
    58  H    0.404497
    59  H    0.407990
    60  O   -0.566827
    61  H    0.461138
    62  H    0.471906
 Sum of Mulliken charges =   1.00000

 Dipole moment (field-independent basis, Debye):
    X=              6.0117    Y=             15.7919    Z=             11.3777  Tot=             20.3709
 Quadrupole moment (field-independent basis, Debye-Ang):
   XX=           -122.3279   YY=            -92.3859   ZZ=           -125.4205
   XY=             53.0299   XZ=             25.0968   YZ=             37.1458

 Normal termination of Gaussian 16 at Tue May 24 03:26:08 2022.
