 Gaussian 16, Revision C.01,
 Gaussian 16:  ES64L-G16RevC.01  3-Jul-2019

 -------------------------------------------------------------------
 # B3LYP/6-31G* guess=read geom=check nosymm integral(ultrafinegrid)
 -------------------------------------------------------------------

 -----------------------------------------------------
 Candidate Structure: Conf:34 Charge calc in gas phase
 -----------------------------------------------------
 Structure from the checkpoint file:  "conf-34.chk"
 Charge =  1 Multiplicity = 1

                          Input orientation:
 ---------------------------------------------------------------------
 Center     Atomic      Atomic             Coordinates (Angstroms)
 Number     Number       Type             X           Y           Z
 ---------------------------------------------------------------------
      1          7           0       -0.841751   -4.298859    2.503443
      2          1           0       -0.081443   -4.225022    1.704282
      3          1           0       -0.409124   -4.497424    3.407261
      4          1           0       -1.534984   -5.024060    2.305815
      5          6           0       -1.394910   -2.892998    2.386639
      6          1           0       -1.276162   -2.397296    3.351933
      7          6           0       -0.429197   -2.246530    1.334672
      8          6           0       -2.882912   -2.956316    1.993544
      9          1           0       -3.412451   -3.516832    2.775090
     10          1           0       -2.978945   -3.523173    1.057390
     11          8           0        0.393853   -3.061088    0.816277
     12          6           0       -3.584763   -1.592951    1.817983
     13          1           0       -4.652175   -1.776978    1.677891
     14          1           0       -3.196402   -1.090653    0.928254
     15          6           0       -3.430404   -0.695876    3.051605
     16          8           0       -2.257855   -0.038603    3.140049
     17          8           0       -4.274340   -0.617125    3.912135
     18          7           0       -0.607410   -0.960488    1.158369
     19          1           0       -1.673456   -0.246708    2.349773
     20          6           0        0.179783   -0.218998    0.198012
     21          1           0       -0.370548    0.709231   -0.006616
     22          6           0        1.509760    0.229045    0.765054
     23          6           0        0.431656   -0.884669   -1.212819
     24          1           0        0.953810   -1.829928   -1.060857
     25          1           0       -0.571095   -1.121431   -1.587123
     26          8           0        2.210486   -0.631888    1.440834
     27          6           0        1.181882    0.015084   -2.166571
     28          6           0        2.540930   -0.199402   -2.436916
     29          1           0        3.034463   -1.078751   -2.026315
     30          6           0        0.567845    1.129106   -2.765811
     31          1           0       -0.496191    1.304182   -2.613681
     32          6           0        3.274428    0.674874   -3.240219
     33          1           0        4.317999    0.467831   -3.460366
     34          6           0        1.286841    2.015252   -3.563186
     35          1           0        0.806229    2.873078   -4.023349
     36          8           0        3.317193    2.724186   -4.537038
     37          6           0        2.660869    1.813464   -3.793408
     38          7           0        1.950518    1.448675    0.516626
     39          1           0        1.322313    2.024175   -0.037711
     40          6           0        3.361813    1.924007    0.531826
     41          1           0        3.975175    1.085695    0.176876
     42          6           0        3.816190    2.258241    1.959646
     43          6           0        3.509914    3.119315   -0.420557
     44          1           0        2.802030    2.982635   -1.245795
     45          1           0        3.240290    4.038497    0.110654
     46          8           0        4.161637    3.328156    2.372027
     47          6           0        4.915934    3.232783   -1.029568
     48          1           0        5.148395    2.271124   -1.506160
     49          1           0        5.665078    3.395063   -0.244094
     50          6           0        4.986773    4.360375   -2.075135
     51          1           0        4.060390    4.373584   -2.660893
     52          1           0        5.059238    5.329920   -1.566967
     53          6           0        6.152952    4.234455   -3.062543
     54          1           0        6.132511    5.099751   -3.731791
     55          1           0        7.116587    4.261609   -2.533127
     56          7           0        6.028083    3.018395   -3.909896
     57          1           0        6.561770    3.147619   -4.768788
     58          1           0        4.307647    2.690038   -4.381221
     59          1           0        6.458242    2.220692   -3.444124
     60          8           0        3.806179    1.123513    2.729755
     61          1           0        2.956259   -0.208750    1.935683
     62          1           0        4.077720    1.351099    3.641552
 ---------------------------------------------------------------------

 SCF Done:  E(RB3LYP) =  -1526.16435390     A.U. after    2 cycles

 Alpha  occ. eigenvalues --  -19.36247 -19.35696 -19.29301 -19.23849 -19.23686
 Alpha  occ. eigenvalues --  -19.23091 -19.19017 -14.55611 -14.55181 -14.43724
 Alpha  occ. eigenvalues --  -14.41642 -10.47966 -10.47227 -10.39827 -10.38637
 Alpha  occ. eigenvalues --  -10.37790 -10.36735 -10.36171 -10.33701 -10.31653
 Alpha  occ. eigenvalues --  -10.31570 -10.31060 -10.29861 -10.29734 -10.28786
 Alpha  occ. eigenvalues --  -10.28734 -10.28616 -10.28512 -10.28003 -10.27970
 Alpha  occ. eigenvalues --  -10.27530  -1.26991  -1.25417  -1.17183  -1.15035
 Alpha  occ. eigenvalues --   -1.14705  -1.12338  -1.11963  -1.09151  -1.06966
 Alpha  occ. eigenvalues --   -1.00882  -0.99271  -0.95088  -0.94502  -0.91293
 Alpha  occ. eigenvalues --   -0.89147  -0.87648  -0.84207  -0.83952  -0.82381
 Alpha  occ. eigenvalues --   -0.82279  -0.79625  -0.77533  -0.75928  -0.74856
 Alpha  occ. eigenvalues --   -0.73728  -0.72546  -0.70885  -0.70163  -0.68601
 Alpha  occ. eigenvalues --   -0.68214  -0.67914  -0.67413  -0.66274  -0.66065
 Alpha  occ. eigenvalues --   -0.63832  -0.63108  -0.62724  -0.61168  -0.60746
 Alpha  occ. eigenvalues --   -0.60451  -0.59812  -0.58501  -0.57857  -0.57351
 Alpha  occ. eigenvalues --   -0.57251  -0.57171  -0.56627  -0.55853  -0.55036
 Alpha  occ. eigenvalues --   -0.54523  -0.53837  -0.53453  -0.52766  -0.52519
 Alpha  occ. eigenvalues --   -0.51539  -0.51190  -0.51053  -0.50962  -0.50094
 Alpha  occ. eigenvalues --   -0.49341  -0.49108  -0.48515  -0.48410  -0.47850
 Alpha  occ. eigenvalues --   -0.47712  -0.47355  -0.47133  -0.46593  -0.46031
 Alpha  occ. eigenvalues --   -0.45328  -0.45011  -0.44379  -0.43933  -0.43441
 Alpha  occ. eigenvalues --   -0.42741  -0.42385  -0.41954  -0.40691  -0.38440
 Alpha  occ. eigenvalues --   -0.36916  -0.36254  -0.36080  -0.34959  -0.34620
 Alpha  occ. eigenvalues --   -0.32597  -0.30361
 Alpha virt. eigenvalues --   -0.17437  -0.14697  -0.10190  -0.08832  -0.08312
 Alpha virt. eigenvalues --   -0.07964  -0.07161  -0.05397  -0.05146  -0.03670
 Alpha virt. eigenvalues --   -0.03215  -0.02498  -0.00747  -0.00595   0.00181

 Mulliken charges:
               1
     1  N   -0.773810
     2  H    0.431298
     3  H    0.399856
     4  H    0.398119
     5  C   -0.106613
     6  H    0.217541
     7  C    0.621976
     8  C   -0.298287
     9  H    0.180619
    10  H    0.165955
    11  O   -0.615057
    12  C   -0.360203
    13  H    0.193347
    14  H    0.171953
    15  C    0.568914
    16  O   -0.612079
    17  O   -0.438929
    18  N   -0.582536
    19  H    0.439608
    20  C   -0.059320
    21  H    0.168201
    22  C    0.641153
    23  C   -0.381414
    24  H    0.213404
    25  H    0.180678
    26  O   -0.544454
    27  C    0.142453
    28  C   -0.214908
    29  H    0.137389
    30  C   -0.219841
    31  H    0.141388
    32  C   -0.196895
    33  H    0.132840
    34  C   -0.169669
    35  H    0.160975
    36  O   -0.677769
    37  C    0.362924
    38  N   -0.558601
    39  H    0.390506
    40  C   -0.076033
    41  H    0.210013
    42  C    0.640467
    43  C   -0.324439
    44  H    0.179339
    45  H    0.195568
    46  O   -0.390309
    47  C   -0.281823
    48  H    0.136340
    49  H    0.162392
    50  C   -0.271405
    51  H    0.170140
    52  H    0.160720
    53  C   -0.155690
    54  H    0.175080
    55  H    0.151254
    56  N   -0.771266
    57  H    0.340721
    58  H    0.464915
    59  H    0.322822
    60  O   -0.618770
    61  H    0.475847
    62  H    0.453406
 Sum of Mulliken charges =   1.00000

 Dipole moment (field-independent basis, Debye):
    X=             14.2781    Y=             -4.0151    Z=              2.0688  Tot=             14.9755
 Quadrupole moment (field-independent basis, Debye-Ang):
   XX=           -108.1085   YY=           -115.4292   ZZ=           -164.1499
   XY=             46.0641   XZ=              0.8917   YZ=            -42.6168

 Normal termination of Gaussian 16 at Tue May 24 03:32:47 2022.
