 Gaussian 16, Revision C.01,
 Gaussian 16:  ES64L-G16RevC.01  3-Jul-2019

 -------------------------------------------------------------------
 # B3LYP/6-31G* guess=read geom=check nosymm integral(ultrafinegrid)
 -------------------------------------------------------------------

 ------------------------------------------------------
 Candidate Structure: Conf:234 Charge calc in gas phase
 ------------------------------------------------------
 Structure from the checkpoint file:  "conf-234.chk"
 Charge =  1 Multiplicity = 1

                          Input orientation:
 ---------------------------------------------------------------------
 Center     Atomic      Atomic             Coordinates (Angstroms)
 Number     Number       Type             X           Y           Z
 ---------------------------------------------------------------------
      1          7           0       -1.281566   -3.801023    2.923723
      2          1           0       -0.314167   -4.052903    2.723625
      3          1           0       -1.522539   -4.138098    3.854057
      4          1           0       -1.860954   -4.287429    2.239928
      5          6           0       -1.464905   -2.344255    2.797124
      6          1           0       -0.810924   -1.840103    3.520832
      7          6           0       -1.027141   -1.923502    1.390518
      8          6           0       -2.898046   -1.915521    3.077152
      9          1           0       -3.580543   -2.462279    2.421580
     10          1           0       -3.005684   -0.858756    2.819785
     11          8           0       -0.736104   -2.758356    0.548809
     12          6           0       -3.313456   -2.116944    4.523326
     13          1           0       -2.668333   -1.579377    5.217606
     14          1           0       -3.297822   -3.175855    4.806181
     15          6           0       -4.775810   -1.646929    4.736037
     16          8           0       -5.006126   -1.125636    5.844264
     17          8           0       -5.567795   -1.893816    3.808854
     18          7           0       -1.034097   -0.577315    1.176947
     19          1           0       -1.162602   -0.006967    1.994685
     20          6           0       -0.394578    0.089314    0.045958
     21          1           0       -0.806499    1.103612    0.020766
     22          6           0        1.112089    0.178093    0.270413
     23          6           0       -0.691933   -0.581692   -1.306222
     24          1           0       -0.235816   -1.565530   -1.313862
     25          1           0       -1.769587   -0.711404   -1.380448
     26          8           0        1.793245   -0.771254    0.618912
     27          6           0       -0.176989    0.232668   -2.445104
     28          6           0       -0.992547    1.144898   -3.132882
     29          1           0       -2.042664    1.222663   -2.870330
     30          6           0        1.173840    0.126937   -2.816597
     31          1           0        1.805763   -0.580820   -2.283587
     32          6           0       -0.498491    1.942865   -4.139414
     33          1           0       -1.122494    2.653058   -4.663799
     34          6           0        1.702847    0.883745   -3.830424
     35          1           0        2.757274    0.845525   -4.076476
     36          8           0        1.374849    2.606339   -5.396773
     37          6           0        0.896734    1.870279   -4.527590
     38          7           0        1.668721    1.402465    0.035946
     39          1           0        1.124513    2.103245   -0.432153
     40          6           0        3.122161    1.516222   -0.071971
     41          1           0        3.496965    0.743634   -0.752590
     42          6           0        3.802918    1.248230    1.247091
     43          6           0        3.522849    2.898159   -0.562410
     44          1           0        2.986217    3.641143    0.021956
     45          1           0        4.584683    3.036369   -0.352871
     46          8           0        4.803167    0.640734    1.440782
     47          6           0        3.238153    3.077068   -2.039374
     48          1           0        2.186217    2.831067   -2.230167
     49          1           0        3.826509    2.344766   -2.606515
     50          6           0        3.533819    4.462869   -2.584176
     51          1           0        3.170640    4.530116   -3.613451
     52          1           0        2.988219    5.215709   -2.003909
     53          6           0        5.007291    4.813947   -2.564742
     54          1           0        5.370747    4.815130   -1.534774
     55          1           0        5.567559    4.047021   -3.105067
     56          7           0        5.270949    6.145390   -3.166234
     57          1           0        6.261755    6.387793   -3.152222
     58          1           0        4.768802    6.876217   -2.664146
     59          1           0        4.960369    6.173932   -4.136192
     60          8           0        3.182743    1.948728    2.343495
     61          1           0        2.210623    1.821161    2.451600
     62          1           0        3.607531    1.649795    3.169601
 ---------------------------------------------------------------------

 SCF Done:  E(RB3LYP) =  -1525.87094536     A.U. after    1 cycles

 Alpha  occ. eigenvalues --  -19.49260 -19.32299 -19.25202 -19.23507 -19.10665
 Alpha  occ. eigenvalues --  -19.06476 -19.06461 -14.67077 -14.59695 -14.50707
 Alpha  occ. eigenvalues --  -14.47908 -10.48620 -10.43294 -10.41717 -10.41020
 Alpha  occ. eigenvalues --  -10.39893 -10.37256 -10.35741 -10.35095 -10.34524
 Alpha  occ. eigenvalues --  -10.33062 -10.27415 -10.25899 -10.25888 -10.25253
 Alpha  occ. eigenvalues --  -10.23147 -10.22599 -10.22498 -10.22247 -10.21113
 Alpha  occ. eigenvalues --  -10.20300  -1.37498  -1.22952  -1.21993  -1.17839
 Alpha  occ. eigenvalues --   -1.16845  -1.13850  -1.07702  -1.04712  -1.01415
 Alpha  occ. eigenvalues --   -1.00316  -0.98572  -0.95136  -0.91729  -0.91359
 Alpha  occ. eigenvalues --   -0.89940  -0.89144  -0.86283  -0.85542  -0.84915
 Alpha  occ. eigenvalues --   -0.81423  -0.80624  -0.80149  -0.79053  -0.78301
 Alpha  occ. eigenvalues --   -0.77779  -0.74316  -0.74062  -0.73521  -0.72699
 Alpha  occ. eigenvalues --   -0.71629  -0.70356  -0.69295  -0.68934  -0.68413
 Alpha  occ. eigenvalues --   -0.66713  -0.65317  -0.64494  -0.64301  -0.63585
 Alpha  occ. eigenvalues --   -0.62152  -0.61185  -0.60921  -0.60410  -0.59313
 Alpha  occ. eigenvalues --   -0.58136  -0.56853  -0.56692  -0.55396  -0.54796
 Alpha  occ. eigenvalues --   -0.54264  -0.53704  -0.53044  -0.52742  -0.51894
 Alpha  occ. eigenvalues --   -0.51432  -0.50829  -0.49981  -0.49521  -0.49173
 Alpha  occ. eigenvalues --   -0.48971  -0.48552  -0.47062  -0.46615  -0.46542
 Alpha  occ. eigenvalues --   -0.45696  -0.44658  -0.44330  -0.42731  -0.42498
 Alpha  occ. eigenvalues --   -0.41525  -0.41032  -0.39933  -0.39924  -0.39020
 Alpha  occ. eigenvalues --   -0.38074  -0.37369  -0.36475  -0.35836  -0.34850
 Alpha  occ. eigenvalues --   -0.34379  -0.29252  -0.24238  -0.22063  -0.21483
 Alpha  occ. eigenvalues --   -0.20773  -0.20208
 Alpha virt. eigenvalues --   -0.19085  -0.16765  -0.16424  -0.12000  -0.10509
 Alpha virt. eigenvalues --   -0.10130  -0.09982  -0.09203  -0.08911  -0.08437
 Alpha virt. eigenvalues --   -0.05188  -0.04402  -0.04032  -0.03652  -0.03377

 Mulliken charges:
               1
     1  N   -0.700141
     2  H    0.418085
     3  H    0.417660
     4  H    0.428763
     5  C   -0.155492
     6  H    0.182767
     7  C    0.652791
     8  C   -0.276024
     9  H    0.192978
    10  H    0.177679
    11  O   -0.505291
    12  C   -0.375456
    13  H    0.127780
    14  H    0.112514
    15  C    0.567803
    16  O   -0.559698
    17  O   -0.572789
    18  N   -0.600632
    19  H    0.326194
    20  C   -0.055453
    21  H    0.152619
    22  C    0.603461
    23  C   -0.365454
    24  H    0.208939
    25  H    0.172997
    26  O   -0.503795
    27  C    0.104516
    28  C   -0.192880
    29  H    0.112239
    30  C   -0.209352
    31  H    0.106996
    32  C   -0.221404
    33  H    0.115518
    34  C   -0.235263
    35  H    0.078646
    36  O   -0.627146
    37  C    0.410541
    38  N   -0.650274
    39  H    0.358791
    40  C    0.010362
    41  H    0.235727
    42  C    0.515370
    43  C   -0.333253
    44  H    0.149904
    45  H    0.164815
    46  O   -0.369071
    47  C   -0.278283
    48  H    0.220822
    49  H    0.180718
    50  C   -0.302749
    51  H    0.225425
    52  H    0.155100
    53  C   -0.227321
    54  H    0.214719
    55  H    0.239877
    56  N   -0.714516
    57  H    0.436221
    58  H    0.429771
    59  H    0.441201
    60  O   -0.564330
    61  H    0.465951
    62  H    0.479804
 Sum of Mulliken charges =   1.00000

 Dipole moment (field-independent basis, Debye):
    X=             38.2827    Y=             22.6366    Z=             -0.5259  Tot=             44.4776
 Quadrupole moment (field-independent basis, Debye-Ang):
   XX=           -139.6922   YY=             20.8759   ZZ=           -223.4187
   XY=            139.9379   XZ=             29.0880   YZ=            -63.6989

 Normal termination of Gaussian 16 at Tue May 24 03:24:43 2022.
