 Gaussian 16, Revision C.01,
 Gaussian 16:  ES64L-G16RevC.01  3-Jul-2019

 -------------------------------------------------------------------
 # B3LYP/6-31G* guess=read geom=check nosymm integral(ultrafinegrid)
 -------------------------------------------------------------------

 ------------------------------------------------------
 Candidate Structure: Conf:306 Charge calc in gas phase
 ------------------------------------------------------
 Structure from the checkpoint file:  "conf-306.chk"
 Charge =  1 Multiplicity = 1

                          Input orientation:
 ---------------------------------------------------------------------
 Center     Atomic      Atomic             Coordinates (Angstroms)
 Number     Number       Type             X           Y           Z
 ---------------------------------------------------------------------
      1          7           0       -0.440671   -2.748275    4.023340
      2          1           0       -0.135506   -1.990229    4.632486
      3          1           0       -2.083820   -3.501356    4.828013
      4          1           0        0.405532   -3.228833    3.717810
      5          6           0       -1.161610   -2.220114    2.865596
      6          1           0       -2.037031   -1.683548    3.250747
      7          6           0       -0.318519   -1.255157    2.028531
      8          6           0       -1.649893   -3.373656    1.951509
      9          1           0       -0.791210   -3.781755    1.402963
     10          1           0       -2.337216   -2.958087    1.205380
     11          8           0        0.905427   -1.350540    1.922131
     12          6           0       -2.348830   -4.526286    2.705173
     13          1           0       -1.612860   -5.087971    3.289532
     14          1           0       -2.789497   -5.206060    1.972434
     15          6           0       -3.475217   -4.036786    3.617385
     16          8           0       -3.070071   -3.519337    4.799652
     17          8           0       -4.640961   -4.064404    3.307381
     18          7           0       -0.981232   -0.259178    1.369944
     19          1           0       -1.981953   -0.146590    1.465367
     20          6           0       -0.269351    0.580515    0.417436
     21          1           0       -0.817825    1.527551    0.339824
     22          6           0        1.047335    1.000670    1.036738
     23          6           0       -0.171255   -0.065844   -0.997782
     24          1           0        0.315218   -1.041943   -0.901384
     25          1           0       -1.206136   -0.254715   -1.307078
     26          8           0        1.030168    1.516521    2.256390
     27          6           0        0.563243    0.806752   -1.993999
     28          6           0        1.826327    0.433208   -2.481710
     29          1           0        2.184844   -0.583321   -2.321493
     30          6           0        0.084528    2.082627   -2.335218
     31          1           0       -0.920503    2.379170   -2.041057
     32          6           0        2.644975    1.344014   -3.152881
     33          1           0        3.620313    1.039008   -3.520666
     34          6           0        0.883625    2.998119   -3.014811
     35          1           0        0.515221    3.987337   -3.272200
     36          8           0        2.993252    3.621802   -3.876211
     37          6           0        2.209454    2.666520   -3.359654
     38          7           0        2.222465    1.061499    0.476353
     39          1           0        2.382777    0.817738   -0.501970
     40          6           0        3.228701    1.617884    1.379690
     41          1           0        3.851439    0.790564    1.752732
     42          6           0        2.341000    2.051053    2.537682
     43          6           0        4.130167    2.706442    0.776068
     44          1           0        3.493605    3.502737    0.378070
     45          1           0        4.700382    3.128117    1.612940
     46          8           0        2.562792    2.656345    3.527966
     47          6           0        5.093410    2.137209   -0.283313
     48          1           0        4.533240    1.804545   -1.166252
     49          1           0        5.578613    1.244282    0.133731
     50          6           0        6.201886    3.118874   -0.713031
     51          1           0        6.622174    3.591689    0.183915
     52          1           0        7.027454    2.542609   -1.152977
     53          6           0        5.820707    4.234740   -1.696160
     54          1           0        4.903109    4.745083   -1.379578
     55          1           0        6.622629    4.984658   -1.678725
     56          7           0        5.599683    3.734505   -3.079405
     57          1           0        5.720831    4.515710   -3.726375
     58          1           0        3.958970    3.452027   -3.651010
     59          1           0        6.338373    3.073425   -3.323880
     60          8           0        0.921963    3.774403    0.342173
     61          1           0        0.932975    3.870383   -0.625068
     62          1           0        0.607428    4.627584    0.679928
 ---------------------------------------------------------------------

 SCF Done:  E(RB3LYP) =  -1526.17505482     A.U. after    1 cycles

 Alpha  occ. eigenvalues --  -19.37518 -19.31034 -19.27719 -19.25933 -19.25777
 Alpha  occ. eigenvalues --  -19.24118 -19.18854 -14.55280 -14.50765 -14.45345
 Alpha  occ. eigenvalues --  -14.44343 -10.49416 -10.48220 -10.42184 -10.40473
 Alpha  occ. eigenvalues --  -10.40369 -10.37541 -10.36415 -10.34692 -10.33297
 Alpha  occ. eigenvalues --  -10.33001 -10.32875 -10.31835 -10.31568 -10.31510
 Alpha  occ. eigenvalues --  -10.31410 -10.30661 -10.30529 -10.30422 -10.30383
 Alpha  occ. eigenvalues --  -10.28004  -1.30063  -1.21466  -1.17813  -1.14982
 Alpha  occ. eigenvalues --   -1.14807  -1.13292  -1.12398  -1.07194  -1.06994
 Alpha  occ. eigenvalues --   -1.01308  -1.00962  -0.97979  -0.96075  -0.92557
 Alpha  occ. eigenvalues --   -0.89756  -0.88660  -0.87133  -0.86534  -0.83639
 Alpha  occ. eigenvalues --   -0.81443  -0.81085  -0.78271  -0.77218  -0.75683
 Alpha  occ. eigenvalues --   -0.74032  -0.73652  -0.71806  -0.70866  -0.70124
 Alpha  occ. eigenvalues --   -0.68362  -0.67610  -0.66356  -0.65713  -0.65457
 Alpha  occ. eigenvalues --   -0.65255  -0.63377  -0.62102  -0.61668  -0.61468
 Alpha  occ. eigenvalues --   -0.60212  -0.60020  -0.59600  -0.58689  -0.58026
 Alpha  occ. eigenvalues --   -0.57773  -0.57216  -0.56680  -0.56461  -0.55943
 Alpha  occ. eigenvalues --   -0.55684  -0.55181  -0.54389  -0.54086  -0.54019
 Alpha  occ. eigenvalues --   -0.53398  -0.53141  -0.52332  -0.51588  -0.51425
 Alpha  occ. eigenvalues --   -0.51186  -0.50851  -0.50382  -0.49655  -0.49284
 Alpha  occ. eigenvalues --   -0.49105  -0.47381  -0.47307  -0.47079  -0.46321
 Alpha  occ. eigenvalues --   -0.45441  -0.45183  -0.45154  -0.44928  -0.44688
 Alpha  occ. eigenvalues --   -0.43784  -0.43111  -0.42622  -0.42551  -0.40286
 Alpha  occ. eigenvalues --   -0.39742  -0.37798  -0.37681  -0.36860  -0.36654
 Alpha  occ. eigenvalues --   -0.33064  -0.32462
 Alpha virt. eigenvalues --   -0.18961  -0.14225  -0.13304  -0.12277  -0.11059
 Alpha virt. eigenvalues --   -0.06443  -0.05556  -0.04918  -0.04247  -0.03580
 Alpha virt. eigenvalues --   -0.03261  -0.02265  -0.02069  -0.01165  -0.00812

 Mulliken charges:
               1
     1  N   -0.734687
     2  H    0.333410
     3  H    0.441142
     4  H    0.334815
     5  C   -0.098037
     6  H    0.182339
     7  C    0.631378
     8  C   -0.284259
     9  H    0.165206
    10  H    0.164123
    11  O   -0.536710
    12  C   -0.362448
    13  H    0.171305
    14  H    0.192270
    15  C    0.576818
    16  O   -0.585640
    17  O   -0.437170
    18  N   -0.604953
    19  H    0.362855
    20  C   -0.053970
    21  H    0.222971
    22  C    0.762620
    23  C   -0.366786
    24  H    0.188167
    25  H    0.188424
    26  O   -0.450719
    27  C    0.152060
    28  C   -0.285674
    29  H    0.162081
    30  C   -0.187033
    31  H    0.149713
    32  C   -0.179678
    33  H    0.159597
    34  C   -0.197663
    35  H    0.169430
    36  O   -0.668738
    37  C    0.369555
    38  N   -0.619213
    39  H    0.402226
    40  C   -0.050882
    41  H    0.241257
    42  C    0.631961
    43  C   -0.283097
    44  H    0.186444
    45  H    0.192035
    46  O   -0.365005
    47  C   -0.292741
    48  H    0.154410
    49  H    0.155196
    50  C   -0.284912
    51  H    0.165992
    52  H    0.156530
    53  C   -0.135411
    54  H    0.158568
    55  H    0.165087
    56  N   -0.777493
    57  H    0.345367
    58  H    0.461307
    59  H    0.327757
    60  O   -0.809499
    61  H    0.409761
    62  H    0.418240
 Sum of Mulliken charges =   1.00000

 Dipole moment (field-independent basis, Debye):
    X=             15.1431    Y=              8.9267    Z=             -2.7017  Tot=             17.7848
 Quadrupole moment (field-independent basis, Debye-Ang):
   XX=           -125.8010   YY=           -138.5520   ZZ=           -178.2820
   XY=             18.5102   XZ=             -2.7081   YZ=             -9.6809

 Normal termination of Gaussian 16 at Tue May 24 03:24:44 2022.
