 Gaussian 16, Revision C.01,
 Gaussian 16:  ES64L-G16RevC.01  3-Jul-2019

 -------------------------------------------------------------------
 # B3LYP/6-31G* guess=read geom=check nosymm integral(ultrafinegrid)
 -------------------------------------------------------------------

 ------------------------------------------------------
 Candidate Structure: Conf:883 Charge calc in gas phase
 ------------------------------------------------------
 Structure from the checkpoint file:  "conf-883.chk"
 Charge =  1 Multiplicity = 1

                          Input orientation:
 ---------------------------------------------------------------------
 Center     Atomic      Atomic             Coordinates (Angstroms)
 Number     Number       Type             X           Y           Z
 ---------------------------------------------------------------------
      1          7           0        0.510531   -4.801016    0.873516
      2          1           0        1.222814   -3.997925    0.729426
      3          1           0        0.906555   -5.595907    1.378674
      4          1           0        0.176857   -5.127800   -0.037485
      5          6           0       -0.556865   -4.040608    1.642099
      6          1           0       -0.373524   -4.270701    2.696606
      7          6           0       -0.141707   -2.560898    1.401917
      8          6           0       -2.003389   -4.402029    1.244150
      9          1           0       -1.990404   -5.201587    0.490655
     10          1           0       -2.453911   -3.531440    0.759385
     11          8           0        1.042891   -2.390384    0.961818
     12          6           0       -2.884731   -4.883508    2.407348
     13          1           0       -2.492368   -5.815317    2.829418
     14          1           0       -3.872981   -5.138927    2.006407
     15          6           0       -3.157015   -3.962940    3.615356
     16          8           0       -3.687142   -4.434897    4.593669
     17          8           0       -2.844141   -2.663489    3.554143
     18          7           0       -1.045295   -1.683298    1.728622
     19          1           0       -2.317132   -2.359653    2.763013
     20          6           0       -0.685680   -0.286505    1.534487
     21          1           0       -1.347154    0.299836    2.189030
     22          6           0        0.696791    0.014704    2.118501
     23          6           0       -0.939741    0.147855    0.069023
     24          1           0       -0.334544   -0.489249   -0.585022
     25          1           0       -1.987216   -0.116792   -0.120027
     26          8           0        0.896543   -0.534462    3.289157
     27          6           0       -0.674291    1.607409   -0.241886
     28          6           0       -1.180966    2.648653    0.559603
     29          1           0       -1.867296    2.423567    1.373413
     30          6           0        0.142377    1.960374   -1.326608
     31          1           0        0.499100    1.184336   -2.001580
     32          6           0       -0.795460    3.968712    0.358907
     33          1           0       -1.150839    4.762455    1.008449
     34          6           0        0.514354    3.285183   -1.554171
     35          1           0        1.147909    3.539782   -2.398858
     36          8           0        0.585624    5.553407   -0.740194
     37          6           0        0.115264    4.293196   -0.662745
     38          7           0        1.573926    0.842713    1.590196
     39          1           0        1.281809    1.310213    0.726860
     40          6           0        2.943187    1.119262    2.095896
     41          1           0        3.325040    0.168911    2.489467
     42          6           0        2.901287    2.100853    3.283528
     43          6           0        3.900575    1.614379    0.999356
     44          1           0        4.835299    1.855010    1.519025
     45          1           0        4.122028    0.770349    0.335889
     46          8           0        3.363846    3.206114    3.326657
     47          6           0        3.438054    2.827109    0.168998
     48          1           0        2.895348    3.539733    0.798023
     49          1           0        2.738718    2.492514   -0.602044
     50          6           0        4.622468    3.538314   -0.507443
     51          1           0        5.196458    4.088523    0.251683
     52          1           0        5.310344    2.788521   -0.921681
     53          6           0        4.257892    4.478190   -1.663609
     54          1           0        5.195025    4.863414   -2.090774
     55          1           0        3.759953    3.907640   -2.457313
     56          7           0        3.348915    5.583336   -1.274285
     57          1           0        3.371568    6.294756   -2.006146
     58          1           0        3.714552    6.048268   -0.441623
     59          1           0        1.537449    5.524206   -1.051063
     60          8           0        2.278174    1.506524    4.346936
     61          1           0        1.550545   -0.039195    3.840068
     62          1           0        2.251279    2.131512    5.098798
 ---------------------------------------------------------------------

 SCF Done:  E(RB3LYP) =  -1526.15365648     A.U. after    1 cycles

 Alpha  occ. eigenvalues --  -19.35146 -19.34651 -19.28897 -19.23675 -19.23471
 Alpha  occ. eigenvalues --  -19.22950 -19.18218 -14.57396 -14.54115 -14.43455
 Alpha  occ. eigenvalues --  -14.41684 -10.47406 -10.46850 -10.39596 -10.38509
 Alpha  occ. eigenvalues --  -10.37771 -10.37763 -10.35673 -10.33191 -10.31822
 Alpha  occ. eigenvalues --  -10.31570 -10.31281 -10.29952 -10.29153 -10.29043
 Alpha  occ. eigenvalues --  -10.28942 -10.28918 -10.28685 -10.28497 -10.27565
 Alpha  occ. eigenvalues --  -10.27332  -1.25917  -1.24641  -1.16737  -1.15262
 Alpha  occ. eigenvalues --   -1.14640  -1.11794  -1.10798  -1.10432  -1.06471
 Alpha  occ. eigenvalues --   -1.01059  -0.99157  -0.94940  -0.94168  -0.91758
 Alpha  occ. eigenvalues --   -0.88884  -0.87657  -0.84486  -0.83822  -0.82546
 Alpha  occ. eigenvalues --   -0.82134  -0.79270  -0.76938  -0.75468  -0.74999
 Alpha  occ. eigenvalues --   -0.73507  -0.72565  -0.72039  -0.70445  -0.69106
 Alpha  occ. eigenvalues --   -0.68797  -0.68121  -0.67295  -0.67021  -0.64950
 Alpha  occ. eigenvalues --   -0.64407  -0.63020  -0.62153  -0.61639  -0.60246
 Alpha  occ. eigenvalues --   -0.59810  -0.58939  -0.58488  -0.57576  -0.56910
 Alpha  occ. eigenvalues --   -0.56579  -0.56349  -0.55925  -0.55773  -0.54891
 Alpha  occ. eigenvalues --   -0.54700  -0.54269  -0.53525  -0.53355  -0.52263
 Alpha  occ. eigenvalues --   -0.52090  -0.51656  -0.51018  -0.50709  -0.50506
 Alpha  occ. eigenvalues --   -0.49305  -0.49084  -0.48752  -0.48473  -0.47802
 Alpha  occ. eigenvalues --   -0.47163  -0.46914  -0.46768  -0.46097  -0.45536
 Alpha  occ. eigenvalues --   -0.45006  -0.44855  -0.44391  -0.44125  -0.43658
 Alpha  occ. eigenvalues --   -0.42501  -0.42329  -0.41295  -0.39573  -0.39365
 Alpha  occ. eigenvalues --   -0.36837  -0.36203  -0.35780  -0.34607  -0.34408
 Alpha  occ. eigenvalues --   -0.32250  -0.30344
 Alpha virt. eigenvalues --   -0.16338  -0.14016  -0.10213  -0.09937  -0.08730
 Alpha virt. eigenvalues --   -0.07504  -0.06504  -0.05034  -0.04667  -0.03116
 Alpha virt. eigenvalues --   -0.02597  -0.02210  -0.01206  -0.00263   0.00138

 Mulliken charges:
               1
     1  N   -0.764895
     2  H    0.423791
     3  H    0.404723
     4  H    0.399752
     5  C   -0.093927
     6  H    0.221020
     7  C    0.612125
     8  C   -0.325673
     9  H    0.154515
    10  H    0.203891
    11  O   -0.644941
    12  C   -0.377578
    13  H    0.178144
    14  H    0.204308
    15  C    0.571760
    16  O   -0.442365
    17  O   -0.606641
    18  N   -0.558733
    19  H    0.448805
    20  C   -0.031206
    21  H    0.198797
    22  C    0.644079
    23  C   -0.360869
    24  H    0.168891
    25  H    0.190205
    26  O   -0.553714
    27  C    0.087369
    28  C   -0.194795
    29  H    0.142564
    30  C   -0.218492
    31  H    0.139366
    32  C   -0.158549
    33  H    0.160059
    34  C   -0.185287
    35  H    0.145154
    36  O   -0.679205
    37  C    0.358671
    38  N   -0.597220
    39  H    0.414381
    40  C   -0.105647
    41  H    0.212452
    42  C    0.637944
    43  C   -0.297231
    44  H    0.184876
    45  H    0.173412
    46  O   -0.397302
    47  C   -0.284550
    48  H    0.173881
    49  H    0.154718
    50  C   -0.288505
    51  H    0.157981
    52  H    0.154954
    53  C   -0.137096
    54  H    0.154422
    55  H    0.156017
    56  N   -0.765753
    57  H    0.337302
    58  H    0.329296
    59  H    0.458330
    60  O   -0.614231
    61  H    0.473683
    62  H    0.452767
 Sum of Mulliken charges =   1.00000

 Dipole moment (field-independent basis, Debye):
    X=             13.3413    Y=             -3.4125    Z=              1.7067  Tot=             13.8762
 Quadrupole moment (field-independent basis, Debye-Ang):
   XX=           -154.4727   YY=            -91.1337   ZZ=           -171.0004
   XY=             15.8677   XZ=             27.8935   YZ=             10.8073

 Normal termination of Gaussian 16 at Tue May 24 03:26:08 2022.
