 Gaussian 16, Revision C.01,
 Gaussian 16:  ES64L-G16RevC.01  3-Jul-2019

 -------------------------------------------------------------------
 # B3LYP/6-31G* guess=read geom=check nosymm integral(ultrafinegrid)
 -------------------------------------------------------------------

 ------------------------------------------------------
 Candidate Structure: Conf:586 Charge calc in gas phase
 ------------------------------------------------------
 Structure from the checkpoint file:  "conf-586.chk"
 Charge =  1 Multiplicity = 1

                          Input orientation:
 ---------------------------------------------------------------------
 Center     Atomic      Atomic             Coordinates (Angstroms)
 Number     Number       Type             X           Y           Z
 ---------------------------------------------------------------------
      1          7           0        0.360587   -3.057988    3.475107
      2          1           0        0.965345   -2.419082    4.004679
      3          1           0        0.044577   -3.832124    4.060232
      4          1           0        0.911414   -3.423749    2.686241
      5          6           0       -0.806664   -2.329741    2.844001
      6          1           0       -1.223652   -1.666376    3.605839
      7          6           0       -0.190980   -1.546390    1.671657
      8          6           0       -1.817218   -3.375271    2.342121
      9          1           0       -2.580601   -2.830837    1.770385
     10          1           0       -2.340852   -3.832478    3.187423
     11          8           0        0.866733   -1.892497    1.159041
     12          6           0       -1.204131   -4.465233    1.462167
     13          1           0       -0.602440   -5.158054    2.062283
     14          1           0       -0.587952   -4.035444    0.671472
     15          6           0       -2.408242   -5.290405    0.808133
     16          8           0       -2.534004   -5.101834   -0.416892
     17          8           0       -3.075517   -5.927646    1.629412
     18          7           0       -0.864575   -0.441382    1.265114
     19          1           0       -1.788059   -0.267063    1.631888
     20          6           0       -0.521551    0.220299    0.000105
     21          1           0       -1.085981    1.160288    0.008231
     22          6           0        0.971330    0.596928   -0.033967
     23          6           0       -0.982671   -0.574717   -1.236884
     24          1           0       -0.605786   -0.038478   -2.113368
     25          1           0       -0.516937   -1.561279   -1.242865
     26          8           0        1.624765    0.635891   -1.061510
     27          6           0       -2.480854   -0.649376   -1.235524
     28          6           0       -3.168901   -1.853189   -0.999583
     29          1           0       -2.643429   -2.801955   -0.903448
     30          6           0       -3.229688    0.537603   -1.420640
     31          1           0       -2.700476    1.464928   -1.635951
     32          6           0       -4.540092   -1.882237   -0.913588
     33          1           0       -5.048293   -2.818618   -0.725364
     34          6           0       -4.596811    0.546158   -1.345542
     35          1           0       -5.173956    1.452589   -1.492276
     36          8           0       -6.575121   -0.679237   -0.963856
     37          6           0       -5.339836   -0.677548   -1.065584
     38          7           0        1.498875    0.966499    1.176732
     39          1           0        0.937732    0.844731    2.004371
     40          6           0        2.930807    1.101219    1.349841
     41          1           0        3.399744    0.686375    0.450680
     42          6           0        3.268384    0.237823    2.527747
     43          6           0        3.356479    2.598133    1.456530
     44          1           0        2.822957    3.046979    2.300072
     45          1           0        4.427295    2.664100    1.681313
     46          8           0        2.719147   -0.050047    3.553994
     47          6           0        3.069962    3.328002    0.143538
     48          1           0        1.996727    3.306284   -0.062731
     49          1           0        3.533657    2.775203   -0.679211
     50          6           0        3.566308    4.780609    0.068676
     51          1           0        4.640827    4.826802    0.281802
     52          1           0        3.426204    5.130418   -0.960707
     53          6           0        2.815086    5.709777    1.003423
     54          1           0        1.737225    5.687371    0.824734
     55          1           0        3.002692    5.503953    2.059088
     56          7           0        3.239921    7.156762    0.781279
     57          1           0        2.736802    7.805058    1.393227
     58          1           0        3.063516    7.441830   -0.185270
     59          1           0        4.240462    7.279879    0.953531
     60          8           0        4.958479    0.154161    2.650273
     61          1           0        5.520463    0.940918    2.579285
     62          1           0        5.109739   -0.223355    3.537194
 ---------------------------------------------------------------------

 SCF Done:  E(RB3LYP) =  -1525.87254356     A.U. after    1 cycles

 Alpha  occ. eigenvalues --  -19.39230 -19.29552 -19.24424 -19.22630 -19.12735
 Alpha  occ. eigenvalues --  -19.06563 -19.05891 -14.67509 -14.58195 -14.48227
 Alpha  occ. eigenvalues --  -14.47682 -10.44876 -10.42500 -10.41324 -10.39851
 Alpha  occ. eigenvalues --  -10.38093 -10.37717 -10.37289 -10.34625 -10.34330
 Alpha  occ. eigenvalues --  -10.33839 -10.26983 -10.26509 -10.25790 -10.25138
 Alpha  occ. eigenvalues --  -10.24197 -10.23359 -10.21928 -10.21437 -10.21075
 Alpha  occ. eigenvalues --  -10.20875  -1.25735  -1.21836  -1.18996  -1.17189
 Alpha  occ. eigenvalues --   -1.14869  -1.12420  -1.05397  -1.04145  -1.02195
 Alpha  occ. eigenvalues --   -0.99898  -0.98994  -0.93128  -0.91653  -0.90588
 Alpha  occ. eigenvalues --   -0.88784  -0.87932  -0.85069  -0.82858  -0.80347
 Alpha  occ. eigenvalues --   -0.79655  -0.79398  -0.78123  -0.77445  -0.76436
 Alpha  occ. eigenvalues --   -0.74273  -0.73109  -0.72470  -0.71645  -0.71093
 Alpha  occ. eigenvalues --   -0.70908  -0.70085  -0.68513  -0.67148  -0.65655
 Alpha  occ. eigenvalues --   -0.64979  -0.63889  -0.63146  -0.62686  -0.60895
 Alpha  occ. eigenvalues --   -0.60549  -0.60022  -0.59188  -0.59013  -0.58385
 Alpha  occ. eigenvalues --   -0.57248  -0.56754  -0.55778  -0.54887  -0.54320
 Alpha  occ. eigenvalues --   -0.52811  -0.52491  -0.52277  -0.51615  -0.50961
 Alpha  occ. eigenvalues --   -0.50510  -0.50274  -0.49993  -0.49612  -0.49152
 Alpha  occ. eigenvalues --   -0.48150  -0.48054  -0.46824  -0.45860  -0.45357
 Alpha  occ. eigenvalues --   -0.45065  -0.44092  -0.43117  -0.42418  -0.41723
 Alpha  occ. eigenvalues --   -0.41389  -0.39888  -0.38908  -0.38511  -0.38063
 Alpha  occ. eigenvalues --   -0.37536  -0.37332  -0.36209  -0.36031  -0.34932
 Alpha  occ. eigenvalues --   -0.34131  -0.28981  -0.24913  -0.21997  -0.20542
 Alpha  occ. eigenvalues --   -0.20398  -0.20048
 Alpha virt. eigenvalues --   -0.18734  -0.17785  -0.13222  -0.11172  -0.11152
 Alpha virt. eigenvalues --   -0.10428  -0.09775  -0.08965  -0.08413  -0.06422
 Alpha virt. eigenvalues --   -0.05958  -0.05328  -0.04435  -0.03564  -0.03241

 Mulliken charges:
               1
     1  N   -0.716267
     2  H    0.399699
     3  H    0.418645
     4  H    0.426440
     5  C   -0.149314
     6  H    0.184966
     7  C    0.658786
     8  C   -0.296555
     9  H    0.195814
    10  H    0.188270
    11  O   -0.517844
    12  C   -0.395174
    13  H    0.100369
    14  H    0.150234
    15  C    0.575703
    16  O   -0.553406
    17  O   -0.568690
    18  N   -0.630354
    19  H    0.361452
    20  C   -0.075747
    21  H    0.177714
    22  C    0.645009
    23  C   -0.348675
    24  H    0.179766
    25  H    0.197594
    26  O   -0.511893
    27  C    0.133514
    28  C   -0.225141
    29  H    0.202873
    30  C   -0.185041
    31  H    0.096260
    32  C   -0.204978
    33  H    0.179309
    34  C   -0.184626
    35  H    0.131004
    36  O   -0.518476
    37  C    0.416130
    38  N   -0.607269
    39  H    0.337568
    40  C   -0.016027
    41  H    0.218610
    42  C    0.417421
    43  C   -0.281883
    44  H    0.147107
    45  H    0.112741
    46  O   -0.443277
    47  C   -0.272059
    48  H    0.180119
    49  H    0.204044
    50  C   -0.299231
    51  H    0.167608
    52  H    0.179894
    53  C   -0.203506
    54  H    0.231322
    55  H    0.222413
    56  N   -0.716393
    57  H    0.425947
    58  H    0.421963
    59  H    0.419574
    60  O   -0.642790
    61  H    0.409510
    62  H    0.449223
 Sum of Mulliken charges =   1.00000

 Dipole moment (field-independent basis, Debye):
    X=             35.6956    Y=             40.9486    Z=             19.2404  Tot=             57.6295
 Quadrupole moment (field-independent basis, Debye-Ang):
   XX=           -161.3477   YY=            -31.9946   ZZ=           -129.0460
   XY=             47.7560   XZ=             35.9986   YZ=              2.1021

 Normal termination of Gaussian 16 at Tue May 24 03:26:07 2022.
