 Gaussian 16, Revision C.01,
 Gaussian 16:  ES64L-G16RevC.01  3-Jul-2019

 -------------------------------------------------------------------
 # B3LYP/6-31G* guess=read geom=check nosymm integral(ultrafinegrid)
 -------------------------------------------------------------------

 ------------------------------------------------------
 Candidate Structure: Conf:472 Charge calc in gas phase
 ------------------------------------------------------
 Structure from the checkpoint file:  "conf-472.chk"
 Charge =  1 Multiplicity = 1

                          Input orientation:
 ---------------------------------------------------------------------
 Center     Atomic      Atomic             Coordinates (Angstroms)
 Number     Number       Type             X           Y           Z
 ---------------------------------------------------------------------
      1          7           0       -0.210894   -1.940817    4.031435
      2          1           0        0.218882   -1.216607    4.614875
      3          1           0       -0.760641   -2.588622    4.619943
      4          1           0        0.542976   -2.456944    3.530411
      5          6           0       -1.109335   -1.389589    2.945284
      6          1           0       -1.644817   -0.538000    3.370743
      7          6           0       -0.199452   -1.047818    1.765102
      8          6           0       -2.069311   -2.516829    2.494232
      9          1           0       -1.498103   -3.276271    1.951578
     10          1           0       -2.764014   -2.091197    1.762247
     11          8           0        0.898234   -1.616320    1.670738
     12          6           0       -2.848949   -3.233845    3.579890
     13          1           0       -3.474124   -2.576103    4.189446
     14          1           0       -2.192654   -3.831251    4.236656
     15          6           0       -3.775057   -4.354261    2.827907
     16          8           0       -4.905947   -4.431411    3.321403
     17          8           0       -3.183635   -4.926418    1.893448
     18          7           0       -0.724494   -0.179352    0.865590
     19          1           0       -1.705843    0.033041    1.010977
     20          6           0       -0.353518   -0.013366   -0.563943
     21          1           0       -0.827884    0.926407   -0.862802
     22          6           0        1.157731    0.173150   -0.789000
     23          6           0       -0.899453   -1.174157   -1.425835
     24          1           0       -0.632175   -0.942358   -2.466713
     25          1           0       -0.361945   -2.086261   -1.150694
     26          8           0        1.759457   -0.493319   -1.636423
     27          6           0       -2.386395   -1.343006   -1.282050
     28          6           0       -2.963115   -2.463835   -0.636457
     29          1           0       -2.333267   -3.275893   -0.271174
     30          6           0       -3.244491   -0.321910   -1.769379
     31          1           0       -2.806396    0.527995   -2.295142
     32          6           0       -4.328236   -2.551188   -0.456529
     33          1           0       -4.776017   -3.399424    0.049487
     34          6           0       -4.607247   -0.384641   -1.611596
     35          1           0       -5.265862    0.390128   -1.991237
     36          8           0       -6.469249   -1.575122   -0.762618
     37          6           0       -5.236634   -1.511499   -0.928803
     38          7           0        1.765717    1.136159   -0.036617
     39          1           0        1.240093    1.475369    0.773006
     40          6           0        3.248965    1.105275    0.150723
     41          1           0        3.581010    0.070772   -0.019699
     42          6           0        3.472052    1.258547    1.662618
     43          6           0        3.975413    2.040230   -0.820074
     44          1           0        3.588028    3.044781   -0.687543
     45          1           0        5.041390    2.054275   -0.557979
     46          8           0        4.161683    0.668085    2.439470
     47          6           0        3.822896    1.678482   -2.311327
     48          1           0        4.257186    2.501589   -2.891548
     49          1           0        2.753412    1.657426   -2.547780
     50          6           0        4.495489    0.361039   -2.720118
     51          1           0        5.585360    0.480839   -2.728970
     52          1           0        4.274576   -0.424884   -1.991927
     53          6           0        4.100764   -0.153659   -4.101796
     54          1           0        4.341157    0.546607   -4.905253
     55          1           0        4.595432   -1.103946   -4.312310
     56          7           0        2.602936   -0.420691   -4.184862
     57          1           0        2.389235   -1.186529   -4.830759
     58          1           0        2.098876    0.405162   -4.520760
     59          1           0        2.203118   -0.638083   -3.234719
     60          8           0        3.405435    3.262302    2.373112
     61          1           0        3.858910    3.983560    1.991135
     62          1           0        3.814613    3.139468    3.248341
 ---------------------------------------------------------------------

 SCF Done:  E(RB3LYP) =  -1525.91914078     A.U. after    3 cycles

 Alpha  occ. eigenvalues --  -19.31078 -19.30402 -19.28744 -19.26690 -19.15981
 Alpha  occ. eigenvalues --  -19.10508 -19.10257 -14.61627 -14.59195 -14.51214
 Alpha  occ. eigenvalues --  -14.50888 -10.45111 -10.43781 -10.41366 -10.41260
 Alpha  occ. eigenvalues --  -10.39314 -10.38722 -10.37928 -10.34668 -10.33983
 Alpha  occ. eigenvalues --  -10.33819 -10.30521 -10.29713 -10.29055 -10.28352
 Alpha  occ. eigenvalues --  -10.28044 -10.26774 -10.25733 -10.25183 -10.24362
 Alpha  occ. eigenvalues --  -10.24308  -1.20241  -1.19936  -1.18342  -1.16722
 Alpha  occ. eigenvalues --   -1.16183  -1.13212  -1.07915  -1.06618  -1.04913
 Alpha  occ. eigenvalues --   -1.03540  -0.96440  -0.95731  -0.93732  -0.92235
 Alpha  occ. eigenvalues --   -0.91111  -0.88475  -0.86318  -0.82255  -0.81454
 Alpha  occ. eigenvalues --   -0.81052  -0.79583  -0.75472  -0.75276  -0.74597
 Alpha  occ. eigenvalues --   -0.74366  -0.73001  -0.72493  -0.72158  -0.71926
 Alpha  occ. eigenvalues --   -0.69614  -0.68738  -0.67921  -0.67511  -0.65957
 Alpha  occ. eigenvalues --   -0.65809  -0.64012  -0.63627  -0.62946  -0.61768
 Alpha  occ. eigenvalues --   -0.61016  -0.60820  -0.59782  -0.58933  -0.57571
 Alpha  occ. eigenvalues --   -0.57299  -0.56819  -0.56079  -0.55285  -0.54958
 Alpha  occ. eigenvalues --   -0.54076  -0.54014  -0.53696  -0.53348  -0.52713
 Alpha  occ. eigenvalues --   -0.51854  -0.51487  -0.51375  -0.51130  -0.50307
 Alpha  occ. eigenvalues --   -0.49489  -0.49090  -0.48810  -0.48165  -0.48086
 Alpha  occ. eigenvalues --   -0.47993  -0.46054  -0.45705  -0.44600  -0.44386
 Alpha  occ. eigenvalues --   -0.43764  -0.42600  -0.42450  -0.42203  -0.41670
 Alpha  occ. eigenvalues --   -0.40947  -0.40770  -0.40091  -0.39655  -0.38329
 Alpha  occ. eigenvalues --   -0.37462  -0.32190  -0.27902  -0.25781  -0.24655
 Alpha  occ. eigenvalues --   -0.23585  -0.23283
 Alpha virt. eigenvalues --   -0.21936  -0.15398  -0.13435  -0.12649  -0.12607
 Alpha virt. eigenvalues --   -0.09583  -0.08095  -0.06756  -0.06261  -0.05433
 Alpha virt. eigenvalues --   -0.04808  -0.04675  -0.03649  -0.03432  -0.02772

 Mulliken charges:
               1
     1  N   -0.724160
     2  H    0.408013
     3  H    0.403436
     4  H    0.421955
     5  C   -0.143438
     6  H    0.200276
     7  C    0.640565
     8  C   -0.300865
     9  H    0.195989
    10  H    0.197939
    11  O   -0.536149
    12  C   -0.403936
    13  H    0.155205
    14  H    0.124716
    15  C    0.608587
    16  O   -0.515825
    17  O   -0.575761
    18  N   -0.615437
    19  H    0.368618
    20  C   -0.082174
    21  H    0.195847
    22  C    0.652175
    23  C   -0.339085
    24  H    0.131347
    25  H    0.185565
    26  O   -0.570708
    27  C    0.133099
    28  C   -0.220298
    29  H    0.173638
    30  C   -0.189211
    31  H    0.104043
    32  C   -0.191567
    33  H    0.213376
    34  C   -0.177776
    35  H    0.150693
    36  O   -0.493473
    37  C    0.417196
    38  N   -0.581632
    39  H    0.342027
    40  C   -0.039461
    41  H    0.212155
    42  C    0.331161
    43  C   -0.270001
    44  H    0.168142
    45  H    0.172713
    46  O   -0.334920
    47  C   -0.277099
    48  H    0.172151
    49  H    0.130501
    50  C   -0.293275
    51  H    0.193121
    52  H    0.187859
    53  C   -0.195585
    54  H    0.215358
    55  H    0.223706
    56  N   -0.768098
    57  H    0.419511
    58  H    0.409966
    59  H    0.463698
    60  O   -0.726212
    61  H    0.414632
    62  H    0.427168
 Sum of Mulliken charges =   1.00000

 Dipole moment (field-independent basis, Debye):
    X=             28.3041    Y=             13.8682    Z=             -7.1967  Tot=             32.3302
 Quadrupole moment (field-independent basis, Debye-Ang):
   XX=           -209.9839   YY=           -209.7452   ZZ=            -68.9262
   XY=            -37.8771   XZ=            -17.7851   YZ=             20.2826

 Normal termination of Gaussian 16 at Tue May 24 03:26:44 2022.
