 Gaussian 16, Revision C.01,
 Gaussian 16:  ES64L-G16RevC.01  3-Jul-2019

 -------------------------------------------------------------------
 # B3LYP/6-31G* guess=read geom=check nosymm integral(ultrafinegrid)
 -------------------------------------------------------------------

 ------------------------------------------------------
 Candidate Structure: Conf:879 Charge calc in gas phase
 ------------------------------------------------------
 Structure from the checkpoint file:  "conf-879.chk"
 Charge =  1 Multiplicity = 1

                          Input orientation:
 ---------------------------------------------------------------------
 Center     Atomic      Atomic             Coordinates (Angstroms)
 Number     Number       Type             X           Y           Z
 ---------------------------------------------------------------------
      1          7           0       -1.433796    0.022888    4.343257
      2          1           0       -2.433230    0.220381    4.221369
      3          1           0       -1.286844   -0.430962    5.251889
      4          1           0       -0.934456    0.919610    4.349981
      5          6           0       -0.898446   -0.825868    3.240783
      6          1           0       -1.619800   -1.618640    3.017834
      7          6           0       -0.737912   -0.004831    1.971372
      8          6           0        0.440803   -1.470974    3.667635
      9          1           0        0.888732   -1.972969    2.802831
     10          1           0        0.239179   -2.243234    4.419722
     11          8           0       -0.565365    1.252422    2.021534
     12          6           0        1.445056   -0.477896    4.257224
     13          1           0        1.055051   -0.057574    5.195365
     14          1           0        1.685522    0.319795    3.548878
     15          6           0        2.753865   -1.276511    4.579248
     16          8           0        2.739683   -1.868251    5.676716
     17          8           0        3.612891   -1.233798    3.673372
     18          7           0       -0.733049   -0.709741    0.835006
     19          1           0       -0.586142   -1.718177    0.922485
     20          6           0       -0.222135   -0.177550   -0.428229
     21          1           0       -0.779135    0.736532   -0.663044
     22          6           0        1.231868    0.219915   -0.204803
     23          6           0       -0.455004   -1.237090   -1.547551
     24          1           0       -1.494316   -1.132538   -1.873002
     25          1           0        0.182101   -0.986363   -2.401865
     26          8           0        2.003188   -0.455440    0.459232
     27          6           0       -0.216495   -2.646542   -1.090347
     28          6           0        1.089673   -3.164973   -0.906147
     29          1           0        1.942298   -2.535140   -1.146950
     30          6           0       -1.318262   -3.483156   -0.784349
     31          1           0       -2.323206   -3.091142   -0.937176
     32          6           0        1.300089   -4.425860   -0.403945
     33          1           0        2.299674   -4.816616   -0.252832
     34          6           0       -1.149876   -4.748732   -0.276293
     35          1           0       -1.993627   -5.384548   -0.030854
     36          8           0        0.355520   -6.443271    0.414978
     37          6           0        0.184152   -5.298931   -0.050637
     38          7           0        1.603994    1.451607   -0.706085
     39          1           0        0.904891    2.050844   -1.121745
     40          6           0        2.805325    2.084166   -0.180504
     41          1           0        3.415496    1.260541    0.208586
     42          6           0        2.451645    2.954128    1.002230
     43          6           0        3.597373    2.845708   -1.248333
     44          1           0        3.599808    2.218833   -2.145070
     45          1           0        3.079949    3.775415   -1.508147
     46          8           0        2.840933    4.060639    1.292716
     47          6           0        5.042794    3.128419   -0.833508
     48          1           0        5.513904    2.180652   -0.542007
     49          1           0        5.045564    3.771914    0.053728
     50          6           0        5.858299    3.762098   -1.964094
     51          1           0        5.802902    3.128266   -2.855827
     52          1           0        5.419600    4.730349   -2.239236
     53          6           0        7.334019    3.946742   -1.628770
     54          1           0        7.760491    2.995639   -1.297262
     55          1           0        7.896430    4.264485   -2.509498
     56          7           0        7.548694    4.956671   -0.536107
     57          1           0        8.539188    5.051568   -0.287707
     58          1           0        7.044134    4.687224    0.315271
     59          1           0        7.204608    5.882809   -0.810998
     60          8           0        1.528190    2.303238    1.946025
     61          1           0        0.584248    1.918774    1.638550
     62          1           0        1.349558    2.995083    2.617578
 ---------------------------------------------------------------------

 SCF Done:  E(RB3LYP) =  -1525.90763565     A.U. after    3 cycles

 Alpha  occ. eigenvalues --  -19.40720 -19.30532 -19.28681 -19.22815 -19.09671
 Alpha  occ. eigenvalues --  -19.06548 -19.06283 -14.67157 -14.60795 -14.49356
 Alpha  occ. eigenvalues --  -14.49180 -10.46806 -10.43841 -10.43712 -10.39844
 Alpha  occ. eigenvalues --  -10.38697 -10.38307 -10.37010 -10.34928 -10.34785
 Alpha  occ. eigenvalues --  -10.33948 -10.28173 -10.27688 -10.25620 -10.24704
 Alpha  occ. eigenvalues --  -10.22992 -10.22744 -10.22317 -10.21755 -10.19967
 Alpha  occ. eigenvalues --  -10.19476  -1.29079  -1.21506  -1.19908  -1.18737
 Alpha  occ. eigenvalues --   -1.15515  -1.15064  -1.06404  -1.05752  -0.99987
 Alpha  occ. eigenvalues --   -0.99190  -0.98509  -0.93726  -0.92179  -0.91525
 Alpha  occ. eigenvalues --   -0.89087  -0.88052  -0.85180  -0.82991  -0.81515
 Alpha  occ. eigenvalues --   -0.80136  -0.79428  -0.78463  -0.77991  -0.76910
 Alpha  occ. eigenvalues --   -0.76486  -0.74385  -0.73916  -0.73291  -0.72652
 Alpha  occ. eigenvalues --   -0.71038  -0.69668  -0.69603  -0.69241  -0.67713
 Alpha  occ. eigenvalues --   -0.65141  -0.64004  -0.63059  -0.63002  -0.62734
 Alpha  occ. eigenvalues --   -0.61587  -0.61316  -0.60138  -0.59617  -0.59131
 Alpha  occ. eigenvalues --   -0.58349  -0.57343  -0.56867  -0.55033  -0.54304
 Alpha  occ. eigenvalues --   -0.53325  -0.53283  -0.52303  -0.51670  -0.51488
 Alpha  occ. eigenvalues --   -0.51302  -0.50639  -0.50383  -0.49669  -0.49362
 Alpha  occ. eigenvalues --   -0.49196  -0.48075  -0.47249  -0.46787  -0.45290
 Alpha  occ. eigenvalues --   -0.44838  -0.44700  -0.44224  -0.43737  -0.41856
 Alpha  occ. eigenvalues --   -0.41260  -0.40739  -0.40041  -0.39721  -0.38531
 Alpha  occ. eigenvalues --   -0.37501  -0.36608  -0.36551  -0.36110  -0.35187
 Alpha  occ. eigenvalues --   -0.33064  -0.27935  -0.22533  -0.22111  -0.21333
 Alpha  occ. eigenvalues --   -0.20606  -0.19482
 Alpha virt. eigenvalues --   -0.17649  -0.17023  -0.14498  -0.10786  -0.10748
 Alpha virt. eigenvalues --   -0.10495  -0.09861  -0.08940  -0.07463  -0.05074
 Alpha virt. eigenvalues --   -0.04888  -0.04436  -0.04105  -0.03983  -0.03496

 Mulliken charges:
               1
     1  N   -0.703672
     2  H    0.408231
     3  H    0.429518
     4  H    0.403059
     5  C   -0.152538
     6  H    0.222770
     7  C    0.661734
     8  C   -0.307413
     9  H    0.231269
    10  H    0.196499
    11  O   -0.665411
    12  C   -0.367516
    13  H    0.084067
    14  H    0.109324
    15  C    0.559570
    16  O   -0.578424
    17  O   -0.584389
    18  N   -0.548049
    19  H    0.389992
    20  C   -0.072749
    21  H    0.147016
    22  C    0.587026
    23  C   -0.366459
    24  H    0.169041
    25  H    0.164630
    26  O   -0.460514
    27  C    0.062059
    28  C   -0.152776
    29  H    0.108966
    30  C   -0.193380
    31  H    0.100004
    32  C   -0.202671
    33  H    0.135190
    34  C   -0.201164
    35  H    0.125273
    36  O   -0.559316
    37  C    0.415759
    38  N   -0.632998
    39  H    0.335336
    40  C   -0.049144
    41  H    0.258223
    42  C    0.551608
    43  C   -0.278186
    44  H    0.189126
    45  H    0.162670
    46  O   -0.433122
    47  C   -0.303485
    48  H    0.183250
    49  H    0.148035
    50  C   -0.296329
    51  H    0.213140
    52  H    0.171403
    53  C   -0.222883
    54  H    0.240856
    55  H    0.237750
    56  N   -0.723101
    57  H    0.439519
    58  H    0.434848
    59  H    0.429774
    60  O   -0.611565
    61  H    0.498084
    62  H    0.462634
 Sum of Mulliken charges =   1.00000

 Dipole moment (field-independent basis, Debye):
    X=             17.6146    Y=             40.1787    Z=             -4.7794  Tot=             44.1298
 Quadrupole moment (field-independent basis, Debye-Ang):
   XX=             50.0635   YY=           -145.5792   ZZ=           -178.8539
   XY=            188.9656   XZ=           -103.9463   YZ=             14.2787

 Normal termination of Gaussian 16 at Tue May 24 03:26:33 2022.
