 Gaussian 16, Revision C.01,
 Gaussian 16:  ES64L-G16RevC.01  3-Jul-2019

 -------------------------------------------------------------------
 # B3LYP/6-31G* guess=read geom=check nosymm integral(ultrafinegrid)
 -------------------------------------------------------------------

 ------------------------------------------------------
 Candidate Structure: Conf:156 Charge calc in gas phase
 ------------------------------------------------------
 Structure from the checkpoint file:  "conf-156.chk"
 Charge =  1 Multiplicity = 1

                          Input orientation:
 ---------------------------------------------------------------------
 Center     Atomic      Atomic             Coordinates (Angstroms)
 Number     Number       Type             X           Y           Z
 ---------------------------------------------------------------------
      1          7           0       -1.105328   -3.185607    3.663614
      2          1           0       -0.202625   -2.978291    4.094556
      3          1           0       -1.738353   -3.566542    4.363863
      4          1           0       -0.952040   -3.891478    2.939488
      5          6           0       -1.693473   -2.001758    3.004352
      6          1           0       -1.643571   -1.140130    3.677044
      7          6           0       -0.893117   -1.719310    1.738216
      8          6           0       -3.156710   -2.273299    2.648150
      9          1           0       -3.682769   -2.569533    3.561978
     10          1           0       -3.191077   -3.122951    1.962043
     11          8           0       -0.487790   -2.638594    1.038963
     12          6           0       -3.914162   -1.107509    2.019019
     13          1           0       -3.491759   -0.841147    1.046789
     14          1           0       -3.917212   -0.235860    2.676059
     15          6           0       -5.350789   -1.635128    1.826882
     16          8           0       -5.550867   -2.258857    0.770772
     17          8           0       -6.142521   -1.408795    2.759058
     18          7           0       -0.737391   -0.404143    1.444888
     19          1           0       -1.102284    0.265852    2.099503
     20          6           0       -0.097324    0.136575    0.251682
     21          1           0       -0.457055    1.167706    0.158264
     22          6           0        1.411926    0.190437    0.446137
     23          6           0       -0.466161   -0.621169   -1.035835
     24          1           0       -0.035047   -1.613964   -1.016106
     25          1           0       -1.551786   -0.737362   -1.026368
     26          8           0        2.071781   -0.800690    0.771232
     27          6           0       -0.032324    0.107425   -2.269326
     28          6           0       -0.608473    1.334757   -2.604939
     29          1           0       -1.366776    1.749163   -1.945930
     30          6           0        0.977147   -0.406674   -3.094188
     31          1           0        1.461301   -1.342867   -2.827096
     32          6           0       -0.232869    2.034143   -3.727246
     33          1           0       -0.637992    3.012624   -3.954879
     34          6           0        1.368664    0.237985   -4.243421
     35          1           0        2.147415   -0.158568   -4.882508
     36          8           0        1.190996    2.151633   -5.596646
     37          6           0        0.803244    1.519598   -4.604592
     38          7           0        2.011914    1.368730    0.177575
     39          1           0        1.439725    2.125453   -0.152905
     40          6           0        3.430591    1.435850   -0.184815
     41          1           0        3.670715    0.538134   -0.773786
     42          6           0        4.319991    1.344555    1.030964
     43          6           0        3.715045    2.674773   -1.029171
     44          1           0        3.414811    3.566217   -0.476491
     45          1           0        4.789216    2.744356   -1.190758
     46          8           0        5.424886    1.760912    1.153725
     47          6           0        2.990997    2.601080   -2.360875
     48          1           0        1.907082    2.570808   -2.187232
     49          1           0        3.242253    1.640102   -2.835585
     50          6           0        3.305800    3.735908   -3.321847
     51          1           0        4.391800    3.837072   -3.434397
     52          1           0        2.904939    3.502146   -4.312372
     53          6           0        2.735496    5.062889   -2.866290
     54          1           0        1.653760    4.966319   -2.739026
     55          1           0        3.157731    5.332344   -1.895839
     56          7           0        3.024264    6.155492   -3.829899
     57          1           0        2.634626    7.049491   -3.530806
     58          1           0        2.635926    5.940637   -4.746904
     59          1           0        4.028808    6.280383   -3.947336
     60          8           0        3.743545    0.571422    2.097799
     61          1           0        3.135355   -0.159942    1.685650
     62          1           0        4.487174    0.207448    2.620655
 ---------------------------------------------------------------------

 SCF Done:  E(RB3LYP) =  -1525.91209531     A.U. after    3 cycles

 Alpha  occ. eigenvalues --  -19.45557 -19.32646 -19.29952 -19.24660 -19.10249
 Alpha  occ. eigenvalues --  -19.06551 -19.06376 -14.65329 -14.61360 -14.52964
 Alpha  occ. eigenvalues --  -14.49428 -10.49323 -10.45188 -10.42171 -10.41527
 Alpha  occ. eigenvalues --  -10.41161 -10.38325 -10.36316 -10.34267 -10.33553
 Alpha  occ. eigenvalues --  -10.31715 -10.28319 -10.26825 -10.25824 -10.25085
 Alpha  occ. eigenvalues --  -10.23360 -10.22916 -10.22684 -10.22030 -10.21040
 Alpha  occ. eigenvalues --  -10.20273  -1.34453  -1.23058  -1.21754  -1.20231
 Alpha  occ. eigenvalues --   -1.18146  -1.15283  -1.10104  -1.06042  -1.01100
 Alpha  occ. eigenvalues --   -1.00483  -0.97326  -0.94801  -0.92395  -0.91483
 Alpha  occ. eigenvalues --   -0.90020  -0.88888  -0.86641  -0.83906  -0.82021
 Alpha  occ. eigenvalues --   -0.81153  -0.80222  -0.78904  -0.78402  -0.78342
 Alpha  occ. eigenvalues --   -0.77232  -0.76208  -0.75188  -0.74837  -0.72849
 Alpha  occ. eigenvalues --   -0.72642  -0.70419  -0.68706  -0.68596  -0.67911
 Alpha  occ. eigenvalues --   -0.67264  -0.66885  -0.65373  -0.64161  -0.63508
 Alpha  occ. eigenvalues --   -0.62311  -0.61700  -0.61463  -0.60810  -0.60150
 Alpha  occ. eigenvalues --   -0.58590  -0.58138  -0.57296  -0.56589  -0.55220
 Alpha  occ. eigenvalues --   -0.54706  -0.53747  -0.53158  -0.52915  -0.52278
 Alpha  occ. eigenvalues --   -0.50724  -0.50350  -0.50072  -0.49823  -0.49305
 Alpha  occ. eigenvalues --   -0.48754  -0.48067  -0.47764  -0.47288  -0.46911
 Alpha  occ. eigenvalues --   -0.45939  -0.45667  -0.44622  -0.44313  -0.43000
 Alpha  occ. eigenvalues --   -0.42558  -0.42250  -0.41279  -0.40202  -0.39160
 Alpha  occ. eigenvalues --   -0.38675  -0.38131  -0.37712  -0.36333  -0.35288
 Alpha  occ. eigenvalues --   -0.34582  -0.29518  -0.24094  -0.22049  -0.21442
 Alpha  occ. eigenvalues --   -0.21133  -0.20000
 Alpha virt. eigenvalues --   -0.18942  -0.15043  -0.14993  -0.12389  -0.12001
 Alpha virt. eigenvalues --   -0.10155  -0.08996  -0.08105  -0.07379  -0.06558
 Alpha virt. eigenvalues --   -0.05822  -0.04813  -0.04299  -0.03898  -0.03019

 Mulliken charges:
               1
     1  N   -0.710426
     2  H    0.408452
     3  H    0.427789
     4  H    0.427647
     5  C   -0.156524
     6  H    0.182890
     7  C    0.656273
     8  C   -0.287699
     9  H    0.173063
    10  H    0.195548
    11  O   -0.501230
    12  C   -0.343719
    13  H    0.139246
    14  H    0.116292
    15  C    0.545384
    16  O   -0.559079
    17  O   -0.559693
    18  N   -0.612965
    19  H    0.344263
    20  C   -0.055517
    21  H    0.160608
    22  C    0.661561
    23  C   -0.380219
    24  H    0.206851
    25  H    0.199056
    26  O   -0.566691
    27  C    0.128624
    28  C   -0.210004
    29  H    0.094549
    30  C   -0.207815
    31  H    0.103512
    32  C   -0.232179
    33  H    0.078292
    34  C   -0.226336
    35  H    0.106222
    36  O   -0.652682
    37  C    0.426676
    38  N   -0.593880
    39  H    0.363524
    40  C   -0.069224
    41  H    0.237120
    42  C    0.565550
    43  C   -0.318629
    44  H    0.146308
    45  H    0.194999
    46  O   -0.374855
    47  C   -0.294084
    48  H    0.177436
    49  H    0.207076
    50  C   -0.305388
    51  H    0.148334
    52  H    0.238501
    53  C   -0.227743
    54  H    0.238650
    55  H    0.205104
    56  N   -0.716089
    57  H    0.432022
    58  H    0.446195
    59  H    0.426958
    60  O   -0.608142
    61  H    0.479299
    62  H    0.480936
 Sum of Mulliken charges =   1.00000

 Dipole moment (field-independent basis, Debye):
    X=             32.7591    Y=             20.4921    Z=              8.9693  Tot=             39.6678
 Quadrupole moment (field-independent basis, Debye-Ang):
   XX=           -225.6004   YY=             -6.8205   ZZ=           -135.1885
   XY=             48.6362   XZ=             -6.6694   YZ=           -108.1059

 Normal termination of Gaussian 16 at Tue May 24 03:25:04 2022.
