 Gaussian 16, Revision C.01,
 Gaussian 16:  ES64L-G16RevC.01  3-Jul-2019

 ----------------------------------------------------------------------
 # B3LYP/6-31G* empiricaldispersion=gd3 guess=read geom=check nosymm in
 tegral(ultrafinegrid)
 ----------------------------------------------------------------------

 ------------------------------------------------------
 Candidate Structure: Conf:774 Charge calc in gas phase
 ------------------------------------------------------
 Structure from the checkpoint file:  "conf-774.chk"
 Charge =  1 Multiplicity = 1

                          Input orientation:
 ---------------------------------------------------------------------
 Center     Atomic      Atomic             Coordinates (Angstroms)
 Number     Number       Type             X           Y           Z
 ---------------------------------------------------------------------
      1          7           0        1.093343   -1.193277   -3.195103
      2          1           0        1.751054   -0.332246   -4.599699
      3          1           0        1.752373   -1.075730   -2.419731
      4          1           0        0.940204   -2.203121   -3.251257
      5          6           0       -0.173721   -0.567486   -2.776648
      6          1           0        0.033587    0.497093   -2.672659
      7          6           0       -0.582693   -1.130240   -1.397019
      8          6           0       -1.250337   -0.761716   -3.850562
      9          1           0       -1.547504   -1.816744   -3.867282
     10          1           0       -0.813058   -0.529416   -4.828572
     11          8           0       -0.458552   -2.318278   -1.163586
     12          6           0       -2.493499    0.104155   -3.628095
     13          1           0       -3.290995   -0.165413   -4.329338
     14          1           0       -2.922174   -0.055177   -2.628826
     15          6           0       -2.239724    1.589165   -3.781159
     16          8           0       -1.151460    2.128239   -3.931735
     17          8           0       -3.377096    2.291170   -3.716585
     18          7           0       -1.046466   -0.188297   -0.480433
     19          1           0       -1.139011    0.728524   -0.909129
     20          6           0       -0.381751   -0.035740    0.837615
     21          1           0       -0.984056    0.693310    1.388919
     22          6           0        1.005036    0.561108    0.510203
     23          6           0       -0.267739   -1.325754    1.653527
     24          1           0        0.288370   -2.061628    1.069600
     25          1           0       -1.278920   -1.726727    1.794085
     26          8           0        1.802964   -0.040543   -0.211586
     27          6           0        0.419719   -1.131147    3.021071
     28          1           0        1.442625   -0.766328    2.838049
     29          6           0       -0.297643   -0.112563    3.920563
     30          1           0       -1.351627   -0.386027    4.057273
     31          1           0        0.167852   -0.076347    4.911193
     32          1           0       -0.264005    0.907781    3.519044
     33          6           0        0.530263   -2.489976    3.727853
     34          1           0       -0.465314   -2.895469    3.947747
     35          1           0        1.059918   -3.220865    3.106519
     36          1           0        1.069890   -2.396657    4.676588
     37          7           0        1.219829    1.831878    0.940955
     38          1           0        0.629588    2.233723    1.661760
     39          6           0        2.460779    2.544757    0.677536
     40          1           0        3.272001    1.812708    0.600590
     41          6           0        2.727162    3.458168    1.868604
     42          6           0        2.414876    3.374851   -0.634628
     43          1           0        3.388657    3.862481   -0.758495
     44          1           0        1.663567    4.168837   -0.529201
     45          8           0        1.928606    3.673809    2.753482
     46          6           0        2.086588    2.495431   -1.843888
     47          1           0        2.787396    1.655326   -1.891533
     48          1           0        1.094038    2.057927   -1.701666
     49          6           0        2.083881    3.221122   -3.193998
     50          1           0        3.060437    3.664295   -3.405860
     51          1           0        1.345144    4.027511   -3.217636
     52          7           0        1.729472    2.263578   -4.256907
     53          1           0        0.764426    1.930476   -4.228885
     54          7           0        3.783262    2.055291   -5.325593
     55          1           0        4.514989    1.474547   -5.708193
     56          1           0        3.894350    3.055586   -5.408154
     57          7           0        2.276704    0.271407   -5.294648
     58          1           0        2.827847   -0.202085   -5.999233
     59          6           0        2.599387    1.522727   -4.957247
     60          8           0        3.946116    4.018268    1.791803
     61          1           0        4.051132    4.603402    2.567039
     62          1           0       -3.159000    3.237070   -3.824807
 ---------------------------------------------------------------------

 SCF Done:  E(RB3LYP) =  -1447.50428768     A.U. after    1 cycles

 Alpha  occ. eigenvalues --  -19.31452 -19.30208 -19.26875 -19.24765 -19.22182
 Alpha  occ. eigenvalues --  -19.21922 -14.51560 -14.50028 -14.49005 -14.46965
 Alpha  occ. eigenvalues --  -14.45449 -14.44623 -10.46861 -10.44704 -10.42783
 Alpha  occ. eigenvalues --  -10.39070 -10.38445 -10.35516 -10.34811 -10.33103
 Alpha  occ. eigenvalues --  -10.33085 -10.31478 -10.30707 -10.30436 -10.30327
 Alpha  occ. eigenvalues --  -10.26373 -10.25907 -10.24568 -10.23639  -1.22837
 Alpha  occ. eigenvalues --   -1.21237  -1.15194  -1.14399  -1.13722  -1.13333
 Alpha  occ. eigenvalues --   -1.12409  -1.04742  -1.03359  -1.03150  -1.02154
 Alpha  occ. eigenvalues --   -1.00848  -0.91849  -0.91037  -0.88958  -0.87001
 Alpha  occ. eigenvalues --   -0.83578  -0.81758  -0.80673  -0.76999  -0.75649
 Alpha  occ. eigenvalues --   -0.75159  -0.74151  -0.72805  -0.71905  -0.71298
 Alpha  occ. eigenvalues --   -0.69573  -0.69292  -0.68771  -0.66241  -0.65573
 Alpha  occ. eigenvalues --   -0.64574  -0.63982  -0.62708  -0.61533  -0.61134
 Alpha  occ. eigenvalues --   -0.60732  -0.60502  -0.59983  -0.59323  -0.58987
 Alpha  occ. eigenvalues --   -0.58488  -0.57966  -0.56767  -0.56345  -0.55915
 Alpha  occ. eigenvalues --   -0.54691  -0.54013  -0.53859  -0.53096  -0.52669
 Alpha  occ. eigenvalues --   -0.52063  -0.51678  -0.51026  -0.50506  -0.50027
 Alpha  occ. eigenvalues --   -0.49799  -0.48716  -0.48551  -0.48092  -0.48035
 Alpha  occ. eigenvalues --   -0.47378  -0.47132  -0.46512  -0.45718  -0.45068
 Alpha  occ. eigenvalues --   -0.44442  -0.44422  -0.44008  -0.43242  -0.42487
 Alpha  occ. eigenvalues --   -0.42315  -0.40340  -0.40310  -0.39913  -0.39753
 Alpha  occ. eigenvalues --   -0.39628  -0.39436  -0.38294  -0.37349  -0.36494
 Alpha  occ. eigenvalues --   -0.34822  -0.33479
 Alpha virt. eigenvalues --   -0.12642  -0.11565  -0.11017  -0.09512  -0.07185
 Alpha virt. eigenvalues --   -0.06634  -0.05049  -0.03585  -0.03056  -0.02424
 Alpha virt. eigenvalues --   -0.01392  -0.01158  -0.00453   0.00022   0.00565

 Mulliken charges:
               1
     1  N   -0.780020
     2  H    0.436487
     3  H    0.359003
     4  H    0.343108
     5  C   -0.069740
     6  H    0.141614
     7  C    0.592547
     8  C   -0.269409
     9  H    0.181826
    10  H    0.158812
    11  O   -0.477750
    12  C   -0.382276
    13  H    0.214608
    14  H    0.211520
    15  C    0.590148
    16  O   -0.499488
    17  O   -0.533894
    18  N   -0.588138
    19  H    0.311775
    20  C   -0.073966
    21  H    0.154689
    22  C    0.617022
    23  C   -0.258081
    24  H    0.188944
    25  H    0.158106
    26  O   -0.547447
    27  C   -0.092166
    28  H    0.130184
    29  C   -0.452953
    30  H    0.153359
    31  H    0.163182
    32  H    0.124077
    33  C   -0.445290
    34  H    0.151456
    35  H    0.152723
    36  H    0.152995
    37  N   -0.619153
    38  H    0.366642
    39  C   -0.041005
    40  H    0.208101
    41  C    0.588225
    42  C   -0.275565
    43  H    0.174954
    44  H    0.155726
    45  O   -0.453381
    46  C   -0.268456
    47  H    0.170660
    48  H    0.156528
    49  C   -0.171258
    50  H    0.163425
    51  H    0.188527
    52  N   -0.612063
    53  H    0.414739
    54  N   -0.741133
    55  H    0.375000
    56  H    0.379139
    57  N   -0.777029
    58  H    0.353436
    59  C    0.746209
    60  O   -0.559486
    61  H    0.432846
    62  H    0.426806
 Sum of Mulliken charges =   1.00000

 Dipole moment (field-independent basis, Debye):
    X=              8.4619    Y=             10.3189    Z=            -15.9731  Tot=             20.8140
 Quadrupole moment (field-independent basis, Debye-Ang):
   XX=           -118.4037   YY=           -135.8265   ZZ=            -71.8391
   XY=             21.7405   XZ=            -33.1783   YZ=            -21.6930

 Normal termination of Gaussian 16 at Wed Jun  1 02:21:24 2022.
