 Gaussian 16, Revision C.01,
 Gaussian 16:  ES64L-G16RevC.01  3-Jul-2019

 ----------------------------------------------------------------------
 # B3LYP/6-31G* empiricaldispersion=gd3 guess=read geom=check nosymm in
 tegral(ultrafinegrid)
 ----------------------------------------------------------------------

 ------------------------------------------------------
 Candidate Structure: Conf:448 Charge calc in gas phase
 ------------------------------------------------------
 Structure from the checkpoint file:  "conf-448.chk"
 Charge =  1 Multiplicity = 1

                          Input orientation:
 ---------------------------------------------------------------------
 Center     Atomic      Atomic             Coordinates (Angstroms)
 Number     Number       Type             X           Y           Z
 ---------------------------------------------------------------------
      1          7           0       -3.055013   -0.279566   -3.815910
      2          1           0       -3.724692   -1.048978   -3.908608
      3          1           0       -3.411101    0.392668   -3.073049
      4          1           0       -2.965415    0.187279   -4.722359
      5          6           0       -1.724786   -0.706665   -3.223404
      6          1           0       -1.630000   -1.790386   -3.328354
      7          6           0       -1.849760   -0.261548   -1.742684
      8          6           0       -0.558547    0.040580   -3.886619
      9          1           0        0.328373   -0.089843   -3.256206
     10          1           0       -0.763451    1.118219   -3.869989
     11          8           0       -2.739636    0.552880   -1.463884
     12          6           0       -0.241611   -0.422936   -5.310150
     13          1           0        0.066458   -1.474819   -5.330401
     14          1           0       -1.101463   -0.348678   -5.992131
     15          6           0        0.875724    0.419683   -5.908524
     16          8           0        1.343500    1.406205   -5.386365
     17          8           0        1.261409   -0.071563   -7.097924
     18          7           0       -0.928034   -0.759413   -0.921081
     19          1           0       -0.156027   -1.274999   -1.348276
     20          6           0       -0.439820   -0.046835    0.267071
     21          1           0       -1.030971    0.865744    0.374140
     22          6           0        1.029265    0.298687   -0.087642
     23          6           0       -0.526637   -0.905616    1.539010
     24          1           0       -0.098549   -0.325093    2.367500
     25          1           0        0.124724   -1.780085    1.408422
     26          8           0        1.581435   -0.292789   -1.023257
     27          6           0       -1.948656   -1.364566    1.911381
     28          1           0       -2.332112   -1.967294    1.074863
     29          6           0       -1.888361   -2.261334    3.156349
     30          1           0       -1.520690   -1.699439    4.024160
     31          1           0       -2.881967   -2.647416    3.407792
     32          1           0       -1.221701   -3.118221    3.004737
     33          6           0       -2.905955   -0.183157    2.129756
     34          1           0       -2.519415    0.494601    2.902304
     35          1           0       -3.069213    0.395136    1.213718
     36          1           0       -3.884401   -0.540776    2.468206
     37          7           0        1.609263    1.235854    0.674965
     38          1           0        1.082781    1.635090    1.441265
     39          6           0        3.007107    1.642904    0.529325
     40          1           0        3.548247    0.864643   -0.025451
     41          6           0        3.703116    1.755436    1.876806
     42          6           0        3.156726    2.966800   -0.250003
     43          1           0        4.217961    3.228781   -0.233987
     44          1           0        2.620237    3.760923    0.287231
     45          8           0        4.849133    2.109939    2.011208
     46          6           0        2.659937    2.901628   -1.699695
     47          1           0        1.603942    2.596753   -1.725352
     48          1           0        2.700364    3.916815   -2.114567
     49          6           0        3.457605    1.956658   -2.614536
     50          1           0        3.044627    2.017922   -3.626450
     51          1           0        3.349934    0.922174   -2.278614
     52          7           0        4.878583    2.298344   -2.674757
     53          1           0        5.213343    2.630898   -3.568625
     54          7           0        7.127453    1.959528   -2.263466
     55          1           0        7.826667    1.585884   -1.633488
     56          1           0        7.257252    2.956019   -2.404655
     57          7           0        5.454042    0.670961   -1.113849
     58          1           0        6.246994    0.322569   -0.576867
     59          6           0        5.816141    1.583002   -1.946828
     60          8           0        2.899543    1.430035    2.925980
     61          1           0        3.440573    1.544551    3.730680
     62          1           0        1.972774    0.502702   -7.441947
 ---------------------------------------------------------------------

 SCF Done:  E(RB3LYP) =  -1447.45602246     A.U. after    1 cycles

 Alpha  occ. eigenvalues --  -19.30783 -19.28215 -19.27695 -19.25553 -19.22525
 Alpha  occ. eigenvalues --  -19.21288 -14.61543 -14.49943 -14.46461 -14.40714
 Alpha  occ. eigenvalues --  -14.40699 -14.34478 -10.44633 -10.43974 -10.42058
 Alpha  occ. eigenvalues --  -10.39661 -10.39498 -10.34939 -10.34691 -10.34200
 Alpha  occ. eigenvalues --  -10.34129 -10.30928 -10.28787 -10.27927 -10.27216
 Alpha  occ. eigenvalues --  -10.25893 -10.25515 -10.25280 -10.25189  -1.21890
 Alpha  occ. eigenvalues --   -1.20517  -1.18202  -1.15345  -1.14339  -1.13139
 Alpha  occ. eigenvalues --   -1.09166  -1.07071  -1.03510  -1.02857  -0.95973
 Alpha  occ. eigenvalues --   -0.94591  -0.91445  -0.90053  -0.88736  -0.87454
 Alpha  occ. eigenvalues --   -0.84692  -0.81308  -0.79952  -0.76555  -0.75740
 Alpha  occ. eigenvalues --   -0.75317  -0.74784  -0.74370  -0.72305  -0.71503
 Alpha  occ. eigenvalues --   -0.69691  -0.69169  -0.67616  -0.66068  -0.65088
 Alpha  occ. eigenvalues --   -0.64378  -0.63953  -0.61909  -0.61362  -0.60643
 Alpha  occ. eigenvalues --   -0.59761  -0.59534  -0.59087  -0.58288  -0.57544
 Alpha  occ. eigenvalues --   -0.57329  -0.56576  -0.55702  -0.55088  -0.54325
 Alpha  occ. eigenvalues --   -0.53968  -0.53922  -0.52916  -0.52654  -0.51937
 Alpha  occ. eigenvalues --   -0.51552  -0.51210  -0.50878  -0.50270  -0.49758
 Alpha  occ. eigenvalues --   -0.49479  -0.48985  -0.48468  -0.47842  -0.47449
 Alpha  occ. eigenvalues --   -0.46698  -0.46340  -0.45968  -0.45176  -0.44084
 Alpha  occ. eigenvalues --   -0.43135  -0.42726  -0.42205  -0.41855  -0.41427
 Alpha  occ. eigenvalues --   -0.41201  -0.41078  -0.40346  -0.39828  -0.39231
 Alpha  occ. eigenvalues --   -0.39208  -0.36902  -0.36323  -0.33892  -0.32875
 Alpha  occ. eigenvalues --   -0.31133  -0.28635
 Alpha virt. eigenvalues --   -0.13630  -0.12787  -0.10434  -0.08103  -0.07549
 Alpha virt. eigenvalues --   -0.06411  -0.05586  -0.03284  -0.02515  -0.02085
 Alpha virt. eigenvalues --   -0.01623  -0.00704  -0.00108   0.00374   0.00523

 Mulliken charges:
               1
     1  N   -0.753691
     2  H    0.419991
     3  H    0.433949
     4  H    0.415153
     5  C   -0.123971
     6  H    0.216466
     7  C    0.639099
     8  C   -0.318362
     9  H    0.242877
    10  H    0.195833
    11  O   -0.526134
    12  C   -0.376440
    13  H    0.208996
    14  H    0.167554
    15  C    0.600954
    16  O   -0.438236
    17  O   -0.552442
    18  N   -0.558686
    19  H    0.363674
    20  C   -0.124264
    21  H    0.196492
    22  C    0.645976
    23  C   -0.260164
    24  H    0.157492
    25  H    0.157173
    26  O   -0.542521
    27  C   -0.070338
    28  H    0.124167
    29  C   -0.446236
    30  H    0.152341
    31  H    0.158069
    32  H    0.150204
    33  C   -0.469506
    34  H    0.145935
    35  H    0.157810
    36  H    0.160656
    37  N   -0.593024
    38  H    0.348441
    39  C   -0.089697
    40  H    0.273566
    41  C    0.593139
    42  C   -0.265926
    43  H    0.193026
    44  H    0.132208
    45  O   -0.446975
    46  C   -0.246596
    47  H    0.111020
    48  H    0.142714
    49  C   -0.176914
    50  H    0.157430
    51  H    0.204728
    52  N   -0.600727
    53  H    0.324537
    54  N   -0.758800
    55  H    0.330519
    56  H    0.328115
    57  N   -0.664997
    58  H    0.279954
    59  C    0.609111
    60  O   -0.589841
    61  H    0.422643
    62  H    0.432472
 Sum of Mulliken charges =   1.00000

 Dipole moment (field-independent basis, Debye):
    X=             -5.4398    Y=              0.0905    Z=            -14.4049  Tot=             15.3981
 Quadrupole moment (field-independent basis, Debye-Ang):
   XX=           -112.9553   YY=           -158.3837   ZZ=            -71.6368
   XY=             23.6469   XZ=             26.7977   YZ=              1.2690

 Normal termination of Gaussian 16 at Wed Jun  1 02:21:19 2022.
