 Gaussian 16, Revision C.01,
 Gaussian 16:  ES64L-G16RevC.01  3-Jul-2019

 ----------------------------------------------------------------------
 # B3LYP/6-31G* empiricaldispersion=gd3 guess=read geom=check nosymm in
 tegral(ultrafinegrid)
 ----------------------------------------------------------------------

 ------------------------------------------------------
 Candidate Structure: Conf:365 Charge calc in gas phase
 ------------------------------------------------------
 Structure from the checkpoint file:  "conf-365.chk"
 Charge =  1 Multiplicity = 1

                          Input orientation:
 ---------------------------------------------------------------------
 Center     Atomic      Atomic             Coordinates (Angstroms)
 Number     Number       Type             X           Y           Z
 ---------------------------------------------------------------------
      1          7           0       -2.785940   -0.528945   -3.642195
      2          1           0       -3.571183   -0.996265   -3.177714
      3          1           0       -2.621586    0.399274   -3.160414
      4          1           0       -3.013570   -0.402168   -4.632719
      5          6           0       -1.454961   -1.223288   -3.405293
      6          1           0       -1.623523   -2.299206   -3.321220
      7          6           0       -0.986249   -0.567953   -2.082712
      8          6           0       -0.531758   -0.865628   -4.583389
      9          1           0       -0.540387    0.221954   -4.716230
     10          1           0       -0.948742   -1.311437   -5.495694
     11          8           0       -1.339062    0.609650   -1.909482
     12          6           0        0.921190   -1.329749   -4.398171
     13          1           0        1.409892   -0.755859   -3.601645
     14          1           0        0.990570   -2.383095   -4.113594
     15          6           0        1.767537   -1.134269   -5.643638
     16          8           0        2.698381   -1.844897   -5.966888
     17          8           0        1.384602   -0.065591   -6.359333
     18          7           0       -0.233306   -1.313245   -1.284699
     19          1           0       -0.078151   -2.319156   -1.497392
     20          6           0        0.442345   -0.773145   -0.096032
     21          1           0        0.205616    0.290327   -0.046233
     22          6           0        1.980207   -0.843860   -0.227533
     23          6           0       -0.102108   -1.480706    1.166647
     24          1           0       -0.051943   -2.568888    1.015310
     25          1           0       -1.173682   -1.245192    1.222007
     26          8           0        2.678299   -0.114185    0.462972
     27          6           0        0.563044   -1.113118    2.506161
     28          1           0        1.631197   -1.357363    2.440238
     29          6           0        0.444888    0.386453    2.810641
     30          1           0       -0.605579    0.706740    2.801828
     31          1           0        0.849971    0.607484    3.803834
     32          1           0        1.006045    0.982614    2.086263
     33          6           0       -0.058131   -1.960443    3.626269
     34          1           0       -1.127134   -1.739656    3.740228
     35          1           0        0.042595   -3.035155    3.427814
     36          1           0        0.427454   -1.749902    4.584850
     37          7           0        2.475496   -1.760990   -1.105506
     38          1           0        1.857578   -2.400777   -1.599693
     39          6           0        3.903246   -1.894018   -1.398282
     40          1           0        4.398791   -1.055477   -0.906991
     41          6           0        3.983053   -1.668775   -2.911618
     42          6           0        4.485572   -3.238751   -0.926816
     43          1           0        5.570801   -3.192967   -1.071560
     44          1           0        4.127536   -4.032405   -1.589799
     45          8           0        4.109378   -0.582058   -3.431668
     46          6           0        4.149795   -3.582896    0.542956
     47          1           0        5.061519   -3.857301    1.086074
     48          1           0        3.745175   -2.704546    1.061754
     49          6           0        3.169743   -4.761072    0.687675
     50          1           0        3.015182   -4.993390    1.746802
     51          1           0        3.598928   -5.652326    0.223651
     52          7           0        1.849246   -4.509158    0.090477
     53          1           0        1.410918   -3.661371    0.422016
     54          7           0        1.985824   -5.993204   -1.690308
     55          1           0        1.679061   -6.286492   -2.606283
     56          1           0        2.202154   -6.748675   -1.054304
     57          7           0        0.636603   -4.040034   -1.829053
     58          1           0        0.305954   -4.494144   -2.679429
     59          6           0        1.455555   -4.835435   -1.176243
     60          8           0        3.732061   -2.805672   -3.594707
     61          1           0        3.613514   -2.568065   -4.545770
     62          1           0        2.011147    0.032649   -7.103293
 ---------------------------------------------------------------------

 SCF Done:  E(RB3LYP) =  -1447.47633768     A.U. after    1 cycles

 Alpha  occ. eigenvalues --  -19.31665 -19.27180 -19.26673 -19.26177 -19.21915
 Alpha  occ. eigenvalues --  -19.20635 -14.61593 -14.49206 -14.46719 -14.46016
 Alpha  occ. eigenvalues --  -14.45363 -14.41707 -10.44670 -10.43614 -10.41917
 Alpha  occ. eigenvalues --  -10.41190 -10.40118 -10.38312 -10.35509 -10.33918
 Alpha  occ. eigenvalues --  -10.33373 -10.32235 -10.32091 -10.28849 -10.27734
 Alpha  occ. eigenvalues --  -10.27420 -10.26998 -10.24842 -10.23865  -1.22743
 Alpha  occ. eigenvalues --   -1.19505  -1.18329  -1.14936  -1.13631  -1.12813
 Alpha  occ. eigenvalues --   -1.09777  -1.09393  -1.06307  -1.01913  -1.00217
 Alpha  occ. eigenvalues --   -0.96344  -0.95994  -0.90738  -0.88476  -0.88219
 Alpha  occ. eigenvalues --   -0.84892  -0.83127  -0.79870  -0.77275  -0.75470
 Alpha  occ. eigenvalues --   -0.75142  -0.74887  -0.74286  -0.72797  -0.72624
 Alpha  occ. eigenvalues --   -0.71872  -0.70261  -0.69540  -0.68253  -0.66498
 Alpha  occ. eigenvalues --   -0.65237  -0.64666  -0.64418  -0.62931  -0.62249
 Alpha  occ. eigenvalues --   -0.60876  -0.59938  -0.59775  -0.59121  -0.58682
 Alpha  occ. eigenvalues --   -0.57310  -0.56946  -0.56617  -0.56291  -0.56013
 Alpha  occ. eigenvalues --   -0.55627  -0.54688  -0.53496  -0.53309  -0.52794
 Alpha  occ. eigenvalues --   -0.52150  -0.51639  -0.51177  -0.50986  -0.50744
 Alpha  occ. eigenvalues --   -0.50282  -0.50032  -0.49377  -0.48882  -0.48405
 Alpha  occ. eigenvalues --   -0.47075  -0.46806  -0.46002  -0.45550  -0.44501
 Alpha  occ. eigenvalues --   -0.44159  -0.43901  -0.43488  -0.43093  -0.42227
 Alpha  occ. eigenvalues --   -0.41492  -0.40648  -0.40397  -0.40294  -0.40054
 Alpha  occ. eigenvalues --   -0.39524  -0.38989  -0.37255  -0.36390  -0.34363
 Alpha  occ. eigenvalues --   -0.34031  -0.33469
 Alpha virt. eigenvalues --   -0.13367  -0.12173  -0.10755  -0.08994  -0.07341
 Alpha virt. eigenvalues --   -0.07234  -0.05920  -0.05752  -0.04190  -0.03298
 Alpha virt. eigenvalues --   -0.02502  -0.02105  -0.01979  -0.00024   0.00676

 Mulliken charges:
               1
     1  N   -0.747521
     2  H    0.419212
     3  H    0.432494
     4  H    0.415198
     5  C   -0.122717
     6  H    0.208303
     7  C    0.640635
     8  C   -0.293062
     9  H    0.206841
    10  H    0.177765
    11  O   -0.538439
    12  C   -0.401498
    13  H    0.235415
    14  H    0.191716
    15  C    0.630136
    16  O   -0.474651
    17  O   -0.551657
    18  N   -0.637182
    19  H    0.409546
    20  C   -0.103590
    21  H    0.222556
    22  C    0.621949
    23  C   -0.279925
    24  H    0.134789
    25  H    0.152487
    26  O   -0.500984
    27  C   -0.081324
    28  H    0.148962
    29  C   -0.458754
    30  H    0.136122
    31  H    0.159239
    32  H    0.177873
    33  C   -0.446378
    34  H    0.147391
    35  H    0.133329
    36  H    0.163388
    37  N   -0.660824
    38  H    0.378578
    39  C   -0.034069
    40  H    0.215282
    41  C    0.573101
    42  C   -0.298600
    43  H    0.170772
    44  H    0.179009
    45  O   -0.466946
    46  C   -0.288821
    47  H    0.167407
    48  H    0.174227
    49  C   -0.165972
    50  H    0.175609
    51  H    0.164661
    52  N   -0.585260
    53  H    0.346661
    54  N   -0.746601
    55  H    0.347664
    56  H    0.357542
    57  N   -0.772416
    58  H    0.280566
    59  C    0.674175
    60  O   -0.604452
    61  H    0.451794
    62  H    0.439251
 Sum of Mulliken charges =   1.00000

 Dipole moment (field-independent basis, Debye):
    X=             -6.3152    Y=            -14.3519    Z=            -15.2579  Tot=             21.8784
 Quadrupole moment (field-independent basis, Debye-Ang):
   XX=           -137.4516   YY=           -110.1316   ZZ=            -89.2157
   XY=            -18.6022   XZ=             35.4588   YZ=             19.0648

 Normal termination of Gaussian 16 at Wed Jun  1 02:21:22 2022.
