 Gaussian 16, Revision C.01,
 Gaussian 16:  ES64L-G16RevC.01  3-Jul-2019

 ----------------------------------------------------------------------
 # B3LYP/6-31G* empiricaldispersion=gd3 guess=read geom=check nosymm in
 tegral(ultrafinegrid)
 ----------------------------------------------------------------------

 ------------------------------------------------------
 Candidate Structure: Conf:962 Charge calc in gas phase
 ------------------------------------------------------
 Structure from the checkpoint file:  "conf-962.chk"
 Charge =  1 Multiplicity = 1

                          Input orientation:
 ---------------------------------------------------------------------
 Center     Atomic      Atomic             Coordinates (Angstroms)
 Number     Number       Type             X           Y           Z
 ---------------------------------------------------------------------
      1          7           0       -2.900343   -0.641462   -3.974332
      2          1           0       -3.544971   -1.409383   -3.761519
      3          1           0       -3.183250    0.195776   -3.395846
      4          1           0       -2.951942   -0.439478   -4.976995
      5          6           0       -1.488766   -0.909933   -3.478969
      6          1           0       -1.304198   -1.982302   -3.474436
      7          6           0       -1.518370   -0.296188   -2.058193
      8          6           0       -0.504078   -0.175405   -4.415959
      9          1           0       -0.883720    0.841318   -4.581363
     10          1           0       -0.509550   -0.693913   -5.382842
     11          8           0       -2.329328    0.619882   -1.856021
     12          6           0        0.942948   -0.043410   -3.914187
     13          1           0        1.543625    0.459783   -4.676982
     14          1           0        0.998078    0.584903   -3.018445
     15          6           0        1.601843   -1.350737   -3.532582
     16          8           0        0.996354   -2.336604   -3.139098
     17          8           0        2.927381   -1.288409   -3.638776
     18          7           0       -0.646461   -0.799618   -1.188938
     19          1           0        0.017261   -1.494697   -1.530103
     20          6           0       -0.292744   -0.159438    0.082142
     21          1           0       -0.981451    0.676619    0.228607
     22          6           0        1.151264    0.342411   -0.093326
     23          6           0       -0.436389   -1.168459    1.241648
     24          1           0        0.148155   -2.065791    0.998767
     25          1           0       -1.490220   -1.470655    1.254456
     26          8           0        1.947647   -0.300599   -0.781201
     27          6           0       -0.015740   -0.633103    2.632821
     28          1           0       -0.187593    0.453459    2.659384
     29          6           0       -0.888118   -1.261013    3.730140
     30          1           0       -0.792898   -2.354084    3.723916
     31          1           0       -0.584022   -0.906053    4.720506
     32          1           0       -1.946926   -1.013237    3.592469
     33          6           0        1.471354   -0.891947    2.927170
     34          1           0        1.649228   -1.966640    3.056071
     35          1           0        2.129859   -0.547253    2.124575
     36          1           0        1.775086   -0.384405    3.848090
     37          7           0        1.459074    1.496839    0.532547
     38          1           0        0.808783    1.893541    1.202404
     39          6           0        2.836055    1.964709    0.649993
     40          1           0        3.495641    1.103600    0.498252
     41          6           0        3.015878    2.473114    2.075407
     42          6           0        3.198522    3.051718   -0.384204
     43          1           0        4.261490    3.286396   -0.274620
     44          1           0        2.636683    3.968667   -0.159184
     45          8           0        2.110979    2.602497    2.873714
     46          6           0        2.911972    2.614356   -1.825525
     47          1           0        3.316199    1.608119   -1.997655
     48          1           0        1.826573    2.539678   -1.973543
     49          6           0        3.480858    3.584583   -2.863871
     50          1           0        3.114682    4.597594   -2.671437
     51          1           0        3.116120    3.305170   -3.867467
     52          7           0        4.945812    3.592000   -2.803966
     53          1           0        5.332577    2.672117   -3.000368
     54          7           0        5.230103    5.831958   -3.421110
     55          1           0        5.836098    6.523911   -3.844726
     56          1           0        4.989614    6.078072   -2.466679
     57          7           0        6.596551    4.074450   -4.346961
     58          1           0        7.138666    4.837102   -4.757926
     59          6           0        5.666021    4.513398   -3.583423
     60          8           0        4.296433    2.782822    2.327466
     61          1           0        4.344541    3.121307    3.242395
     62          1           0        3.301126   -2.116020   -3.277601
 ---------------------------------------------------------------------

 SCF Done:  E(RB3LYP) =  -1447.46080311     A.U. after    3 cycles

 Alpha  occ. eigenvalues --  -19.31362 -19.29343 -19.27224 -19.26224 -19.23976
 Alpha  occ. eigenvalues --  -19.22753 -14.61356 -14.49897 -14.46868 -14.40903
 Alpha  occ. eigenvalues --  -14.40378 -14.34478 -10.44668 -10.44037 -10.41937
 Alpha  occ. eigenvalues --  -10.41210 -10.39871 -10.35674 -10.35078 -10.33820
 Alpha  occ. eigenvalues --  -10.33594 -10.33246 -10.29361 -10.28941 -10.28133
 Alpha  occ. eigenvalues --  -10.27870 -10.27255 -10.25339 -10.25193  -1.22647
 Alpha  occ. eigenvalues --   -1.20431  -1.19763  -1.15125  -1.14620  -1.13658
 Alpha  occ. eigenvalues --   -1.11582  -1.06728  -1.03508  -1.03367  -0.95684
 Alpha  occ. eigenvalues --   -0.94961  -0.91479  -0.90426  -0.88647  -0.88285
 Alpha  occ. eigenvalues --   -0.85215  -0.82998  -0.80442  -0.76333  -0.75787
 Alpha  occ. eigenvalues --   -0.75240  -0.74941  -0.74617  -0.73365  -0.71084
 Alpha  occ. eigenvalues --   -0.70562  -0.68906  -0.68272  -0.66662  -0.65946
 Alpha  occ. eigenvalues --   -0.65418  -0.64735  -0.62543  -0.61776  -0.60612
 Alpha  occ. eigenvalues --   -0.59999  -0.59476  -0.58755  -0.58484  -0.57901
 Alpha  occ. eigenvalues --   -0.57694  -0.57169  -0.56696  -0.56254  -0.55104
 Alpha  occ. eigenvalues --   -0.54579  -0.53578  -0.53309  -0.52915  -0.52602
 Alpha  occ. eigenvalues --   -0.52214  -0.51756  -0.51473  -0.51062  -0.50558
 Alpha  occ. eigenvalues --   -0.49963  -0.49690  -0.49207  -0.49092  -0.48166
 Alpha  occ. eigenvalues --   -0.47294  -0.46396  -0.45811  -0.45318  -0.44834
 Alpha  occ. eigenvalues --   -0.43813  -0.43536  -0.42788  -0.42563  -0.42311
 Alpha  occ. eigenvalues --   -0.41596  -0.41447  -0.41253  -0.41149  -0.40053
 Alpha  occ. eigenvalues --   -0.39302  -0.37672  -0.36440  -0.36284  -0.32282
 Alpha  occ. eigenvalues --   -0.31819  -0.28936
 Alpha virt. eigenvalues --   -0.13300  -0.12133  -0.11091  -0.09039  -0.08522
 Alpha virt. eigenvalues --   -0.06985  -0.04415  -0.02903  -0.02499  -0.01765
 Alpha virt. eigenvalues --   -0.01687  -0.01153  -0.00776  -0.00467   0.00505

 Mulliken charges:
               1
     1  N   -0.751491
     2  H    0.421278
     3  H    0.429209
     4  H    0.415173
     5  C   -0.114114
     6  H    0.243170
     7  C    0.622849
     8  C   -0.298316
     9  H    0.180417
    10  H    0.189620
    11  O   -0.539201
    12  C   -0.394443
    13  H    0.213948
    14  H    0.226769
    15  C    0.641633
    16  O   -0.498669
    17  O   -0.535407
    18  N   -0.591923
    19  H    0.395614
    20  C   -0.104667
    21  H    0.193805
    22  C    0.636926
    23  C   -0.259610
    24  H    0.158829
    25  H    0.158981
    26  O   -0.557082
    27  C   -0.090872
    28  H    0.131075
    29  C   -0.450579
    30  H    0.152477
    31  H    0.164039
    32  H    0.148017
    33  C   -0.457011
    34  H    0.153961
    35  H    0.144745
    36  H    0.167024
    37  N   -0.591250
    38  H    0.362472
    39  C   -0.063617
    40  H    0.208506
    41  C    0.595090
    42  C   -0.260629
    43  H    0.195731
    44  H    0.143540
    45  O   -0.468316
    46  C   -0.291001
    47  H    0.162484
    48  H    0.126415
    49  C   -0.125660
    50  H    0.157575
    51  H    0.131506
    52  N   -0.584487
    53  H    0.325756
    54  N   -0.738607
    55  H    0.329934
    56  H    0.327318
    57  N   -0.625580
    58  H    0.273161
    59  C    0.548215
    60  O   -0.552254
    61  H    0.430604
    62  H    0.436916
 Sum of Mulliken charges =   1.00000

 Dipole moment (field-independent basis, Debye):
    X=             -4.2949    Y=              1.1527    Z=            -12.1545  Tot=             12.9424
 Quadrupole moment (field-independent basis, Debye-Ang):
   XX=           -133.3188   YY=           -132.5326   ZZ=            -98.7661
   XY=             31.9041   XZ=             46.0115   YZ=              8.8041

 Normal termination of Gaussian 16 at Wed Jun  1 02:30:32 2022.
