 Gaussian 16, Revision C.01,
 Gaussian 16:  ES64L-G16RevC.01  3-Jul-2019

 ----------------------------------------------------------------------
 # B3LYP/6-31G* empiricaldispersion=gd3 guess=read geom=check nosymm in
 tegral(ultrafinegrid)
 ----------------------------------------------------------------------

 ------------------------------------------------------
 Candidate Structure: Conf:302 Charge calc in gas phase
 ------------------------------------------------------
 Structure from the checkpoint file:  "conf-302.chk"
 Charge =  1 Multiplicity = 1

                          Input orientation:
 ---------------------------------------------------------------------
 Center     Atomic      Atomic             Coordinates (Angstroms)
 Number     Number       Type             X           Y           Z
 ---------------------------------------------------------------------
      1          7           0       -3.650703   -1.377608   -3.563799
      2          1           0       -4.238088   -2.165031   -3.276437
      3          1           0       -3.890367   -0.525931   -2.968157
      4          1           0       -3.823139   -1.187027   -4.555071
      5          6           0       -2.181691   -1.576940   -3.235838
      6          1           0       -2.046390   -2.612179   -2.914098
      7          6           0       -1.959353   -0.587912   -2.057801
      8          6           0       -1.285097   -1.264028   -4.442275
      9          1           0       -1.540793   -1.948783   -5.261089
     10          1           0       -0.252354   -1.495281   -4.163201
     11          8           0       -2.875420    0.207717   -1.797192
     12          6           0       -1.360671    0.200713   -4.911220
     13          1           0       -2.375564    0.511287   -5.177679
     14          1           0       -1.005346    0.863850   -4.113883
     15          6           0       -0.503050    0.436462   -6.145519
     16          8           0       -0.910325    0.870945   -7.193977
     17          8           0        0.779140    0.084197   -5.906384
     18          7           0       -0.781258   -0.662366   -1.457701
     19          1           0       -0.032449   -1.252257   -1.828218
     20          6           0       -0.259581    0.310177   -0.494484
     21          1           0       -0.786780    1.257127   -0.639847
     22          6           0        1.231670    0.441413   -0.864842
     23          6           0       -0.400314   -0.183226    0.960731
     24          1           0        0.132306    0.520980    1.613588
     25          1           0        0.139587   -1.135624    1.039668
     26          8           0        1.774552   -0.431704   -1.544029
     27          6           0       -1.846289   -0.348552    1.463017
     28          1           0       -2.373248   -1.019228    0.767986
     29          6           0       -1.832004   -1.015786    2.846434
     30          1           0       -1.313313   -0.383830    3.578140
     31          1           0       -2.851499   -1.177217    3.212603
     32          1           0       -1.323556   -1.986700    2.821883
     33          6           0       -2.602274    0.987087    1.506639
     34          1           0       -2.080276    1.708218    2.148928
     35          1           0       -2.721679    1.426391    0.511458
     36          1           0       -3.606268    0.846098    1.921221
     37          7           0        1.873405    1.525884   -0.386183
     38          1           0        1.396674    2.117908    0.282248
     39          6           0        3.331006    1.623332   -0.446518
     40          1           0        3.645313    1.392344   -1.466892
     41          6           0        4.012127    0.591885    0.454231
     42          6           0        3.774918    3.051412   -0.072746
     43          1           0        3.552865    3.227735    0.990631
     44          1           0        3.151878    3.746005   -0.651192
     45          8           0        5.133985    0.182050    0.285082
     46          6           0        5.250103    3.335955   -0.371598
     47          1           0        5.892881    2.630050    0.166764
     48          1           0        5.435604    3.201127   -1.441793
     49          6           0        5.627525    4.778930   -0.001837
     50          1           0        5.534742    4.933769    1.080663
     51          1           0        4.946068    5.475654   -0.498355
     52          7           0        6.978923    5.156263   -0.389636
     53          1           0        7.715802    4.670322    0.108827
     54          7           0        8.629267    5.584654   -1.950102
     55          1           0        8.859295    5.893778   -2.886368
     56          1           0        9.080797    6.159436   -1.246236
     57          7           0        6.325532    5.332452   -2.616191
     58          1           0        6.668818    5.636634   -3.528137
     59          6           0        7.261898    5.369731   -1.735668
     60          8           0        3.233753    0.235038    1.508809
     61          1           0        3.765761   -0.385004    2.043289
     62          1           0        1.291017    0.259139   -6.719762
 ---------------------------------------------------------------------

 SCF Done:  E(RB3LYP) =  -1447.44502292     A.U. after    1 cycles

 Alpha  occ. eigenvalues --  -19.30406 -19.28498 -19.28242 -19.24762 -19.23420
 Alpha  occ. eigenvalues --  -19.22145 -14.61529 -14.50862 -14.47200 -14.39719
 Alpha  occ. eigenvalues --  -14.39667 -14.33444 -10.45113 -10.43319 -10.42509
 Alpha  occ. eigenvalues --  -10.40268 -10.40252 -10.35873 -10.35725 -10.33821
 Alpha  occ. eigenvalues --  -10.33012 -10.32944 -10.29474 -10.28665 -10.27703
 Alpha  occ. eigenvalues --  -10.27062 -10.25975 -10.25905 -10.24295  -1.21269
 Alpha  occ. eigenvalues --   -1.20880  -1.18876  -1.15634  -1.15123  -1.12517
 Alpha  occ. eigenvalues --   -1.09930  -1.07697  -1.03768  -1.02473  -0.96487
 Alpha  occ. eigenvalues --   -0.93776  -0.92023  -0.89022  -0.88936  -0.88437
 Alpha  occ. eigenvalues --   -0.85549  -0.81153  -0.80029  -0.77158  -0.76727
 Alpha  occ. eigenvalues --   -0.75734  -0.74456  -0.74136  -0.73094  -0.72150
 Alpha  occ. eigenvalues --   -0.70780  -0.69284  -0.68376  -0.66145  -0.65511
 Alpha  occ. eigenvalues --   -0.64285  -0.63566  -0.62764  -0.61942  -0.60122
 Alpha  occ. eigenvalues --   -0.59726  -0.58945  -0.58719  -0.58257  -0.57433
 Alpha  occ. eigenvalues --   -0.57278  -0.56808  -0.56693  -0.56269  -0.55328
 Alpha  occ. eigenvalues --   -0.54391  -0.54200  -0.53567  -0.52725  -0.52079
 Alpha  occ. eigenvalues --   -0.51220  -0.51163  -0.50842  -0.50067  -0.49914
 Alpha  occ. eigenvalues --   -0.49635  -0.49398  -0.48856  -0.48589  -0.48005
 Alpha  occ. eigenvalues --   -0.47174  -0.46699  -0.45701  -0.45407  -0.44197
 Alpha  occ. eigenvalues --   -0.43187  -0.42688  -0.42567  -0.42179  -0.42076
 Alpha  occ. eigenvalues --   -0.41953  -0.41508  -0.40741  -0.40398  -0.39452
 Alpha  occ. eigenvalues --   -0.38345  -0.38292  -0.37083  -0.34496  -0.31548
 Alpha  occ. eigenvalues --   -0.30404  -0.27716
 Alpha virt. eigenvalues --   -0.13826  -0.12726  -0.09992  -0.09112  -0.08012
 Alpha virt. eigenvalues --   -0.07304  -0.05815  -0.03466  -0.02687  -0.02401
 Alpha virt. eigenvalues --   -0.01838  -0.00681  -0.00470   0.00268   0.00400

 Mulliken charges:
               1
     1  N   -0.759039
     2  H    0.421177
     3  H    0.437584
     4  H    0.418240
     5  C   -0.115219
     6  H    0.226600
     7  C    0.650245
     8  C   -0.318717
     9  H    0.190645
    10  H    0.230801
    11  O   -0.540131
    12  C   -0.366752
    13  H    0.170141
    14  H    0.207721
    15  C    0.578010
    16  O   -0.423566
    17  O   -0.554413
    18  N   -0.586983
    19  H    0.375133
    20  C   -0.102462
    21  H    0.192239
    22  C    0.646537
    23  C   -0.253471
    24  H    0.157309
    25  H    0.157316
    26  O   -0.536761
    27  C   -0.071435
    28  H    0.114668
    29  C   -0.446577
    30  H    0.154434
    31  H    0.158751
    32  H    0.147891
    33  C   -0.463230
    34  H    0.145450
    35  H    0.160634
    36  H    0.160345
    37  N   -0.612338
    38  H    0.345165
    39  C   -0.020311
    40  H    0.210063
    41  C    0.599986
    42  C   -0.317933
    43  H    0.146016
    44  H    0.167626
    45  O   -0.440018
    46  C   -0.275966
    47  H    0.155564
    48  H    0.184597
    49  C   -0.124270
    50  H    0.136897
    51  H    0.175052
    52  N   -0.592942
    53  H    0.321447
    54  N   -0.756895
    55  H    0.325634
    56  H    0.329658
    57  N   -0.660014
    58  H    0.269041
    59  C    0.595580
    60  O   -0.581449
    61  H    0.422461
    62  H    0.434231
 Sum of Mulliken charges =   1.00000

 Dipole moment (field-independent basis, Debye):
    X=             -5.9829    Y=             -2.2818    Z=            -10.1983  Tot=             12.0419
 Quadrupole moment (field-independent basis, Debye-Ang):
   XX=            -87.3319   YY=           -136.3753   ZZ=           -114.6156
   XY=             60.6695   XZ=             34.2860   YZ=             22.8602

 Normal termination of Gaussian 16 at Wed Jun  1 02:21:17 2022.
