 Gaussian 16, Revision C.01,
 Gaussian 16:  ES64L-G16RevC.01  3-Jul-2019

 ----------------------------------------------------------------------
 # B3LYP/6-31G* empiricaldispersion=gd3 guess=read geom=check nosymm in
 tegral(ultrafinegrid)
 ----------------------------------------------------------------------

 ------------------------------------------------------
 Candidate Structure: Conf:156 Charge calc in gas phase
 ------------------------------------------------------
 Structure from the checkpoint file:  "conf-156.chk"
 Charge =  1 Multiplicity = 1

                          Input orientation:
 ---------------------------------------------------------------------
 Center     Atomic      Atomic             Coordinates (Angstroms)
 Number     Number       Type             X           Y           Z
 ---------------------------------------------------------------------
      1          7           0       -1.200809    0.534998   -4.669456
      2          1           0       -1.855420    1.238723   -4.317335
      3          1           0       -0.342747    1.099832   -5.095932
      4          1           0       -1.620994   -0.018027   -5.434320
      5          6           0       -0.853928   -0.430739   -3.581009
      6          1           0       -1.674580   -1.152101   -3.527888
      7          6           0       -0.742627    0.369125   -2.276507
      8          6           0        0.473901   -1.163435   -3.879055
      9          1           0        0.530247   -2.033302   -3.217353
     10          1           0        1.309954   -0.520108   -3.587041
     11          8           0       -0.635879    1.592800   -2.318491
     12          6           0        0.683178   -1.605086   -5.346306
     13          1           0        0.850458   -0.719920   -5.973266
     14          1           0        1.576554   -2.230233   -5.406895
     15          6           0       -0.502458   -2.342279   -5.932570
     16          8           0       -1.615641   -1.849979   -6.062925
     17          8           0       -0.218514   -3.593703   -6.298393
     18          7           0       -0.753631   -0.355275   -1.131430
     19          1           0       -0.633880   -1.358063   -1.213159
     20          6           0       -0.196577    0.233875    0.088561
     21          1           0       -0.675776    1.206277    0.222923
     22          6           0        1.317425    0.413964   -0.143049
     23          6           0       -0.450810   -0.674119    1.300193
     24          1           0        0.007195   -0.194325    2.175324
     25          1           0        0.098860   -1.613344    1.144990
     26          8           0        1.941642   -0.404918   -0.816202
     27          6           0       -1.932568   -0.973830    1.599429
     28          1           0       -2.364033   -1.471958    0.718668
     29          6           0       -2.030602   -1.940776    2.788197
     30          1           0       -1.623712   -1.482216    3.698203
     31          1           0       -3.073340   -2.209003    2.988698
     32          1           0       -1.473764   -2.866619    2.602133
     33          6           0       -2.740693    0.304083    1.863926
     34          1           0       -2.312237    0.870228    2.701225
     35          1           0       -2.774633    0.963579    0.989182
     36          1           0       -3.775119    0.058639    2.126682
     37          7           0        1.876407    1.508925    0.425791
     38          1           0        1.297480    2.159960    0.938734
     39          6           0        3.278262    1.851614    0.224730
     40          1           0        3.813914    0.910288    0.067378
     41          6           0        3.904005    2.520353    1.442989
     42          6           0        3.502509    2.753875   -1.016355
     43          1           0        4.581821    2.916518   -1.110427
     44          1           0        3.041366    3.735235   -0.839335
     45          8           0        5.074328    2.809025    1.503460
     46          6           0        2.918510    2.122747   -2.281797
     47          1           0        3.306715    1.101311   -2.383201
     48          1           0        1.831593    2.039123   -2.182778
     49          6           0        3.204963    2.899719   -3.567797
     50          1           0        4.284439    2.984015   -3.745980
     51          1           0        2.795009    3.912647   -3.506343
     52          7           0        2.559455    2.204375   -4.690463
     53          1           0        2.488535    1.200116   -4.595926
     54          7           0        1.773532    4.052768   -5.837020
     55          1           0        1.110265    4.474247   -6.471178
     56          1           0        2.705215    4.445333   -5.863773
     57          7           0        0.659696    1.957272   -5.980731
     58          1           0        0.179723    2.381520   -6.773582
     59          6           0        1.626054    2.726167   -5.531244
     60          8           0        3.007225    2.794841    2.419671
     61          1           0        3.497317    3.240935    3.137203
     62          1           0       -1.025992   -3.990223   -6.682262
 ---------------------------------------------------------------------

 SCF Done:  E(RB3LYP) =  -1447.50129085     A.U. after    2 cycles

 Alpha  occ. eigenvalues --  -19.31964 -19.29185 -19.26805 -19.24658 -19.22868
 Alpha  occ. eigenvalues --  -19.21659 -14.53341 -14.48126 -14.47153 -14.46678
 Alpha  occ. eigenvalues --  -14.46515 -14.41919 -10.44931 -10.41666 -10.41569
 Alpha  occ. eigenvalues --  -10.41341 -10.38846 -10.37925 -10.33846 -10.33682
 Alpha  occ. eigenvalues --  -10.33416 -10.32715 -10.32500 -10.28916 -10.28595
 Alpha  occ. eigenvalues --  -10.28278 -10.27867 -10.25560 -10.25106  -1.23133
 Alpha  occ. eigenvalues --   -1.19809  -1.16807  -1.14070  -1.13640  -1.10832
 Alpha  occ. eigenvalues --   -1.10273  -1.08875  -1.04717  -1.02967  -1.00770
 Alpha  occ. eigenvalues --   -0.96715  -0.93340  -0.90898  -0.89607  -0.86966
 Alpha  occ. eigenvalues --   -0.85214  -0.83125  -0.78328  -0.77981  -0.76409
 Alpha  occ. eigenvalues --   -0.74542  -0.72908  -0.71875  -0.71447  -0.71362
 Alpha  occ. eigenvalues --   -0.69594  -0.69373  -0.68678  -0.67435  -0.65603
 Alpha  occ. eigenvalues --   -0.65329  -0.63783  -0.63256  -0.62651  -0.61602
 Alpha  occ. eigenvalues --   -0.60445  -0.60104  -0.59778  -0.58772  -0.58230
 Alpha  occ. eigenvalues --   -0.57747  -0.57115  -0.56938  -0.56273  -0.55505
 Alpha  occ. eigenvalues --   -0.55273  -0.55058  -0.54022  -0.53231  -0.53139
 Alpha  occ. eigenvalues --   -0.52617  -0.51982  -0.51387  -0.50892  -0.50439
 Alpha  occ. eigenvalues --   -0.49508  -0.49434  -0.49208  -0.48553  -0.48158
 Alpha  occ. eigenvalues --   -0.47815  -0.47343  -0.46775  -0.46264  -0.45955
 Alpha  occ. eigenvalues --   -0.44965  -0.44833  -0.44093  -0.43606  -0.41535
 Alpha  occ. eigenvalues --   -0.41300  -0.41171  -0.40845  -0.40736  -0.40504
 Alpha  occ. eigenvalues --   -0.38845  -0.37998  -0.37609  -0.37510  -0.35690
 Alpha  occ. eigenvalues --   -0.35019  -0.34375
 Alpha virt. eigenvalues --   -0.12194  -0.10841  -0.08436  -0.07844  -0.07568
 Alpha virt. eigenvalues --   -0.05960  -0.04302  -0.03806  -0.02946  -0.02624
 Alpha virt. eigenvalues --   -0.02244  -0.00284  -0.00161   0.00196   0.01208

 Mulliken charges:
               1
     1  N   -0.792077
     2  H    0.390426
     3  H    0.444780
     4  H    0.410039
     5  C   -0.095376
     6  H    0.205315
     7  C    0.629157
     8  C   -0.303204
     9  H    0.190344
    10  H    0.194849
    11  O   -0.522254
    12  C   -0.391480
    13  H    0.213169
    14  H    0.209070
    15  C    0.603221
    16  O   -0.488138
    17  O   -0.529883
    18  N   -0.575206
    19  H    0.344819
    20  C   -0.074361
    21  H    0.181074
    22  C    0.644484
    23  C   -0.292679
    24  H    0.160474
    25  H    0.155803
    26  O   -0.552396
    27  C   -0.070347
    28  H    0.124313
    29  C   -0.445495
    30  H    0.152634
    31  H    0.159680
    32  H    0.148269
    33  C   -0.455707
    34  H    0.148412
    35  H    0.145053
    36  H    0.163767
    37  N   -0.603530
    38  H    0.351578
    39  C   -0.064730
    40  H    0.217711
    41  C    0.597145
    42  C   -0.270534
    43  H    0.183800
    44  H    0.149948
    45  O   -0.441514
    46  C   -0.317224
    47  H    0.163210
    48  H    0.180294
    49  C   -0.139754
    50  H    0.169376
    51  H    0.173791
    52  N   -0.586385
    53  H    0.342234
    54  N   -0.741492
    55  H    0.352677
    56  H    0.360411
    57  N   -0.785392
    58  H    0.299523
    59  C    0.693865
    60  O   -0.578360
    61  H    0.429376
    62  H    0.433427
 Sum of Mulliken charges =   1.00000

 Dipole moment (field-independent basis, Debye):
    X=              0.1525    Y=              4.2517    Z=            -16.7446  Tot=             17.2766
 Quadrupole moment (field-independent basis, Debye-Ang):
   XX=           -162.0885   YY=           -124.9931   ZZ=            -49.4806
   XY=             20.1982   XZ=             -5.0826   YZ=            -14.9850

 Normal termination of Gaussian 16 at Wed Jun  1 02:21:29 2022.
