 Gaussian 16, Revision C.01,
 Gaussian 16:  ES64L-G16RevC.01  3-Jul-2019

 ----------------------------------------------------------------------
 # B3LYP/6-31G* empiricaldispersion=gd3 guess=read geom=check nosymm in
 tegral(ultrafinegrid)
 ----------------------------------------------------------------------

 ------------------------------------------------------
 Candidate Structure: Conf:123 Charge calc in gas phase
 ------------------------------------------------------
 Structure from the checkpoint file:  "conf-123.chk"
 Charge =  1 Multiplicity = 1

                          Input orientation:
 ---------------------------------------------------------------------
 Center     Atomic      Atomic             Coordinates (Angstroms)
 Number     Number       Type             X           Y           Z
 ---------------------------------------------------------------------
      1          7           0       -1.784714    1.184669   -4.452473
      2          1           0       -1.708038    0.899168   -5.452049
      3          1           0       -2.756307    1.301484   -4.153681
      4          1           0       -1.303748    2.120457   -4.319131
      5          6           0       -1.079493    0.154506   -3.621507
      6          1           0       -1.633822   -0.785891   -3.722693
      7          6           0       -1.165427    0.654858   -2.159762
      8          6           0        0.373808   -0.018257   -4.124301
      9          1           0        0.995975   -0.338904   -3.283022
     10          1           0        0.774398    0.961072   -4.413623
     11          8           0       -1.704974    1.734955   -1.923584
     12          6           0        0.579063   -1.043693   -5.249410
     13          1           0        1.650737   -1.207409   -5.402736
     14          1           0        0.176236   -2.024730   -4.959844
     15          6           0       -0.030966   -0.703875   -6.591994
     16          8           0       -0.922899    0.112156   -6.795409
     17          8           0        0.502981   -1.428207   -7.574164
     18          7           0       -0.613665   -0.169481   -1.246201
     19          1           0       -0.100926   -0.973129   -1.601790
     20          6           0        0.032690    0.340803   -0.030101
     21          1           0       -0.233402    1.395127    0.059529
     22          6           0        1.545450    0.206516   -0.313799
     23          6           0       -0.382056   -0.434639    1.228700
     24          1           0        0.154014    0.002708    2.082400
     25          1           0       -0.025033   -1.469051    1.134658
     26          8           0        1.953144   -0.645057   -1.113466
     27          6           0       -1.896002   -0.429442    1.511694
     28          1           0       -2.391678   -0.923587    0.663796
     29          6           0       -2.185518   -1.246602    2.778725
     30          1           0       -1.722548   -0.781104    3.657983
     31          1           0       -3.263085   -1.309786    2.964972
     32          1           0       -1.797064   -2.268550    2.697013
     33          6           0       -2.462104    0.993629    1.630778
     34          1           0       -1.932821    1.561095    2.407880
     35          1           0       -2.388705    1.547354    0.688162
     36          1           0       -3.520650    0.962623    1.911040
     37          7           0        2.347277    1.068882    0.332096
     38          1           0        1.955816    1.754293    0.967039
     39          6           0        3.769539    1.201335    0.049837
     40          1           0        4.133935    0.243729   -0.328979
     41          6           0        4.470949    1.547118    1.356603
     42          6           0        4.028777    2.331626   -0.980084
     43          1           0        5.109852    2.493294   -1.059535
     44          1           0        3.589170    3.247636   -0.566079
     45          8           0        3.911404    2.011508    2.325126
     46          6           0        3.405544    2.053513   -2.356588
     47          1           0        4.021048    1.339483   -2.916088
     48          1           0        2.434932    1.584103   -2.215467
     49          6           0        3.181347    3.342106   -3.177377
     50          1           0        3.956432    3.469145   -3.938022
     51          1           0        3.216020    4.218057   -2.517536
     52          7           0        1.888592    3.329319   -3.886995
     53          1           0        1.905356    3.766721   -4.799771
     54          7           0       -0.441222    3.693787   -3.960039
     55          1           0       -1.171174    4.146314   -3.413283
     56          1           0       -0.275251    4.257766   -4.793611
     57          7           0        0.741915    3.445188   -1.871509
     58          1           0       -0.199063    3.513527   -1.487144
     59          6           0        0.737085    3.529248   -3.147129
     60          8           0        5.795645    1.329954    1.274360
     61          1           0        6.192280    1.617113    2.119521
     62          1           0        0.049291   -1.201454   -8.409921
 ---------------------------------------------------------------------

 SCF Done:  E(RB3LYP) =  -1447.49412989     A.U. after    1 cycles

 Alpha  occ. eigenvalues --  -19.32890 -19.28512 -19.28510 -19.25131 -19.22947
 Alpha  occ. eigenvalues --  -19.21926 -14.55768 -14.48743 -14.47724 -14.46487
 Alpha  occ. eigenvalues --  -14.46164 -14.40113 -10.46341 -10.42241 -10.40987
 Alpha  occ. eigenvalues --  -10.39954 -10.39179 -10.38976 -10.33613 -10.33574
 Alpha  occ. eigenvalues --  -10.33181 -10.33084 -10.31667 -10.28093 -10.27719
 Alpha  occ. eigenvalues --  -10.27261 -10.26929 -10.24657 -10.24355  -1.24436
 Alpha  occ. eigenvalues --   -1.19479  -1.17221  -1.15430  -1.13851  -1.11020
 Alpha  occ. eigenvalues --   -1.10661  -1.09379  -1.04814  -1.02748  -1.00768
 Alpha  occ. eigenvalues --   -0.96088  -0.94114  -0.90495  -0.88834  -0.87230
 Alpha  occ. eigenvalues --   -0.84794  -0.82821  -0.79301  -0.77268  -0.75648
 Alpha  occ. eigenvalues --   -0.74416  -0.72833  -0.72255  -0.71538  -0.71180
 Alpha  occ. eigenvalues --   -0.69440  -0.69109  -0.68371  -0.67816  -0.65759
 Alpha  occ. eigenvalues --   -0.65603  -0.63995  -0.63821  -0.62950  -0.62569
 Alpha  occ. eigenvalues --   -0.60989  -0.59821  -0.59424  -0.58445  -0.58430
 Alpha  occ. eigenvalues --   -0.57146  -0.56969  -0.56819  -0.55916  -0.55459
 Alpha  occ. eigenvalues --   -0.54842  -0.54420  -0.54064  -0.53861  -0.53303
 Alpha  occ. eigenvalues --   -0.52439  -0.51757  -0.51206  -0.50800  -0.50532
 Alpha  occ. eigenvalues --   -0.50036  -0.49587  -0.49319  -0.48720  -0.48035
 Alpha  occ. eigenvalues --   -0.47160  -0.47011  -0.46546  -0.45566  -0.45470
 Alpha  occ. eigenvalues --   -0.44401  -0.44230  -0.44015  -0.43208  -0.42111
 Alpha  occ. eigenvalues --   -0.41014  -0.40560  -0.40526  -0.40378  -0.39961
 Alpha  occ. eigenvalues --   -0.38884  -0.38260  -0.37329  -0.36752  -0.35716
 Alpha  occ. eigenvalues --   -0.34974  -0.34141
 Alpha virt. eigenvalues --   -0.13005  -0.11786  -0.08175  -0.07761  -0.07565
 Alpha virt. eigenvalues --   -0.07074  -0.04866  -0.03955  -0.03344  -0.01151
 Alpha virt. eigenvalues --   -0.01040  -0.00592  -0.00218   0.00291   0.00482

 Mulliken charges:
               1
     1  N   -0.781795
     2  H    0.430565
     3  H    0.396079
     4  H    0.451088
     5  C   -0.129461
     6  H    0.205729
     7  C    0.641570
     8  C   -0.338294
     9  H    0.231387
    10  H    0.191202
    11  O   -0.538477
    12  C   -0.372571
    13  H    0.220701
    14  H    0.208890
    15  C    0.607779
    16  O   -0.503771
    17  O   -0.525155
    18  N   -0.569733
    19  H    0.349843
    20  C   -0.108690
    21  H    0.192390
    22  C    0.647634
    23  C   -0.264279
    24  H    0.155480
    25  H    0.153147
    26  O   -0.558628
    27  C   -0.067033
    28  H    0.129188
    29  C   -0.446101
    30  H    0.151450
    31  H    0.155988
    32  H    0.148091
    33  C   -0.470087
    34  H    0.144620
    35  H    0.155409
    36  H    0.157784
    37  N   -0.577788
    38  H    0.356931
    39  C   -0.064604
    40  H    0.207661
    41  C    0.591063
    42  C   -0.275789
    43  H    0.172489
    44  H    0.166000
    45  O   -0.458455
    46  C   -0.265830
    47  H    0.148204
    48  H    0.178288
    49  C   -0.136991
    50  H    0.158251
    51  H    0.174668
    52  N   -0.587378
    53  H    0.323768
    54  N   -0.810933
    55  H    0.358271
    56  H    0.338708
    57  N   -0.632666
    58  H    0.309670
    59  C    0.567823
    60  O   -0.558887
    61  H    0.427906
    62  H    0.437680
 Sum of Mulliken charges =   1.00000

 Dipole moment (field-independent basis, Debye):
    X=              0.2790    Y=              6.2762    Z=            -19.4379  Tot=             20.4279
 Quadrupole moment (field-independent basis, Debye-Ang):
   XX=           -134.2541   YY=           -139.0145   ZZ=            -51.7525
   XY=             10.0243   XZ=             12.5778   YZ=            -26.2293

 Normal termination of Gaussian 16 at Wed Jun  1 02:21:21 2022.
