 Gaussian 16, Revision C.01,
 Gaussian 16:  ES64L-G16RevC.01  3-Jul-2019

 ----------------------------------------------------------------------
 # B3LYP/6-31G* empiricaldispersion=gd3 guess=read geom=check nosymm in
 tegral(ultrafinegrid)
 ----------------------------------------------------------------------

 ------------------------------------------------------
 Candidate Structure: Conf:234 Charge calc in gas phase
 ------------------------------------------------------
 Structure from the checkpoint file:  "conf-234.chk"
 Charge =  1 Multiplicity = 1

                          Input orientation:
 ---------------------------------------------------------------------
 Center     Atomic      Atomic             Coordinates (Angstroms)
 Number     Number       Type             X           Y           Z
 ---------------------------------------------------------------------
      1          7           0       -0.811428    0.932374   -4.461939
      2          1           0       -0.964371    1.821660   -3.962662
      3          1           0        0.141821    1.008028   -4.998373
      4          1           0       -1.539722    0.744144   -5.164310
      5          6           0       -0.869347   -0.162669   -3.443459
      6          1           0       -1.916845   -0.473944   -3.389927
      7          6           0       -0.510854    0.485781   -2.088635
      8          6           0        0.002801   -1.364223   -3.843227
      9          1           0       -0.208246   -2.180408   -3.143885
     10          1           0        1.061142   -1.105428   -3.727979
     11          8           0       -0.395763    1.711540   -2.018127
     12          6           0       -0.210709   -1.881826   -5.287323
     13          1           0        0.273193   -1.188410   -5.982630
     14          1           0        0.268956   -2.856539   -5.396402
     15          6           0       -1.664708   -1.964005   -5.703119
     16          8           0       -2.403143   -0.993094   -5.788841
     17          8           0       -2.066767   -3.208837   -5.973616
     18          7           0       -0.419537   -0.343703   -1.033011
     19          1           0       -0.363010   -1.341639   -1.183778
     20          6           0       -0.035121    0.138280    0.304704
     21          1           0       -0.625562    1.037543    0.496525
     22          6           0        1.468284    0.470650    0.236625
     23          6           0       -0.310068   -0.935646    1.360332
     24          1           0       -0.017958   -0.516070    2.331960
     25          1           0        0.374887   -1.772826    1.173525
     26          8           0        2.297879   -0.418544    0.066741
     27          6           0       -1.765598   -1.434636    1.441611
     28          1           0       -2.032935   -1.886975    0.473589
     29          6           0       -1.872563   -2.529318    2.513107
     30          1           0       -1.634857   -2.125736    3.505128
     31          1           0       -2.887431   -2.939223    2.554896
     32          1           0       -1.180830   -3.356199    2.314365
     33          6           0       -2.757907   -0.296615    1.719029
     34          1           0       -2.501945    0.223879    2.650590
     35          1           0       -2.775958    0.445192    0.912137
     36          1           0       -3.775332   -0.687535    1.826969
     37          7           0        1.763342    1.789447    0.297150
     38          1           0        1.020600    2.473340    0.369753
     39          6           0        3.088289    2.313427    0.028096
     40          1           0        3.823532    1.563429    0.331124
     41          6           0        3.269349    3.581914    0.852433
     42          6           0        3.268085    2.658394   -1.471585
     43          1           0        4.224388    3.179359   -1.600896
     44          1           0        2.472924    3.364432   -1.747358
     45          8           0        2.357015    4.231417    1.311843
     46          6           0        3.212301    1.429909   -2.387130
     47          1           0        4.087229    0.793819   -2.199535
     48          1           0        2.336789    0.817819   -2.160997
     49          6           0        3.156351    1.839906   -3.857559
     50          1           0        3.962025    2.551695   -4.090242
     51          1           0        2.210621    2.338942   -4.077579
     52          7           0        3.262797    0.676915   -4.746241
     53          1           0        4.124387    0.150929   -4.671273
     54          7           0        3.240399   -0.176700   -6.893604
     55          1           0        2.771585   -0.306697   -7.779676
     56          1           0        4.247349   -0.102409   -6.966087
     57          7           0        1.383145    1.046346   -6.062727
     58          1           0        1.077463    1.033718   -7.034107
     59          6           0        2.590720    0.559874   -5.929316
     60          8           0        4.568442    3.920753    0.949739
     61          1           0        4.614589    4.759889    1.447471
     62          1           0       -3.004430   -3.172927   -6.249654
 ---------------------------------------------------------------------

 SCF Done:  E(RB3LYP) =  -1447.50194263     A.U. after    1 cycles

 Alpha  occ. eigenvalues --  -19.32303 -19.28557 -19.27060 -19.25131 -19.22980
 Alpha  occ. eigenvalues --  -19.20367 -14.53629 -14.48852 -14.48064 -14.47689
 Alpha  occ. eigenvalues --  -14.45303 -14.42748 -10.45238 -10.42508 -10.42208
 Alpha  occ. eigenvalues --  -10.41005 -10.38303 -10.37793 -10.34054 -10.33492
 Alpha  occ. eigenvalues --  -10.33056 -10.32985 -10.32921 -10.28944 -10.28594
 Alpha  occ. eigenvalues --  -10.27674 -10.27641 -10.25254 -10.24795  -1.23423
 Alpha  occ. eigenvalues --   -1.19504  -1.17207  -1.14366  -1.12581  -1.11099
 Alpha  occ. eigenvalues --   -1.10671  -1.09239  -1.05091  -1.02054  -1.01533
 Alpha  occ. eigenvalues --   -0.97574  -0.93821  -0.90627  -0.89726  -0.87063
 Alpha  occ. eigenvalues --   -0.85345  -0.83155  -0.78616  -0.78205  -0.76107
 Alpha  occ. eigenvalues --   -0.74560  -0.72515  -0.72424  -0.71897  -0.70803
 Alpha  occ. eigenvalues --   -0.70378  -0.69467  -0.67866  -0.67751  -0.66727
 Alpha  occ. eigenvalues --   -0.65514  -0.65245  -0.62996  -0.62647  -0.61532
 Alpha  occ. eigenvalues --   -0.60467  -0.59719  -0.59566  -0.58718  -0.58314
 Alpha  occ. eigenvalues --   -0.58069  -0.57839  -0.56765  -0.56694  -0.55997
 Alpha  occ. eigenvalues --   -0.55047  -0.54538  -0.54181  -0.53859  -0.53614
 Alpha  occ. eigenvalues --   -0.52924  -0.51517  -0.51346  -0.50777  -0.50063
 Alpha  occ. eigenvalues --   -0.49991  -0.49214  -0.48944  -0.48760  -0.48250
 Alpha  occ. eigenvalues --   -0.47672  -0.47357  -0.46779  -0.45863  -0.45520
 Alpha  occ. eigenvalues --   -0.45151  -0.44487  -0.44381  -0.43660  -0.41579
 Alpha  occ. eigenvalues --   -0.41011  -0.40956  -0.40853  -0.40786  -0.40582
 Alpha  occ. eigenvalues --   -0.39286  -0.38967  -0.38477  -0.36733  -0.35598
 Alpha  occ. eigenvalues --   -0.34637  -0.33662
 Alpha virt. eigenvalues --   -0.12511  -0.10985  -0.08752  -0.08059  -0.07115
 Alpha virt. eigenvalues --   -0.06536  -0.05308  -0.03624  -0.02922  -0.01543
 Alpha virt. eigenvalues --   -0.00786  -0.00697  -0.00319  -0.00094   0.00618

 Mulliken charges:
               1
     1  N   -0.798618
     2  H    0.403208
     3  H    0.445929
     4  H    0.408746
     5  C   -0.104263
     6  H    0.220698
     7  C    0.654258
     8  C   -0.314658
     9  H    0.178923
    10  H    0.202694
    11  O   -0.540563
    12  C   -0.366829
    13  H    0.188072
    14  H    0.207015
    15  C    0.593471
    16  O   -0.485150
    17  O   -0.531972
    18  N   -0.598496
    19  H    0.351379
    20  C   -0.059555
    21  H    0.177498
    22  C    0.635900
    23  C   -0.302039
    24  H    0.166586
    25  H    0.167844
    26  O   -0.542021
    27  C   -0.075634
    28  H    0.107346
    29  C   -0.444042
    30  H    0.155859
    31  H    0.156494
    32  H    0.148265
    33  C   -0.452554
    34  H    0.155417
    35  H    0.140151
    36  H    0.160517
    37  N   -0.583361
    38  H    0.356986
    39  C   -0.053269
    40  H    0.207674
    41  C    0.588480
    42  C   -0.276074
    43  H    0.171194
    44  H    0.158013
    45  O   -0.455260
    46  C   -0.274831
    47  H    0.155124
    48  H    0.163919
    49  C   -0.139563
    50  H    0.164527
    51  H    0.182732
    52  N   -0.601260
    53  H    0.338562
    54  N   -0.753780
    55  H    0.350006
    56  H    0.352367
    57  N   -0.753078
    58  H    0.302774
    59  C    0.688090
    60  O   -0.560787
    61  H    0.427490
    62  H    0.433453
 Sum of Mulliken charges =   1.00000

 Dipole moment (field-independent basis, Debye):
    X=              4.1875    Y=             -0.2577    Z=            -20.8292  Tot=             21.2475
 Quadrupole moment (field-independent basis, Debye-Ang):
   XX=           -123.7731   YY=           -153.0939   ZZ=            -33.6840
   XY=             25.7630   XZ=            -26.1835   YZ=             10.1566

 Normal termination of Gaussian 16 at Wed Jun  1 02:21:20 2022.
