 Gaussian 16, Revision C.01,
 Gaussian 16:  ES64L-G16RevC.01  3-Jul-2019

 ----------------------------------------------------------------------
 # B3LYP/6-31G* empiricaldispersion=gd3 guess=read geom=check nosymm in
 tegral(ultrafinegrid)
 ----------------------------------------------------------------------

 ------------------------------------------------------
 Candidate Structure: Conf:747 Charge calc in gas phase
 ------------------------------------------------------
 Structure from the checkpoint file:  "conf-747.chk"
 Charge =  1 Multiplicity = 1

                          Input orientation:
 ---------------------------------------------------------------------
 Center     Atomic      Atomic             Coordinates (Angstroms)
 Number     Number       Type             X           Y           Z
 ---------------------------------------------------------------------
      1          7           0       -3.511601   -1.443277   -2.997164
      2          1           0       -3.932203   -2.373296   -2.930905
      3          1           0       -3.621873   -0.919159   -2.064692
      4          1           0       -3.976389   -0.928295   -3.749714
      5          6           0       -1.999261   -1.460521   -3.133508
      6          1           0       -1.679992   -2.506468   -3.151751
      7          6           0       -1.543640   -0.779532   -1.808515
      8          6           0       -1.531273   -0.717996   -4.385927
      9          1           0       -0.441107   -0.634104   -4.349484
     10          1           0       -1.898788    0.315581   -4.359668
     11          8           0       -2.431875   -0.351382   -1.050856
     12          6           0       -1.928114   -1.399937   -5.698347
     13          1           0       -1.575886   -2.439314   -5.729007
     14          1           0       -3.014497   -1.443735   -5.851706
     15          6           0       -1.319713   -0.665229   -6.884947
     16          8           0       -0.539189    0.253005   -6.788618
     17          8           0       -1.761477   -1.180563   -8.045204
     18          7           0       -0.241436   -0.697972   -1.603581
     19          1           0        0.451881   -1.070884   -2.254875
     20          6           0        0.382508   -0.061613   -0.438796
     21          1           0       -0.166083    0.857668   -0.216823
     22          6           0        1.817605    0.233218   -0.911481
     23          6           0        0.355590   -1.020396    0.775099
     24          1           0        0.867897   -1.943048    0.473831
     25          1           0       -0.697808   -1.273364    0.953600
     26          8           0        2.319059   -0.463599   -1.797180
     27          6           0        0.977395   -0.493173    2.082620
     28          1           0        2.044459   -0.298169    1.921339
     29          6           0        0.303372    0.794471    2.580294
     30          1           0       -0.768773    0.634865    2.751525
     31          1           0        0.750605    1.118416    3.525361
     32          1           0        0.392490    1.634277    1.877417
     33          6           0        0.889752   -1.583881    3.159808
     34          1           0       -0.154266   -1.817762    3.404662
     35          1           0        1.373720   -2.509135    2.825127
     36          1           0        1.391423   -1.253496    4.074161
     37          7           0        2.454149    1.255080   -0.312302
     38          1           0        1.995483    1.735593    0.449234
     39          6           0        3.888041    1.500829   -0.507751
     40          1           0        4.078413    2.488604   -0.069061
     41          6           0        4.232301    1.637831   -1.995245
     42          6           0        4.743441    0.444427    0.205852
     43          1           0        4.725833   -0.479332   -0.381688
     44          1           0        4.250578    0.232859    1.159390
     45          8           0        5.246418    1.220901   -2.500535
     46          6           0        6.187205    0.881017    0.477906
     47          1           0        6.726582    1.023800   -0.463855
     48          1           0        6.184206    1.853233    0.995588
     49          6           0        6.941533   -0.137198    1.349687
     50          1           0        7.962263    0.220333    1.528111
     51          1           0        7.019239   -1.091622    0.821954
     52          7           0        6.291956   -0.382683    2.645065
     53          1           0        5.958968    0.462346    3.097905
     54          7           0        5.786271   -2.635214    2.335278
     55          1           0        5.204466   -3.419604    2.600382
     56          1           0        6.773760   -2.830445    2.458835
     57          7           0        4.236384   -1.139586    3.402447
     58          1           0        3.737091   -1.999389    3.636555
     59          6           0        5.365044   -1.402060    2.833962
     60          8           0        3.302527    2.355636   -2.664229
     61          1           0        3.620809    2.422038   -3.584550
     62          1           0       -1.330075   -0.690337   -8.771887
 ---------------------------------------------------------------------

 SCF Done:  E(RB3LYP) =  -1447.44760823     A.U. after    3 cycles

 Alpha  occ. eigenvalues --  -19.30656 -19.28068 -19.27221 -19.25325 -19.22763
 Alpha  occ. eigenvalues --  -19.21599 -14.60944 -14.50490 -14.46933 -14.41221
 Alpha  occ. eigenvalues --  -14.40192 -14.34853 -10.44656 -10.43819 -10.42154
 Alpha  occ. eigenvalues --  -10.39946 -10.39692 -10.35220 -10.35165 -10.34354
 Alpha  occ. eigenvalues --  -10.34268 -10.32982 -10.28772 -10.28066 -10.27495
 Alpha  occ. eigenvalues --  -10.26058 -10.25633 -10.25092 -10.24950  -1.21727
 Alpha  occ. eigenvalues --   -1.20473  -1.18251  -1.15044  -1.14526  -1.13012
 Alpha  occ. eigenvalues --   -1.09274  -1.07196  -1.03578  -1.03302  -0.96142
 Alpha  occ. eigenvalues --   -0.94738  -0.91471  -0.90406  -0.88816  -0.87607
 Alpha  occ. eigenvalues --   -0.84836  -0.81409  -0.80116  -0.77040  -0.76198
 Alpha  occ. eigenvalues --   -0.75335  -0.74815  -0.73809  -0.72784  -0.71552
 Alpha  occ. eigenvalues --   -0.70630  -0.68080  -0.67426  -0.66049  -0.65559
 Alpha  occ. eigenvalues --   -0.64950  -0.64492  -0.62126  -0.61551  -0.60503
 Alpha  occ. eigenvalues --   -0.60249  -0.59013  -0.58957  -0.58566  -0.57399
 Alpha  occ. eigenvalues --   -0.57147  -0.56885  -0.55844  -0.55350  -0.54518
 Alpha  occ. eigenvalues --   -0.53824  -0.53556  -0.53346  -0.52406  -0.51945
 Alpha  occ. eigenvalues --   -0.51903  -0.51728  -0.51137  -0.50948  -0.49825
 Alpha  occ. eigenvalues --   -0.49684  -0.49416  -0.48596  -0.47937  -0.47496
 Alpha  occ. eigenvalues --   -0.46603  -0.46204  -0.45444  -0.44894  -0.44342
 Alpha  occ. eigenvalues --   -0.43363  -0.43043  -0.42949  -0.42554  -0.41656
 Alpha  occ. eigenvalues --   -0.41496  -0.40667  -0.40491  -0.39271  -0.39210
 Alpha  occ. eigenvalues --   -0.39042  -0.36674  -0.36505  -0.34602  -0.32608
 Alpha  occ. eigenvalues --   -0.31894  -0.28702
 Alpha virt. eigenvalues --   -0.13316  -0.12555  -0.10275  -0.08560  -0.07441
 Alpha virt. eigenvalues --   -0.07114  -0.05513  -0.02935  -0.02772  -0.02197
 Alpha virt. eigenvalues --   -0.01930  -0.01775  -0.00422  -0.00028   0.00485

 Mulliken charges:
               1
     1  N   -0.762520
     2  H    0.417395
     3  H    0.438893
     4  H    0.413098
     5  C   -0.111102
     6  H    0.219848
     7  C    0.661503
     8  C   -0.302582
     9  H    0.223071
    10  H    0.193442
    11  O   -0.546563
    12  C   -0.378679
    13  H    0.204391
    14  H    0.170832
    15  C    0.599819
    16  O   -0.436986
    17  O   -0.555792
    18  N   -0.607299
    19  H    0.375696
    20  C   -0.072752
    21  H    0.190859
    22  C    0.642945
    23  C   -0.257615
    24  H    0.152516
    25  H    0.158850
    26  O   -0.544218
    27  C   -0.107687
    28  H    0.174185
    29  C   -0.463001
    30  H    0.156229
    31  H    0.177954
    32  H    0.118633
    33  C   -0.446789
    34  H    0.141751
    35  H    0.137012
    36  H    0.178089
    37  N   -0.604592
    38  H    0.355598
    39  C   -0.058105
    40  H    0.182831
    41  C    0.618075
    42  C   -0.283626
    43  H    0.177694
    44  H    0.183564
    45  O   -0.448368
    46  C   -0.288616
    47  H    0.181474
    48  H    0.127567
    49  C   -0.155512
    50  H    0.160345
    51  H    0.168831
    52  N   -0.567840
    53  H    0.324919
    54  N   -0.738210
    55  H    0.325233
    56  H    0.338278
    57  N   -0.667668
    58  H    0.266211
    59  C    0.566061
    60  O   -0.571675
    61  H    0.420021
    62  H    0.434084
 Sum of Mulliken charges =   1.00000

 Dipole moment (field-independent basis, Debye):
    X=             -6.9570    Y=             -6.4129    Z=            -12.1047  Tot=             15.3639
 Quadrupole moment (field-independent basis, Debye-Ang):
   XX=           -106.0013   YY=           -140.8215   ZZ=            -98.7772
   XY=             15.8749   XZ=             56.7730   YZ=             15.2826

 Normal termination of Gaussian 16 at Wed Jun  1 02:21:38 2022.
