 Gaussian 16, Revision C.01,
 Gaussian 16:  ES64L-G16RevC.01  3-Jul-2019

 ----------------------------------------------------------------------
 # B3LYP/6-31G* empiricaldispersion=gd3 guess=read geom=check nosymm in
 tegral(ultrafinegrid)
 ----------------------------------------------------------------------

 ------------------------------------------------------
 Candidate Structure: Conf:497 Charge calc in gas phase
 ------------------------------------------------------
 Structure from the checkpoint file:  "conf-497.chk"
 Charge =  1 Multiplicity = 1

                          Input orientation:
 ---------------------------------------------------------------------
 Center     Atomic      Atomic             Coordinates (Angstroms)
 Number     Number       Type             X           Y           Z
 ---------------------------------------------------------------------
      1          7           0       -2.998671   -1.842418   -4.191040
      2          1           0       -3.575351   -1.194372   -3.616110
      3          1           0       -2.723224   -1.324611   -5.031182
      4          1           0       -3.468358   -2.730443   -4.461949
      5          6           0       -1.814966   -2.188556   -3.323251
      6          1           0       -2.185286   -2.981061   -2.666008
      7          6           0       -1.596079   -0.920941   -2.456773
      8          6           0       -0.618381   -2.698967   -4.137220
      9          1           0        0.075711   -3.167125   -3.431527
     10          1           0       -0.082871   -1.854935   -4.586670
     11          8           0       -2.542388   -0.130656   -2.363686
     12          6           0       -0.951370   -3.714966   -5.260655
     13          1           0       -1.401437   -3.196464   -6.116307
     14          1           0       -0.025693   -4.172407   -5.614919
     15          6           0       -1.940870   -4.788262   -4.846553
     16          8           0       -3.102679   -4.551084   -4.534495
     17          8           0       -1.426463   -6.012943   -4.854306
     18          7           0       -0.419417   -0.820255   -1.845602
     19          1           0        0.370515   -1.420070   -2.084175
     20          6           0        0.001249    0.309381   -1.016558
     21          1           0       -0.548854    1.199184   -1.335541
     22          6           0        1.507771    0.454313   -1.297208
     23          6           0       -0.214368    0.033919    0.488931
     24          1           0        0.259598    0.843457    1.058386
     25          1           0        0.350419   -0.872245    0.740982
     26          8           0        2.136925   -0.479816   -1.797250
     27          6           0       -1.681653   -0.109479    0.931355
     28          1           0       -2.150875   -0.894119    0.319605
     29          6           0       -1.726498   -0.562334    2.398551
     30          1           0       -1.265450    0.188784    3.051881
     31          1           0       -2.760282   -0.703544    2.732256
     32          1           0       -1.190020   -1.506860    2.546283
     33          6           0       -2.476695    1.188997    0.734671
     34          1           0       -2.012457    2.015723    1.288047
     35          1           0       -2.550224    1.469207   -0.320505
     36          1           0       -3.498777    1.074164    1.111885
     37          7           0        2.071708    1.625756   -0.931447
     38          1           0        1.512922    2.273333   -0.389012
     39          6           0        3.517943    1.728540   -0.757983
     40          1           0        4.005006    1.420948   -1.687298
     41          6           0        3.943805    0.760980    0.352046
     42          6           0        3.870766    3.189321   -0.416083
     43          1           0        3.424614    3.455238    0.549711
     44          1           0        3.377077    3.824645   -1.157833
     45          8           0        3.213206    0.354763    1.227879
     46          6           0        5.369551    3.502774   -0.397927
     47          1           0        5.886844    2.862095    0.325386
     48          1           0        5.805986    3.268093   -1.379792
     49          6           0        5.671973    4.967120   -0.036684
     50          1           0        6.759032    5.091916    0.040183
     51          1           0        5.239585    5.209491    0.937333
     52          7           0        5.174551    5.959096   -0.977017
     53          1           0        5.551143    5.925469   -1.915081
     54          7           0        3.706846    7.502438   -1.860116
     55          1           0        2.869750    8.055389   -1.721364
     56          1           0        4.505729    8.094092   -2.066092
     57          7           0        3.124958    6.214732    0.094323
     58          1           0        2.330043    6.853278    0.139844
     59          6           0        3.934549    6.556972   -0.846690
     60          8           0        5.248263    0.438148    0.253037
     61          1           0        5.458136   -0.143513    1.008936
     62          1           0       -2.123786   -6.649144   -4.595610
 ---------------------------------------------------------------------

 SCF Done:  E(RB3LYP) =  -1447.46481756     A.U. after    2 cycles

 Alpha  occ. eigenvalues --  -19.34251 -19.29322 -19.27530 -19.25903 -19.22246
 Alpha  occ. eigenvalues --  -19.21773 -14.59320 -14.49074 -14.45736 -14.40510
 Alpha  occ. eigenvalues --  -14.40425 -14.34016 -10.47440 -10.43271 -10.40880
 Alpha  occ. eigenvalues --  -10.39737 -10.38972 -10.36141 -10.35423 -10.34110
 Alpha  occ. eigenvalues --  -10.33888 -10.32023 -10.27710 -10.27455 -10.27150
 Alpha  occ. eigenvalues --  -10.26164 -10.25097 -10.24570 -10.24510  -1.25549
 Alpha  occ. eigenvalues --   -1.18540  -1.18403  -1.16554  -1.14232  -1.13461
 Alpha  occ. eigenvalues --   -1.09440  -1.05775  -1.03185  -1.02450  -0.96110
 Alpha  occ. eigenvalues --   -0.94416  -0.90907  -0.89678  -0.88568  -0.87501
 Alpha  occ. eigenvalues --   -0.84372  -0.81156  -0.80554  -0.75821  -0.75362
 Alpha  occ. eigenvalues --   -0.75112  -0.74491  -0.73975  -0.72723  -0.71652
 Alpha  occ. eigenvalues --   -0.69892  -0.67539  -0.67098  -0.65492  -0.65393
 Alpha  occ. eigenvalues --   -0.64326  -0.64128  -0.62980  -0.62062  -0.61016
 Alpha  occ. eigenvalues --   -0.59865  -0.59434  -0.58978  -0.58199  -0.57898
 Alpha  occ. eigenvalues --   -0.57455  -0.56692  -0.56124  -0.55332  -0.54953
 Alpha  occ. eigenvalues --   -0.54168  -0.53911  -0.52807  -0.52147  -0.52109
 Alpha  occ. eigenvalues --   -0.51812  -0.51252  -0.50913  -0.50720  -0.50086
 Alpha  occ. eigenvalues --   -0.49384  -0.49158  -0.48694  -0.47724  -0.47145
 Alpha  occ. eigenvalues --   -0.46627  -0.46369  -0.45645  -0.44611  -0.44144
 Alpha  occ. eigenvalues --   -0.44109  -0.43133  -0.42239  -0.41323  -0.41186
 Alpha  occ. eigenvalues --   -0.40766  -0.40608  -0.40432  -0.40117  -0.39231
 Alpha  occ. eigenvalues --   -0.38527  -0.36385  -0.35827  -0.34916  -0.32294
 Alpha  occ. eigenvalues --   -0.31039  -0.28086
 Alpha virt. eigenvalues --   -0.14580  -0.12216  -0.09623  -0.08172  -0.06470
 Alpha virt. eigenvalues --   -0.04977  -0.04478  -0.02710  -0.02049  -0.01273
 Alpha virt. eigenvalues --   -0.01167  -0.00879  -0.00383   0.00323   0.00917

 Mulliken charges:
               1
     1  N   -0.753484
     2  H    0.427132
     3  H    0.402365
     4  H    0.436488
     5  C   -0.126084
     6  H    0.238912
     7  C    0.656884
     8  C   -0.323916
     9  H    0.212338
    10  H    0.201504
    11  O   -0.537756
    12  C   -0.378418
    13  H    0.188502
    14  H    0.227996
    15  C    0.611424
    16  O   -0.491070
    17  O   -0.519544
    18  N   -0.605443
    19  H    0.370645
    20  C   -0.098147
    21  H    0.190235
    22  C    0.647308
    23  C   -0.251831
    24  H    0.161614
    25  H    0.161198
    26  O   -0.544783
    27  C   -0.072523
    28  H    0.114773
    29  C   -0.445370
    30  H    0.155827
    31  H    0.153955
    32  H    0.146637
    33  C   -0.461794
    34  H    0.143626
    35  H    0.160705
    36  H    0.156293
    37  N   -0.603783
    38  H    0.349579
    39  C   -0.028654
    40  H    0.192568
    41  C    0.599530
    42  C   -0.293215
    43  H    0.173906
    44  H    0.175973
    45  O   -0.469455
    46  C   -0.273869
    47  H    0.155696
    48  H    0.132539
    49  C   -0.130947
    50  H    0.150150
    51  H    0.188744
    52  N   -0.594541
    53  H    0.320049
    54  N   -0.758999
    55  H    0.324406
    56  H    0.328921
    57  N   -0.665443
    58  H    0.268150
    59  C    0.595286
    60  O   -0.556359
    61  H    0.421490
    62  H    0.442075
 Sum of Mulliken charges =   1.00000

 Dipole moment (field-independent basis, Debye):
    X=             -2.8246    Y=             -4.9527    Z=            -17.7451  Tot=             18.6386
 Quadrupole moment (field-independent basis, Debye-Ang):
   XX=           -119.9520   YY=            -75.8817   ZZ=            -89.6158
   XY=             47.7329   XZ=             28.7161   YZ=             33.6201

 Normal termination of Gaussian 16 at Wed Jun  1 02:21:28 2022.
