 Gaussian 16, Revision C.01,
 Gaussian 16:  ES64L-G16RevC.01  3-Jul-2019

 ----------------------------------------------------------------------
 # B3LYP/6-31G* empiricaldispersion=gd3 guess=read geom=check nosymm in
 tegral(ultrafinegrid)
 ----------------------------------------------------------------------

 ------------------------------------------------------
 Candidate Structure: Conf:796 Charge calc in gas phase
 ------------------------------------------------------
 Structure from the checkpoint file:  "conf-796.chk"
 Charge =  1 Multiplicity = 1

                          Input orientation:
 ---------------------------------------------------------------------
 Center     Atomic      Atomic             Coordinates (Angstroms)
 Number     Number       Type             X           Y           Z
 ---------------------------------------------------------------------
      1          7           0       -2.496037   -0.439883   -4.136729
      2          1           0       -3.074512   -1.280936   -4.053205
      3          1           0       -2.884430    0.300059   -3.483954
      4          1           0       -2.506870   -0.123900   -5.110796
      5          6           0       -1.090363   -0.619652   -3.589173
      6          1           0       -0.842445   -1.684027   -3.612014
      7          6           0       -1.230125   -0.076166   -2.142713
      8          6           0       -0.126791    0.214246   -4.446019
      9          1           0       -0.421229    1.266956   -4.377019
     10          1           0       -0.206657   -0.106829   -5.491822
     11          8           0       -2.182234    0.687241   -1.916343
     12          6           0        1.335159    0.111449   -4.006696
     13          1           0        1.471412    0.477007   -2.990112
     14          1           0        1.702285   -0.923611   -4.046334
     15          6           0        2.191451    0.937102   -4.943289
     16          8           0        1.928589    1.186026   -6.096041
     17          8           0        3.318528    1.380563   -4.326819
     18          7           0       -0.315863   -0.481261   -1.269740
     19          1           0        0.500545   -0.996437   -1.603533
     20          6           0       -0.018034    0.215274   -0.016141
     21          1           0       -0.441235    1.219513   -0.081342
     22          6           0        1.520175    0.321218    0.005225
     23          6           0       -0.553173   -0.540064    1.214318
     24          1           0       -0.188540   -0.031958    2.117383
     25          1           0       -0.103243   -1.541633    1.219049
     26          8           0        2.206304   -0.342761   -0.779582
     27          6           0       -2.087480   -0.652389    1.288069
     28          1           0       -2.438269   -1.106022    0.349459
     29          6           0       -2.479872   -1.582998    2.444845
     30          1           0       -2.146216   -1.172253    3.406072
     31          1           0       -3.567170   -1.705191    2.496861
     32          1           0       -2.032881   -2.577704    2.332477
     33          6           0       -2.760028    0.719967    1.436740
     34          1           0       -2.393183    1.238002    2.332447
     35          1           0       -2.585034    1.358018    0.565152
     36          1           0       -3.844320    0.606240    1.543812
     37          7           0        2.043682    1.146906    0.926214
     38          1           0        1.458005    1.658164    1.576931
     39          6           0        3.482710    1.335540    1.060598
     40          1           0        3.971235    0.355604    1.052935
     41          6           0        3.722326    1.999572    2.407447
     42          6           0        4.057076    2.188295   -0.095087
     43          1           0        3.765689    1.676186   -1.017595
     44          1           0        5.149941    2.156515   -0.039905
     45          8           0        2.844029    2.448636    3.113486
     46          6           0        3.551297    3.641725   -0.080990
     47          1           0        2.585033    3.707023    0.431767
     48          1           0        4.245812    4.275245    0.484504
     49          6           0        3.369038    4.228815   -1.489241
     50          1           0        4.288767    4.122061   -2.073975
     51          1           0        3.183338    5.307717   -1.421790
     52          7           0        2.306797    3.591922   -2.268125
     53          1           0        2.578099    2.776024   -2.803095
     54          7           0        0.576966    4.613541   -1.076651
     55          1           0       -0.424871    4.730645   -0.998502
     56          1           0        1.056819    5.498040   -1.192565
     57          7           0        0.221384    2.593481   -2.298917
     58          1           0       -0.753535    2.763381   -2.050226
     59          6           0        0.981621    3.568361   -1.899952
     60          8           0        5.032055    2.064135    2.694283
     61          1           0        5.123472    2.521659    3.552266
     62          1           0        3.834023    1.866736   -5.000013
 ---------------------------------------------------------------------

 SCF Done:  E(RB3LYP) =  -1447.48241835     A.U. after    1 cycles

 Alpha  occ. eigenvalues --  -19.30087 -19.29339 -19.26747 -19.24130 -19.23963
 Alpha  occ. eigenvalues --  -19.22672 -14.60333 -14.49051 -14.46559 -14.44343
 Alpha  occ. eigenvalues --  -14.43399 -14.37819 -10.43459 -10.42427 -10.41894
 Alpha  occ. eigenvalues --  -10.40722 -10.39613 -10.37898 -10.34239 -10.33605
 Alpha  occ. eigenvalues --  -10.32912 -10.31316 -10.30866 -10.28536 -10.27944
 Alpha  occ. eigenvalues --  -10.27766 -10.27208 -10.25266 -10.25139  -1.20634
 Alpha  occ. eigenvalues --   -1.20420  -1.19175  -1.14742  -1.13944  -1.11812
 Alpha  occ. eigenvalues --   -1.11598  -1.06926  -1.06057  -1.03208  -0.97859
 Alpha  occ. eigenvalues --   -0.94346  -0.93535  -0.90941  -0.88953  -0.87078
 Alpha  occ. eigenvalues --   -0.84964  -0.82985  -0.78826  -0.76880  -0.76302
 Alpha  occ. eigenvalues --   -0.75583  -0.74054  -0.73204  -0.72856  -0.71957
 Alpha  occ. eigenvalues --   -0.70103  -0.69018  -0.68912  -0.67032  -0.66274
 Alpha  occ. eigenvalues --   -0.64541  -0.63361  -0.62572  -0.61841  -0.60898
 Alpha  occ. eigenvalues --   -0.60198  -0.59218  -0.58577  -0.58495  -0.57927
 Alpha  occ. eigenvalues --   -0.57399  -0.56917  -0.56601  -0.56062  -0.55828
 Alpha  occ. eigenvalues --   -0.55239  -0.54336  -0.53304  -0.52947  -0.52314
 Alpha  occ. eigenvalues --   -0.51893  -0.51726  -0.51131  -0.50355  -0.49994
 Alpha  occ. eigenvalues --   -0.49692  -0.49519  -0.48493  -0.48206  -0.47909
 Alpha  occ. eigenvalues --   -0.47525  -0.47231  -0.46858  -0.46298  -0.44991
 Alpha  occ. eigenvalues --   -0.44521  -0.43398  -0.42814  -0.42065  -0.41973
 Alpha  occ. eigenvalues --   -0.41509  -0.41473  -0.41108  -0.41025  -0.39135
 Alpha  occ. eigenvalues --   -0.37801  -0.37576  -0.36445  -0.36337  -0.35934
 Alpha  occ. eigenvalues --   -0.35079  -0.31325
 Alpha virt. eigenvalues --   -0.12373  -0.11079  -0.09217  -0.08915  -0.07913
 Alpha virt. eigenvalues --   -0.06275  -0.04595  -0.04119  -0.03482  -0.01999
 Alpha virt. eigenvalues --   -0.01590  -0.01294  -0.00584  -0.00434   0.00760

 Mulliken charges:
               1
     1  N   -0.751682
     2  H    0.416320
     3  H    0.429572
     4  H    0.416428
     5  C   -0.134824
     6  H    0.208513
     7  C    0.691065
     8  C   -0.279212
     9  H    0.206917
    10  H    0.183741
    11  O   -0.558429
    12  C   -0.386445
    13  H    0.234420
    14  H    0.188054
    15  C    0.602454
    16  O   -0.443728
    17  O   -0.575183
    18  N   -0.586089
    19  H    0.369967
    20  C   -0.080441
    21  H    0.191599
    22  C    0.658762
    23  C   -0.259110
    24  H    0.152300
    25  H    0.152321
    26  O   -0.553221
    27  C   -0.068519
    28  H    0.118742
    29  C   -0.446850
    30  H    0.153584
    31  H    0.156020
    32  H    0.147429
    33  C   -0.461761
    34  H    0.145249
    35  H    0.155124
    36  H    0.156864
    37  N   -0.616880
    38  H    0.363732
    39  C   -0.046004
    40  H    0.206361
    41  C    0.594635
    42  C   -0.279323
    43  H    0.175737
    44  H    0.173724
    45  O   -0.465795
    46  C   -0.280752
    47  H    0.167336
    48  H    0.155228
    49  C   -0.165259
    50  H    0.164133
    51  H    0.152306
    52  N   -0.604224
    53  H    0.366433
    54  N   -0.746062
    55  H    0.335997
    56  H    0.343081
    57  N   -0.737102
    58  H    0.279245
    59  C    0.614798
    60  O   -0.558123
    61  H    0.430263
    62  H    0.426565
 Sum of Mulliken charges =   1.00000

 Dipole moment (field-independent basis, Debye):
    X=             -1.4692    Y=              3.5543    Z=            -11.0053  Tot=             11.6580
 Quadrupole moment (field-independent basis, Debye-Ang):
   XX=           -118.1660   YY=           -132.5724   ZZ=           -113.9581
   XY=             27.6027   XZ=             33.3363   YZ=              8.5887

 Normal termination of Gaussian 16 at Wed Jun  1 02:21:25 2022.
