 Gaussian 16, Revision C.01,
 Gaussian 16:  ES64L-G16RevC.01  3-Jul-2019

 ----------------------------------------------------------------------
 # B3LYP/6-31G* empiricaldispersion=gd3 guess=read geom=check nosymm in
 tegral(ultrafinegrid)
 ----------------------------------------------------------------------

 ------------------------------------------------------
 Candidate Structure: Conf:472 Charge calc in gas phase
 ------------------------------------------------------
 Structure from the checkpoint file:  "conf-472.chk"
 Charge =  1 Multiplicity = 1

                          Input orientation:
 ---------------------------------------------------------------------
 Center     Atomic      Atomic             Coordinates (Angstroms)
 Number     Number       Type             X           Y           Z
 ---------------------------------------------------------------------
      1          7           0       -1.392701   -1.078227   -5.112604
      2          1           0       -2.412428   -1.010747   -5.183899
      3          1           0       -1.003285   -0.103194   -4.953664
      4          1           0       -1.029276   -1.491979   -5.975717
      5          6           0       -0.935255   -1.794643   -3.853834
      6          1           0       -1.724015   -2.466010   -3.516197
      7          6           0       -0.701123   -0.613812   -2.878822
      8          6           0        0.363337   -2.561624   -4.181641
      9          1           0        1.071955   -1.856952   -4.634260
     10          1           0        0.122633   -3.325977   -4.932549
     11          8           0       -0.495910    0.502292   -3.379632
     12          6           0        1.082968   -3.219625   -2.986505
     13          1           0        1.945733   -3.773627   -3.362019
     14          1           0        1.453348   -2.435317   -2.311986
     15          6           0        0.195546   -4.134230   -2.177070
     16          8           0       -0.865821   -3.785127   -1.672560
     17          8           0        0.686106   -5.366635   -2.042693
     18          7           0       -0.722207   -0.897745   -1.581076
     19          1           0       -0.841549   -1.878425   -1.322397
     20          6           0       -0.191243    0.036916   -0.588476
     21          1           0       -0.752253    0.972355   -0.672116
     22          6           0        1.301934    0.288223   -0.907602
     23          6           0       -0.371847   -0.592100    0.807663
     24          1           0        0.202184   -1.528985    0.825412
     25          1           0       -1.431595   -0.862463    0.915232
     26          8           0        1.987669   -0.577799   -1.451385
     27          6           0        0.046172    0.280042    2.006835
     28          1           0        1.104793    0.543782    1.897804
     29          6           0       -0.765951    1.580724    2.097953
     30          1           0       -1.837539    1.366909    2.199496
     31          1           0       -0.456975    2.165110    2.970404
     32          1           0       -0.643949    2.229249    1.221212
     33          6           0       -0.103766   -0.534497    3.300623
     34          1           0       -1.149558   -0.823144    3.465880
     35          1           0        0.498261   -1.449959    3.269939
     36          1           0        0.220365    0.050933    4.167485
     37          7           0        1.773338    1.492688   -0.523492
     38          1           0        1.156127    2.132842   -0.042783
     39          6           0        3.180790    1.864042   -0.605092
     40          1           0        3.712744    0.998222   -1.003637
     41          6           0        3.787816    2.161097    0.764918
     42          6           0        3.411597    3.080087   -1.530344
     43          1           0        3.155922    2.778707   -2.553702
     44          1           0        4.486325    3.296031   -1.511339
     45          8           0        4.975254    2.211846    0.966403
     46          6           0        2.617492    4.326471   -1.120419
     47          1           0        1.543432    4.161656   -1.291892
     48          1           0        2.755010    4.542393   -0.056063
     49          6           0        3.067349    5.572386   -1.899045
     50          1           0        2.956517    5.411928   -2.978833
     51          1           0        4.126988    5.754561   -1.697423
     52          7           0        2.346270    6.790881   -1.559884
     53          1           0        1.389273    6.833170   -1.889628
     54          7           0        1.696761    8.489841   -0.134918
     55          1           0        1.903653    9.031457    0.695585
     56          1           0        1.612277    9.086354   -0.951897
     57          7           0        3.388260    6.897087    0.517280
     58          1           0        3.518720    7.518978    1.316046
     59          6           0        2.539723    7.383312   -0.316282
     60          8           0        2.851747    2.423647    1.713924
     61          1           0        3.337385    2.677165    2.522547
     62          1           0        0.078401   -5.877799   -1.471732
 ---------------------------------------------------------------------

 SCF Done:  E(RB3LYP) =  -1447.46311654     A.U. after    1 cycles

 Alpha  occ. eigenvalues --  -19.32274 -19.28129 -19.27122 -19.27089 -19.21997
 Alpha  occ. eigenvalues --  -19.21777 -14.61003 -14.49266 -14.46230 -14.40314
 Alpha  occ. eigenvalues --  -14.40307 -14.34012 -10.45240 -10.43597 -10.41199
 Alpha  occ. eigenvalues --  -10.40014 -10.39188 -10.35510 -10.34731 -10.33582
 Alpha  occ. eigenvalues --  -10.32306 -10.32297 -10.29206 -10.27946 -10.27629
 Alpha  occ. eigenvalues --  -10.26783 -10.26185 -10.25357 -10.24889  -1.23459
 Alpha  occ. eigenvalues --   -1.19668  -1.18621  -1.14757  -1.14312  -1.13717
 Alpha  occ. eigenvalues --   -1.09692  -1.06339  -1.03051  -1.02770  -0.95449
 Alpha  occ. eigenvalues --   -0.94327  -0.91394  -0.89572  -0.88126  -0.87809
 Alpha  occ. eigenvalues --   -0.84831  -0.81456  -0.80290  -0.76933  -0.75562
 Alpha  occ. eigenvalues --   -0.74607  -0.74591  -0.74231  -0.72655  -0.70991
 Alpha  occ. eigenvalues --   -0.70414  -0.69233  -0.66591  -0.65988  -0.65012
 Alpha  occ. eigenvalues --   -0.64287  -0.63957  -0.62647  -0.62011  -0.60687
 Alpha  occ. eigenvalues --   -0.60119  -0.59852  -0.59454  -0.58335  -0.57422
 Alpha  occ. eigenvalues --   -0.57218  -0.56331  -0.55789  -0.55035  -0.54432
 Alpha  occ. eigenvalues --   -0.53783  -0.53514  -0.53014  -0.52187  -0.52054
 Alpha  occ. eigenvalues --   -0.51464  -0.51208  -0.50873  -0.50679  -0.50141
 Alpha  occ. eigenvalues --   -0.49217  -0.49103  -0.48465  -0.48170  -0.47028
 Alpha  occ. eigenvalues --   -0.46793  -0.46501  -0.45528  -0.45122  -0.44521
 Alpha  occ. eigenvalues --   -0.44357  -0.42441  -0.42001  -0.41861  -0.41725
 Alpha  occ. eigenvalues --   -0.41582  -0.41174  -0.40780  -0.40501  -0.39680
 Alpha  occ. eigenvalues --   -0.39362  -0.37491  -0.35762  -0.33852  -0.32120
 Alpha  occ. eigenvalues --   -0.30933  -0.28311
 Alpha virt. eigenvalues --   -0.13207  -0.12435  -0.11149  -0.08028  -0.07011
 Alpha virt. eigenvalues --   -0.06927  -0.04173  -0.03064  -0.02778  -0.01896
 Alpha virt. eigenvalues --   -0.00466  -0.00288   0.00002   0.00720   0.00882

 Mulliken charges:
               1
     1  N   -0.753436
     2  H    0.419070
     3  H    0.430841
     4  H    0.413656
     5  C   -0.121377
     6  H    0.232571
     7  C    0.655609
     8  C   -0.305388
     9  H    0.195406
    10  H    0.180860
    11  O   -0.548805
    12  C   -0.402867
    13  H    0.207897
    14  H    0.267227
    15  C    0.603117
    16  O   -0.493930
    17  O   -0.528140
    18  N   -0.620943
    19  H    0.398006
    20  C   -0.052538
    21  H    0.181680
    22  C    0.639293
    23  C   -0.294849
    24  H    0.155214
    25  H    0.158890
    26  O   -0.536715
    27  C   -0.103818
    28  H    0.159614
    29  C   -0.452662
    30  H    0.153255
    31  H    0.168647
    32  H    0.126968
    33  C   -0.446469
    34  H    0.149435
    35  H    0.150865
    36  H    0.160033
    37  N   -0.594340
    38  H    0.363896
    39  C   -0.075213
    40  H    0.213172
    41  C    0.604324
    42  C   -0.272212
    43  H    0.149012
    44  H    0.182014
    45  O   -0.436945
    46  C   -0.293020
    47  H    0.111195
    48  H    0.192901
    49  C   -0.122682
    50  H    0.135646
    51  H    0.184259
    52  N   -0.592599
    53  H    0.316167
    54  N   -0.758508
    55  H    0.326226
    56  H    0.329341
    57  N   -0.652149
    58  H    0.271906
    59  C    0.589352
    60  O   -0.578087
    61  H    0.426839
    62  H    0.433286
 Sum of Mulliken charges =   1.00000

 Dipole moment (field-independent basis, Debye):
    X=             -5.6100    Y=             -2.6630    Z=            -15.5438  Tot=             16.7384
 Quadrupole moment (field-independent basis, Debye-Ang):
   XX=           -178.8027   YY=            -86.5668   ZZ=            -67.5068
   XY=              8.6472   XZ=             23.8703   YZ=             30.0238

 Normal termination of Gaussian 16 at Wed Jun  1 02:21:19 2022.
