 Gaussian 16, Revision C.01,
 Gaussian 16:  ES64L-G16RevC.01  3-Jul-2019

 ----------------------------------------------------------------------
 # B3LYP/6-31G* empiricaldispersion=gd3 guess=read geom=check nosymm in
 tegral(ultrafinegrid)
 ----------------------------------------------------------------------

 ------------------------------------------------------
 Candidate Structure: Conf:684 Charge calc in gas phase
 ------------------------------------------------------
 Structure from the checkpoint file:  "conf-684.chk"
 Charge =  1 Multiplicity = 1

                          Input orientation:
 ---------------------------------------------------------------------
 Center     Atomic      Atomic             Coordinates (Angstroms)
 Number     Number       Type             X           Y           Z
 ---------------------------------------------------------------------
      1          7           0       -3.195409   -1.270950   -3.831525
      2          1           0       -3.797730   -2.084066   -3.679919
      3          1           0       -3.500728   -0.471282   -3.184757
      4          1           0       -3.268143   -0.989547   -4.812743
      5          6           0       -1.763211   -1.478137   -3.371752
      6          1           0       -1.651054   -2.526135   -3.081116
      7          6           0       -1.678561   -0.547176   -2.126717
      8          6           0       -0.761236   -1.091580   -4.462772
      9          1           0        0.241197   -1.084857   -4.023655
     10          1           0       -0.941558   -0.055837   -4.776581
     11          8           0       -2.644860    0.202982   -1.909890
     12          6           0       -0.767479   -2.031311   -5.671850
     13          1           0       -0.563924   -3.067411   -5.372732
     14          1           0       -1.731921   -2.053708   -6.197478
     15          6           0        0.294625   -1.611751   -6.678435
     16          8           0        1.065419   -0.695756   -6.511989
     17          8           0        0.257573   -2.397722   -7.768894
     18          7           0       -0.569256   -0.632425   -1.412379
     19          1           0        0.226993   -1.194298   -1.721935
     20          6           0       -0.188743    0.263474   -0.317712
     21          1           0       -0.694042    1.222318   -0.462255
     22          6           0        1.337701    0.407144   -0.462964
     23          6           0       -0.517828   -0.338831    1.065560
     24          1           0       -0.063467    0.300597    1.833144
     25          1           0        0.003657   -1.301441    1.137605
     26          8           0        1.976383   -0.432250   -1.099440
     27          6           0       -2.016464   -0.518206    1.367669
     28          1           0       -2.458332   -1.125061    0.563232
     29          6           0       -2.179825   -1.288021    2.686833
     30          1           0       -1.749437   -0.722804    3.522755
     31          1           0       -3.238360   -1.458540    2.911268
     32          1           0       -1.679106   -2.262457    2.650475
     33          6           0       -2.763013    0.822333    1.420129
     34          1           0       -2.320688    1.483115    2.176949
     35          1           0       -2.752341    1.338616    0.455182
     36          1           0       -3.812512    0.667256    1.693177
     37          7           0        1.898625    1.461766    0.164148
     38          1           0        1.318705    2.017417    0.780434
     39          6           0        3.335242    1.495732    0.414354
     40          1           0        3.851215    1.299177   -0.529383
     41          6           0        3.683213    0.371890    1.397188
     42          6           0        3.726085    2.885063    0.956376
     43          1           0        3.347387    2.993292    1.982870
     44          1           0        3.198182    3.626136    0.346139
     45          8           0        2.887498   -0.166906    2.133761
     46          6           0        5.230809    3.179295    0.917451
     47          1           0        5.789832    2.431293    1.490546
     48          1           0        5.583542    3.099523   -0.120920
     49          6           0        5.572008    4.577967    1.460868
     50          1           0        6.655090    4.733316    1.394321
     51          1           0        5.302770    4.639793    2.519010
     52          7           0        4.898385    5.671620    0.753430
     53          1           0        4.945235    5.586815   -0.257229
     54          7           0        3.485791    6.345285    2.484337
     55          1           0        2.628033    6.818258    2.740691
     56          1           0        4.296385    6.772366    2.920437
     57          7           0        2.718458    6.224232    0.205445
     58          1           0        1.894674    6.711271    0.564861
     59          6           0        3.623812    6.109048    1.112962
     60          8           0        4.996474    0.074895    1.362982
     61          1           0        5.153185   -0.620306    2.030846
     62          1           0        0.962154   -2.097117   -8.375224
 ---------------------------------------------------------------------

 SCF Done:  E(RB3LYP) =  -1447.44869489     A.U. after    1 cycles

 Alpha  occ. eigenvalues --  -19.30377 -19.28066 -19.27946 -19.25038 -19.22750
 Alpha  occ. eigenvalues --  -19.22334 -14.60884 -14.50249 -14.46366 -14.41006
 Alpha  occ. eigenvalues --  -14.40007 -14.34506 -10.44531 -10.43533 -10.41955
 Alpha  occ. eigenvalues --  -10.40304 -10.39544 -10.34970 -10.34924 -10.34043
 Alpha  occ. eigenvalues --  -10.33988 -10.32672 -10.28439 -10.28349 -10.27893
 Alpha  occ. eigenvalues --  -10.27126 -10.25807 -10.25329 -10.25158  -1.21445
 Alpha  occ. eigenvalues --   -1.20337  -1.18948  -1.14983  -1.14473  -1.12735
 Alpha  occ. eigenvalues --   -1.10002  -1.07058  -1.03337  -1.03064  -0.95933
 Alpha  occ. eigenvalues --   -0.94621  -0.91405  -0.90226  -0.88587  -0.88099
 Alpha  occ. eigenvalues --   -0.85000  -0.81332  -0.79907  -0.76482  -0.76046
 Alpha  occ. eigenvalues --   -0.75102  -0.74925  -0.73842  -0.72914  -0.71288
 Alpha  occ. eigenvalues --   -0.70596  -0.68203  -0.67702  -0.65997  -0.65670
 Alpha  occ. eigenvalues --   -0.65043  -0.64083  -0.61834  -0.60803  -0.60411
 Alpha  occ. eigenvalues --   -0.60218  -0.58948  -0.58660  -0.58586  -0.57534
 Alpha  occ. eigenvalues --   -0.57060  -0.56801  -0.56478  -0.54987  -0.54797
 Alpha  occ. eigenvalues --   -0.54127  -0.53575  -0.52968  -0.52847  -0.52241
 Alpha  occ. eigenvalues --   -0.51671  -0.51575  -0.51078  -0.49935  -0.49566
 Alpha  occ. eigenvalues --   -0.49500  -0.49437  -0.49014  -0.47949  -0.47857
 Alpha  occ. eigenvalues --   -0.47218  -0.46345  -0.45281  -0.44871  -0.44732
 Alpha  occ. eigenvalues --   -0.43315  -0.42699  -0.42668  -0.41952  -0.41614
 Alpha  occ. eigenvalues --   -0.41382  -0.41175  -0.41008  -0.39859  -0.39635
 Alpha  occ. eigenvalues --   -0.38749  -0.36905  -0.36399  -0.35477  -0.32217
 Alpha  occ. eigenvalues --   -0.31736  -0.28549
 Alpha virt. eigenvalues --   -0.13074  -0.12485  -0.10037  -0.08582  -0.07288
 Alpha virt. eigenvalues --   -0.07036  -0.05332  -0.02829  -0.02095  -0.01870
 Alpha virt. eigenvalues --   -0.01775  -0.01296  -0.00195  -0.00109   0.00519

 Mulliken charges:
               1
     1  N   -0.760973
     2  H    0.417739
     3  H    0.437868
     4  H    0.413428
     5  C   -0.113721
     6  H    0.218472
     7  C    0.658373
     8  C   -0.305077
     9  H    0.226010
    10  H    0.196351
    11  O   -0.541790
    12  C   -0.378269
    13  H    0.205058
    14  H    0.169124
    15  C    0.598896
    16  O   -0.434525
    17  O   -0.556693
    18  N   -0.588794
    19  H    0.373415
    20  C   -0.103127
    21  H    0.193495
    22  C    0.652354
    23  C   -0.252990
    24  H    0.163613
    25  H    0.163012
    26  O   -0.541485
    27  C   -0.071750
    28  H    0.111311
    29  C   -0.445593
    30  H    0.156393
    31  H    0.154592
    32  H    0.148511
    33  C   -0.461465
    34  H    0.144511
    35  H    0.159286
    36  H    0.157370
    37  N   -0.600108
    38  H    0.347160
    39  C   -0.029677
    40  H    0.202336
    41  C    0.599947
    42  C   -0.325640
    43  H    0.155245
    44  H    0.203135
    45  O   -0.468390
    46  C   -0.276876
    47  H    0.163124
    48  H    0.143586
    49  C   -0.155679
    50  H    0.161289
    51  H    0.163961
    52  N   -0.564811
    53  H    0.327168
    54  N   -0.742021
    55  H    0.326401
    56  H    0.336795
    57  N   -0.648473
    58  H    0.264741
    59  C    0.551762
    60  O   -0.554973
    61  H    0.423328
    62  H    0.433741
 Sum of Mulliken charges =   1.00000

 Dipole moment (field-independent basis, Debye):
    X=             -5.3995    Y=             -3.0671    Z=            -11.2689  Tot=             12.8666
 Quadrupole moment (field-independent basis, Debye-Ang):
   XX=           -111.3972   YY=           -134.4311   ZZ=            -79.1901
   XY=             29.6181   XZ=             53.2793   YZ=             53.8939

 Normal termination of Gaussian 16 at Wed Jun  1 02:21:20 2022.
