 Gaussian 16, Revision C.01,
 Gaussian 16:  ES64L-G16RevC.01  3-Jul-2019

 ----------------------------------------------------------------------
 # B3LYP/6-31G* empiricaldispersion=gd3 guess=read geom=check nosymm in
 tegral(ultrafinegrid)
 ----------------------------------------------------------------------

 ------------------------------------------------------
 Candidate Structure: Conf:288 Charge calc in gas phase
 ------------------------------------------------------
 Structure from the checkpoint file:  "conf-288.chk"
 Charge =  1 Multiplicity = 1

                          Input orientation:
 ---------------------------------------------------------------------
 Center     Atomic      Atomic             Coordinates (Angstroms)
 Number     Number       Type             X           Y           Z
 ---------------------------------------------------------------------
      1          7           0        1.130019   -2.086774   -3.451191
      2          1           0        2.112397   -1.534917   -3.522350
      3          1           0        1.288744   -2.846800   -2.766451
      4          1           0        0.916043   -2.488415   -4.366860
      5          6           0       -0.021182   -1.303767   -2.898946
      6          1           0        0.049453   -0.286307   -3.294100
      7          6           0        0.205683   -1.346468   -1.362247
      8          6           0       -1.352162   -1.956790   -3.306535
      9          1           0       -1.385929   -2.970308   -2.887775
     10          1           0       -1.385432   -2.049836   -4.398065
     11          8           0        0.777240   -2.326638   -0.900960
     12          6           0       -2.577741   -1.156777   -2.840307
     13          1           0       -2.621583   -1.081131   -1.752156
     14          1           0       -2.532560   -0.137455   -3.250408
     15          6           0       -3.898782   -1.759552   -3.290496
     16          8           0       -4.875357   -1.870585   -2.592000
     17          8           0       -3.854181   -2.136549   -4.591819
     18          7           0       -0.295393   -0.295310   -0.667276
     19          1           0       -0.662738    0.460627   -1.231030
     20          6           0        0.129090    0.118475    0.697842
     21          1           0       -0.561932    0.922541    0.968929
     22          6           0        1.556028    0.669581    0.501308
     23          6           0        0.059315   -0.993748    1.743366
     24          1           0        0.709747   -1.809516    1.424490
     25          1           0       -0.969958   -1.375352    1.764759
     26          8           0        2.514112   -0.086306    0.402887
     27          6           0        0.476916   -0.528705    3.153826
     28          1           0        1.530979   -0.220595    3.101694
     29          6           0       -0.349870    0.660475    3.666918
     30          1           0       -1.423372    0.431459    3.647243
     31          1           0       -0.081349    0.898731    4.701509
     32          1           0       -0.185793    1.572522    3.079139
     33          6           0        0.381737   -1.714524    4.124453
     34          1           0       -0.656847   -2.054776    4.224654
     35          1           0        0.982099   -2.562856    3.777044
     36          1           0        0.738357   -1.433905    5.121328
     37          7           0        1.636982    2.013376    0.263724
     38          1           0        0.863664    2.622961    0.490873
     39          6           0        2.868299    2.598115   -0.246320
     40          1           0        3.660114    1.886074    0.007274
     41          6           0        3.239671    3.921696    0.405693
     42          6           0        2.852899    2.770320   -1.790059
     43          1           0        3.888784    2.916921   -2.111659
     44          1           0        2.307881    3.683472   -2.062758
     45          8           0        4.218253    4.554377    0.087738
     46          6           0        2.224057    1.562417   -2.498391
     47          1           0        2.534064    0.635662   -2.006647
     48          1           0        1.132804    1.623762   -2.403595
     49          6           0        2.572427    1.463957   -3.988114
     50          1           0        2.437401    2.431312   -4.481348
     51          1           0        1.900984    0.755249   -4.493682
     52          7           0        3.959029    1.065837   -4.200542
     53          1           0        4.524815    1.635114   -4.813294
     54          7           0        5.776024   -0.341726   -4.122918
     55          1           0        6.184161   -1.236940   -3.891857
     56          1           0        6.374082    0.448718   -3.918416
     57          7           0        3.619608   -1.155574   -3.570224
     58          1           0        4.142893   -1.969842   -3.254058
     59          6           0        4.421612   -0.190505   -3.937195
     60          8           0        2.349516    4.323175    1.341306
     61          1           0        2.670043    5.176965    1.691568
     62          1           0       -4.735652   -2.492524   -4.815960
 ---------------------------------------------------------------------

 SCF Done:  E(RB3LYP) =  -1447.47064496     A.U. after    1 cycles

 Alpha  occ. eigenvalues --  -19.29592 -19.29343 -19.25338 -19.23478 -19.23324
 Alpha  occ. eigenvalues --  -19.21847 -14.54841 -14.49647 -14.48034 -14.47528
 Alpha  occ. eigenvalues --  -14.46962 -14.43309 -10.42565 -10.42555 -10.42030
 Alpha  occ. eigenvalues --  -10.41803 -10.39194 -10.38911 -10.34674 -10.34557
 Alpha  occ. eigenvalues --  -10.34056 -10.33321 -10.31979 -10.30000 -10.29776
 Alpha  occ. eigenvalues --  -10.26785 -10.26738 -10.25074 -10.24076  -1.20239
 Alpha  occ. eigenvalues --   -1.20076  -1.17616  -1.14060  -1.11306  -1.11268
 Alpha  occ. eigenvalues --   -1.11236  -1.10016  -1.05733  -1.03249  -1.01845
 Alpha  occ. eigenvalues --   -0.97746  -0.93637  -0.91058  -0.89803  -0.86526
 Alpha  occ. eigenvalues --   -0.85755  -0.83266  -0.79525  -0.77368  -0.75885
 Alpha  occ. eigenvalues --   -0.74763  -0.74402  -0.71659  -0.71327  -0.70911
 Alpha  occ. eigenvalues --   -0.70670  -0.69869  -0.68548  -0.68124  -0.67013
 Alpha  occ. eigenvalues --   -0.65031  -0.64422  -0.63936  -0.62172  -0.61794
 Alpha  occ. eigenvalues --   -0.60891  -0.59781  -0.59370  -0.58801  -0.58100
 Alpha  occ. eigenvalues --   -0.57850  -0.57260  -0.56970  -0.56679  -0.56581
 Alpha  occ. eigenvalues --   -0.55833  -0.54263  -0.53759  -0.53516  -0.53079
 Alpha  occ. eigenvalues --   -0.52299  -0.51757  -0.51365  -0.50923  -0.50506
 Alpha  occ. eigenvalues --   -0.49737  -0.49423  -0.49176  -0.48757  -0.48409
 Alpha  occ. eigenvalues --   -0.47994  -0.47745  -0.46754  -0.46455  -0.45499
 Alpha  occ. eigenvalues --   -0.45237  -0.44930  -0.44213  -0.42276  -0.41435
 Alpha  occ. eigenvalues --   -0.41362  -0.41311  -0.40783  -0.40097  -0.39462
 Alpha  occ. eigenvalues --   -0.38371  -0.38115  -0.37946  -0.36979  -0.36320
 Alpha  occ. eigenvalues --   -0.35364  -0.34640
 Alpha virt. eigenvalues --   -0.12551  -0.09233  -0.08744  -0.08437  -0.07747
 Alpha virt. eigenvalues --   -0.07223  -0.06583  -0.05374  -0.03614  -0.02721
 Alpha virt. eigenvalues --   -0.01840  -0.01573  -0.01125  -0.00539   0.00074

 Mulliken charges:
               1
     1  N   -0.793455
     2  H    0.458022
     3  H    0.401647
     4  H    0.383206
     5  C   -0.105763
     6  H    0.178615
     7  C    0.663459
     8  C   -0.287692
     9  H    0.189857
    10  H    0.188064
    11  O   -0.498256
    12  C   -0.374079
    13  H    0.203477
    14  H    0.176442
    15  C    0.582109
    16  O   -0.428017
    17  O   -0.565335
    18  N   -0.612458
    19  H    0.337588
    20  C   -0.065702
    21  H    0.156120
    22  C    0.638622
    23  C   -0.264882
    24  H    0.201220
    25  H    0.143972
    26  O   -0.508899
    27  C   -0.091639
    28  H    0.148569
    29  C   -0.454338
    30  H    0.149461
    31  H    0.165174
    32  H    0.124391
    33  C   -0.447460
    34  H    0.147922
    35  H    0.153672
    36  H    0.156205
    37  N   -0.617702
    38  H    0.344337
    39  C   -0.062912
    40  H    0.224980
    41  C    0.594441
    42  C   -0.268700
    43  H    0.177026
    44  H    0.151809
    45  O   -0.445043
    46  C   -0.289745
    47  H    0.197927
    48  H    0.112369
    49  C   -0.139033
    50  H    0.172879
    51  H    0.141127
    52  N   -0.596469
    53  H    0.351839
    54  N   -0.762379
    55  H    0.354185
    56  H    0.355378
    57  N   -0.764006
    58  H    0.311647
    59  C    0.721861
    60  O   -0.574419
    61  H    0.429644
    62  H    0.429125
 Sum of Mulliken charges =   1.00000

 Dipole moment (field-independent basis, Debye):
    X=              7.5660    Y=              0.4928    Z=            -15.1685  Tot=             16.9579
 Quadrupole moment (field-independent basis, Debye-Ang):
   XX=           -125.7299   YY=           -141.5850   ZZ=            -93.0458
   XY=             -0.3242   XZ=            -29.4850   YZ=             21.0029

 Normal termination of Gaussian 16 at Wed Jun  1 02:21:20 2022.
