 Gaussian 16, Revision C.01,
 Gaussian 16:  ES64L-G16RevC.01  3-Jul-2019

 ----------------------------------------------------------------------
 # B3LYP/6-31G* empiricaldispersion=gd3 guess=read geom=check nosymm in
 tegral(ultrafinegrid)
 ----------------------------------------------------------------------

 ------------------------------------------------------
 Candidate Structure: Conf:669 Charge calc in gas phase
 ------------------------------------------------------
 Structure from the checkpoint file:  "conf-669.chk"
 Charge =  1 Multiplicity = 1

                          Input orientation:
 ---------------------------------------------------------------------
 Center     Atomic      Atomic             Coordinates (Angstroms)
 Number     Number       Type             X           Y           Z
 ---------------------------------------------------------------------
      1          7           0       -2.342460   -0.394426   -4.350579
      2          1           0       -3.041398   -1.132970   -4.472856
      3          1           0       -2.757543    0.363371   -3.743326
      4          1           0       -2.083107   -0.032566   -5.273630
      5          6           0       -1.138580   -0.836452   -3.542842
      6          1           0       -1.066356   -1.925541   -3.592369
      7          6           0       -1.442921   -0.296505   -2.124766
      8          6           0        0.136566   -0.143834   -4.050269
      9          1           0        0.942035   -0.413879   -3.357449
     10          1           0        0.010221    0.940622   -3.955886
     11          8           0       -2.301320    0.587979   -2.017975
     12          6           0        0.563003   -0.484574   -5.484087
     13          1           0        0.723893   -1.557289   -5.621138
     14          1           0       -0.188989   -0.158310   -6.219786
     15          6           0        1.874130    0.243315   -5.827295
     16          8           0        2.810454   -0.322228   -6.353457
     17          8           0        1.826624    1.515914   -5.463371
     18          7           0       -0.662302   -0.767491   -1.148731
     19          1           0        0.102357   -1.390267   -1.409806
     20          6           0       -0.299885    0.026920    0.033276
     21          1           0       -0.845405    0.971567   -0.025393
     22          6           0        1.220140    0.260429   -0.124741
     23          6           0       -0.614356   -0.701417    1.350452
     24          1           0       -0.280111   -0.058436    2.176618
     25          1           0       -0.000326   -1.610599    1.394928
     26          8           0        1.896108   -0.536152   -0.781936
     27          6           0       -2.098516   -1.062020    1.548548
     28          1           0       -2.392125   -1.721392    0.718794
     29          6           0       -2.265093   -1.842933    2.860126
     30          1           0       -1.992854   -1.220982    3.722187
     31          1           0       -3.304581   -2.160123    2.995223
     32          1           0       -1.633847   -2.738911    2.879738
     33          6           0       -3.008785    0.175080    1.524271
     34          1           0       -2.699021    0.902508    2.286336
     35          1           0       -3.007163    0.673505    0.548846
     36          1           0       -4.043889   -0.107648    1.744121
     37          7           0        1.729251    1.351379    0.479351
     38          1           0        1.136327    1.935813    1.053541
     39          6           0        3.162281    1.660441    0.422049
     40          1           0        3.711302    0.760243    0.728198
     41          6           0        3.538616    2.751467    1.419097
     42          6           0        3.633649    2.038627   -0.996844
     43          1           0        3.420477    1.185006   -1.646228
     44          1           0        4.719826    2.154921   -0.963366
     45          8           0        4.607350    3.311259    1.414991
     46          6           0        2.979481    3.309097   -1.553307
     47          1           0        1.900768    3.301597   -1.346288
     48          1           0        3.388108    4.194309   -1.046982
     49          6           0        3.147903    3.430817   -3.070917
     50          1           0        2.615946    4.316457   -3.447316
     51          1           0        2.699143    2.559805   -3.548170
     52          7           0        4.554364    3.465434   -3.454383
     53          1           0        5.105762    4.196930   -3.025059
     54          7           0        6.393657    3.039516   -4.794517
     55          1           0        6.763428    3.021715   -5.733231
     56          1           0        6.958060    3.527789   -4.114519
     57          7           0        4.244113    2.382489   -5.499615
     58          1           0        4.749282    1.879843   -6.225369
     59          6           0        5.028859    2.954875   -4.635380
     60          8           0        2.552964    3.022911    2.309845
     61          1           0        2.888392    3.719356    2.906811
     62          1           0        2.806346    1.944932   -5.522725
 ---------------------------------------------------------------------

 SCF Done:  E(RB3LYP) =  -1447.47276268     A.U. after    2 cycles

 Alpha  occ. eigenvalues --  -19.30265 -19.27719 -19.23899 -19.23462 -19.23429
 Alpha  occ. eigenvalues --  -19.20025 -14.60829 -14.49915 -14.47803 -14.44501
 Alpha  occ. eigenvalues --  -14.44111 -14.38476 -10.44287 -10.42386 -10.41128
 Alpha  occ. eigenvalues --  -10.40459 -10.38875 -10.38641 -10.35373 -10.34398
 Alpha  occ. eigenvalues --  -10.33327 -10.31052 -10.30636 -10.29136 -10.28119
 Alpha  occ. eigenvalues --  -10.27951 -10.27765 -10.25654 -10.25356  -1.20857
 Alpha  occ. eigenvalues --   -1.20002  -1.15513  -1.15375  -1.14631  -1.11873
 Alpha  occ. eigenvalues --   -1.07448  -1.06939  -1.06823  -1.04116  -0.98319
 Alpha  occ. eigenvalues --   -0.94662  -0.93672  -0.91441  -0.89421  -0.87127
 Alpha  occ. eigenvalues --   -0.85338  -0.83455  -0.77690  -0.77235  -0.76612
 Alpha  occ. eigenvalues --   -0.75701  -0.74658  -0.73366  -0.72819  -0.72585
 Alpha  occ. eigenvalues --   -0.70009  -0.69386  -0.67852  -0.67492  -0.66875
 Alpha  occ. eigenvalues --   -0.64815  -0.63940  -0.63548  -0.63008  -0.61626
 Alpha  occ. eigenvalues --   -0.59696  -0.59063  -0.58712  -0.58449  -0.58050
 Alpha  occ. eigenvalues --   -0.57503  -0.56636  -0.56373  -0.56085  -0.55692
 Alpha  occ. eigenvalues --   -0.54266  -0.54068  -0.53472  -0.53112  -0.52435
 Alpha  occ. eigenvalues --   -0.52167  -0.51892  -0.51328  -0.50705  -0.50145
 Alpha  occ. eigenvalues --   -0.50112  -0.48863  -0.48321  -0.48153  -0.47870
 Alpha  occ. eigenvalues --   -0.47446  -0.46772  -0.46587  -0.45453  -0.45281
 Alpha  occ. eigenvalues --   -0.44644  -0.43852  -0.43200  -0.42353  -0.42144
 Alpha  occ. eigenvalues --   -0.41876  -0.41602  -0.41209  -0.39991  -0.37879
 Alpha  occ. eigenvalues --   -0.37239  -0.37175  -0.36637  -0.36438  -0.34462
 Alpha  occ. eigenvalues --   -0.33699  -0.31976
 Alpha virt. eigenvalues --   -0.13199  -0.11752  -0.09645  -0.08790  -0.07269
 Alpha virt. eigenvalues --   -0.05083  -0.04351  -0.03861  -0.03562  -0.02695
 Alpha virt. eigenvalues --   -0.01993  -0.01270  -0.00767   0.00160   0.00798

 Mulliken charges:
               1
     1  N   -0.749376
     2  H    0.419044
     3  H    0.430206
     4  H    0.417040
     5  C   -0.122752
     6  H    0.215191
     7  C    0.638523
     8  C   -0.320082
     9  H    0.216715
    10  H    0.200180
    11  O   -0.526531
    12  C   -0.367343
    13  H    0.187123
    14  H    0.148920
    15  C    0.593265
    16  O   -0.467716
    17  O   -0.624368
    18  N   -0.566013
    19  H    0.366647
    20  C   -0.113459
    21  H    0.192276
    22  C    0.643597
    23  C   -0.260036
    24  H    0.151304
    25  H    0.159096
    26  O   -0.538821
    27  C   -0.070558
    28  H    0.127913
    29  C   -0.446538
    30  H    0.151485
    31  H    0.159493
    32  H    0.150781
    33  C   -0.470997
    34  H    0.143936
    35  H    0.160480
    36  H    0.161716
    37  N   -0.622048
    38  H    0.363559
    39  C   -0.049155
    40  H    0.216005
    41  C    0.594545
    42  C   -0.261159
    43  H    0.179692
    44  H    0.179422
    45  O   -0.443095
    46  C   -0.300492
    47  H    0.135608
    48  H    0.155958
    49  C   -0.134702
    50  H    0.157774
    51  H    0.179980
    52  N   -0.609756
    53  H    0.327386
    54  N   -0.771910
    55  H    0.352468
    56  H    0.341137
    57  N   -0.769754
    58  H    0.318717
    59  C    0.738471
    60  O   -0.584947
    61  H    0.432561
    62  H    0.483393
 Sum of Mulliken charges =   1.00000

 Dipole moment (field-independent basis, Debye):
    X=             -0.7948    Y=              4.4687    Z=            -11.5057  Tot=             12.3686
 Quadrupole moment (field-independent basis, Debye-Ang):
   XX=           -109.8558   YY=           -138.2922   ZZ=           -101.8711
   XY=             46.6024   XZ=             11.4431   YZ=             -5.0055

 Normal termination of Gaussian 16 at Wed Jun  1 02:21:31 2022.
