 Gaussian 16, Revision C.01,
 Gaussian 16:  ES64L-G16RevC.01  3-Jul-2019

 ----------------------------------------------------------------------
 # B3LYP/6-31G* empiricaldispersion=gd3 guess=read geom=check nosymm in
 tegral(ultrafinegrid)
 ----------------------------------------------------------------------

 ------------------------------------------------------
 Candidate Structure: Conf:883 Charge calc in gas phase
 ------------------------------------------------------
 Structure from the checkpoint file:  "conf-883.chk"
 Charge =  1 Multiplicity = 1

                          Input orientation:
 ---------------------------------------------------------------------
 Center     Atomic      Atomic             Coordinates (Angstroms)
 Number     Number       Type             X           Y           Z
 ---------------------------------------------------------------------
      1          7           0       -2.609985   -0.570217   -4.270965
      2          1           0       -3.608143   -0.553923   -4.041509
      3          1           0       -2.234170    0.422182   -4.203719
      4          1           0       -2.494759   -0.953854   -5.213021
      5          6           0       -1.773838   -1.276490   -3.217954
      6          1           0       -2.399203   -1.987636   -2.679586
      7          6           0       -1.316061   -0.093811   -2.327696
      8          6           0       -0.597176   -1.977946   -3.928524
      9          1           0       -0.086387   -1.237016   -4.556038
     10          1           0       -1.014635   -2.748828   -4.589995
     11          8           0       -1.320214    1.035248   -2.841548
     12          6           0        0.472819   -2.606298   -3.012824
     13          1           0        1.210752   -3.114723   -3.636832
     14          1           0        0.990524   -1.807699   -2.463186
     15          6           0       -0.089370   -3.567594   -1.993781
     16          8           0       -0.987308   -3.284677   -1.209125
     17          8           0        0.504152   -4.761996   -2.009055
     18          7           0       -0.943543   -0.389201   -1.087385
     19          1           0       -0.940760   -1.375587   -0.824820
     20          6           0       -0.190403    0.560535   -0.269946
     21          1           0       -0.776159    1.481750   -0.196874
     22          6           0        1.152554    0.857822   -0.974061
     23          6           0        0.022835   -0.067318    1.126788
     24          1           0        0.576723   -1.005712    0.985429
     25          1           0       -0.970015   -0.332396    1.516493
     26          8           0        1.666769    0.069175   -1.765518
     27          6           0        0.766481    0.789267    2.170972
     28          1           0        1.768703    0.998796    1.784666
     29          6           0        0.058237    2.116555    2.484474
     30          1           0       -0.908897    1.939804    2.972309
     31          1           0        0.681874    2.724534    3.147239
     32          1           0       -0.143788    2.726511    1.592642
     33          6           0        0.947788   -0.028601    3.458240
     34          1           0       -0.021205   -0.302536    3.895522
     35          1           0        1.508954   -0.950334    3.266964
     36          1           0        1.500534    0.551258    4.204556
     37          7           0        1.730888    2.025914   -0.619193
     38          1           0        1.293006    2.569243    0.113077
     39          6           0        3.140956    2.304362   -0.868116
     40          1           0        3.309917    2.468531   -1.936055
     41          6           0        3.995168    1.113214   -0.423595
     42          6           0        3.506607    3.553555   -0.042200
     43          1           0        3.159597    3.378345    0.982622
     44          1           0        2.925064    4.398121   -0.434578
     45          8           0        3.768171    0.414266    0.538117
     46          6           0        4.991405    3.925629    0.000472
     47          1           0        5.570471    3.098088    0.430889
     48          1           0        5.388082    4.085984   -1.010348
     49          6           0        5.228032    5.190199    0.848041
     50          1           0        4.761808    6.053799    0.366109
     51          1           0        6.303860    5.391569    0.906434
     52          7           0        4.688635    5.084588    2.209585
     53          1           0        4.884815    4.194832    2.657358
     54          7           0        3.072854    6.756025    2.044259
     55          1           0        2.196238    7.128674    2.386904
     56          1           0        3.825672    7.433116    2.106776
     57          7           0        2.617678    4.682148    3.173039
     58          1           0        1.772094    5.162180    3.487466
     59          6           0        3.390818    5.484049    2.524744
     60          8           0        5.085042    0.982815   -1.204594
     61          1           0        5.616395    0.251424   -0.835498
     62          1           0        0.118801   -5.303186   -1.291328
 ---------------------------------------------------------------------

 SCF Done:  E(RB3LYP) =  -1447.46665317     A.U. after    3 cycles

 Alpha  occ. eigenvalues --  -19.31893 -19.27889 -19.26681 -19.26598 -19.22167
 Alpha  occ. eigenvalues --  -19.21867 -14.60502 -14.48760 -14.45654 -14.41477
 Alpha  occ. eigenvalues --  -14.40591 -14.35177 -10.44849 -10.43086 -10.40723
 Alpha  occ. eigenvalues --  -10.40201 -10.38659 -10.35103 -10.34622 -10.34093
 Alpha  occ. eigenvalues --  -10.32575 -10.31939 -10.28824 -10.28251 -10.27316
 Alpha  occ. eigenvalues --  -10.26411 -10.26375 -10.24821 -10.23952  -1.23068
 Alpha  occ. eigenvalues --   -1.19174  -1.18812  -1.14288  -1.13921  -1.13493
 Alpha  occ. eigenvalues --   -1.09803  -1.05843  -1.03875  -1.02488  -0.95140
 Alpha  occ. eigenvalues --   -0.95001  -0.90805  -0.90469  -0.87907  -0.87480
 Alpha  occ. eigenvalues --   -0.84211  -0.81641  -0.79828  -0.75830  -0.75254
 Alpha  occ. eigenvalues --   -0.74741  -0.74139  -0.73978  -0.72577  -0.70641
 Alpha  occ. eigenvalues --   -0.70492  -0.67317  -0.66932  -0.66323  -0.65238
 Alpha  occ. eigenvalues --   -0.64158  -0.63724  -0.62171  -0.60886  -0.59985
 Alpha  occ. eigenvalues --   -0.59724  -0.59456  -0.59235  -0.59064  -0.57536
 Alpha  occ. eigenvalues --   -0.56785  -0.56541  -0.55765  -0.54988  -0.54200
 Alpha  occ. eigenvalues --   -0.53882  -0.53080  -0.52954  -0.52813  -0.51912
 Alpha  occ. eigenvalues --   -0.51373  -0.51021  -0.50471  -0.50320  -0.49901
 Alpha  occ. eigenvalues --   -0.49633  -0.48783  -0.48433  -0.48102  -0.46478
 Alpha  occ. eigenvalues --   -0.46277  -0.45413  -0.45307  -0.45151  -0.44226
 Alpha  occ. eigenvalues --   -0.43896  -0.43421  -0.41894  -0.41540  -0.41464
 Alpha  occ. eigenvalues --   -0.40522  -0.40392  -0.40332  -0.40094  -0.39691
 Alpha  occ. eigenvalues --   -0.39134  -0.36725  -0.35499  -0.34662  -0.32865
 Alpha  occ. eigenvalues --   -0.32224  -0.29142
 Alpha virt. eigenvalues --   -0.12709  -0.11956  -0.10727  -0.08220  -0.06714
 Alpha virt. eigenvalues --   -0.06508  -0.03775  -0.02646  -0.02363  -0.01501
 Alpha virt. eigenvalues --   -0.01124  -0.00248   0.00118   0.00705   0.01561

 Mulliken charges:
               1
     1  N   -0.754184
     2  H    0.418297
     3  H    0.431226
     4  H    0.412498
     5  C   -0.120607
     6  H    0.232483
     7  C    0.654878
     8  C   -0.304375
     9  H    0.194486
    10  H    0.179534
    11  O   -0.547592
    12  C   -0.403136
    13  H    0.205389
    14  H    0.267746
    15  C    0.604057
    16  O   -0.493356
    17  O   -0.529860
    18  N   -0.618063
    19  H    0.396936
    20  C   -0.071367
    21  H    0.186531
    22  C    0.661725
    23  C   -0.288758
    24  H    0.156180
    25  H    0.155730
    26  O   -0.541072
    27  C   -0.112323
    28  H    0.178287
    29  C   -0.476308
    30  H    0.147209
    31  H    0.198680
    32  H    0.115674
    33  C   -0.447630
    34  H    0.141159
    35  H    0.151187
    36  H    0.167129
    37  N   -0.618884
    38  H    0.360795
    39  C    0.007601
    40  H    0.188013
    41  C    0.596888
    42  C   -0.337722
    43  H    0.196766
    44  H    0.165232
    45  O   -0.460742
    46  C   -0.280850
    47  H    0.149284
    48  H    0.155101
    49  C   -0.154124
    50  H    0.167613
    51  H    0.162348
    52  N   -0.567596
    53  H    0.329676
    54  N   -0.740480
    55  H    0.328310
    56  H    0.338610
    57  N   -0.659012
    58  H    0.268056
    59  C    0.562729
    60  O   -0.559277
    61  H    0.420442
    62  H    0.432833
 Sum of Mulliken charges =   1.00000

 Dipole moment (field-independent basis, Debye):
    X=             -3.7239    Y=              0.1122    Z=            -12.8197  Tot=             13.3500
 Quadrupole moment (field-independent basis, Debye-Ang):
   XX=           -117.7521   YY=           -101.0307   ZZ=           -109.2944
   XY=             27.9360   XZ=             34.6183   YZ=             29.4631

 Normal termination of Gaussian 16 at Wed Jun  1 02:21:42 2022.
