 Gaussian 16, Revision C.01,
 Gaussian 16:  ES64L-G16RevC.01  3-Jul-2019

 ----------------------------------------------------------------------
 # B3LYP/6-31G* empiricaldispersion=gd3 guess=read geom=check nosymm in
 tegral(ultrafinegrid)
 ----------------------------------------------------------------------

 ------------------------------------------------------
 Candidate Structure: Conf:538 Charge calc in gas phase
 ------------------------------------------------------
 Structure from the checkpoint file:  "conf-538.chk"
 Charge =  1 Multiplicity = 1

                          Input orientation:
 ---------------------------------------------------------------------
 Center     Atomic      Atomic             Coordinates (Angstroms)
 Number     Number       Type             X           Y           Z
 ---------------------------------------------------------------------
      1          7           0       -2.773709   -1.401825   -4.121958
      2          1           0       -3.566859   -1.956764   -3.786584
      3          1           0       -2.924547   -0.396683   -3.828872
      4          1           0       -2.716853   -1.486291   -5.140979
      5          6           0       -1.464988   -1.744515   -3.428030
      6          1           0       -1.530906   -2.770290   -3.057075
      7          6           0       -1.416231   -0.688901   -2.291162
      8          6           0       -0.306288   -1.554631   -4.424975
      9          1           0       -0.195369   -0.486810   -4.648725
     10          1           0       -0.570274   -2.059358   -5.364187
     11          8           0       -2.102807    0.331988   -2.437230
     12          6           0        1.049066   -2.087310   -3.941496
     13          1           0        1.168114   -2.029220   -2.855180
     14          1           0        1.200527   -3.134900   -4.216056
     15          6           0        2.210577   -1.239078   -4.475225
     16          8           0        2.037414   -0.121403   -4.938662
     17          8           0        3.356303   -1.850060   -4.288746
     18          7           0       -0.611184   -0.942855   -1.260453
     19          1           0       -0.001131   -1.754862   -1.291721
     20          6           0       -0.147482    0.081645   -0.321399
     21          1           0       -0.519784    1.044416   -0.678944
     22          6           0        1.392343    0.040898   -0.391207
     23          6           0       -0.631659   -0.191572    1.116165
     24          1           0       -0.181401    0.562465    1.776067
     25          1           0       -0.221294   -1.159789    1.432968
     26          8           0        1.970561   -0.954559   -0.829626
     27          6           0       -2.160586   -0.185553    1.297995
     28          1           0       -2.579861   -0.946850    0.623120
     29          6           0       -2.505831   -0.587031    2.739562
     30          1           0       -2.112069    0.147376    3.453367
     31          1           0       -3.590629   -0.637767    2.881283
     32          1           0       -2.085200   -1.565622    2.998605
     33          6           0       -2.785483    1.171284    0.940421
     34          1           0       -2.339793    1.975291    1.540766
     35          1           0       -2.661606    1.418814   -0.118961
     36          1           0       -3.860510    1.164817    1.150590
     37          7           0        2.021928    1.142168    0.073184
     38          1           0        1.471380    1.884842    0.484292
     39          6           0        3.469902    1.231595    0.198784
     40          1           0        3.866845    0.274204   -0.147618
     41          6           0        3.932736    1.391224    1.644846
     42          6           0        4.059231    2.379367   -0.652881
     43          1           0        5.142502    2.380810   -0.487539
     44          1           0        3.695164    3.336805   -0.256571
     45          8           0        5.096989    1.396863    1.963687
     46          6           0        3.710604    2.288967   -2.145579
     47          1           0        2.621145    2.336643   -2.262321
     48          1           0        4.120541    3.171135   -2.651180
     49          6           0        4.192268    1.031316   -2.872834
     50          1           0        3.811748    1.049437   -3.895354
     51          1           0        3.781253    0.125483   -2.405128
     52          7           0        5.649380    0.973386   -2.949146
     53          1           0        6.157899    1.104401   -2.083927
     54          7           0        7.662178    0.233387   -3.791974
     55          1           0        8.171448   -0.280017   -4.498725
     56          1           0        8.060208    1.143743   -3.595341
     57          7           0        5.607168   -0.574908   -4.688970
     58          1           0        6.194927   -0.996146   -5.404835
     59          6           0        6.279884    0.169726   -3.865332
     60          8           0        2.909145    1.563094    2.514957
     61          1           0        3.309119    1.680565    3.398442
     62          1           0        4.190158   -1.251654   -4.501107
 ---------------------------------------------------------------------

 SCF Done:  E(RB3LYP) =  -1447.47981382     A.U. after    2 cycles

 Alpha  occ. eigenvalues --  -19.29356 -19.27534 -19.23384 -19.23160 -19.23072
 Alpha  occ. eigenvalues --  -19.20170 -14.60768 -14.50426 -14.47645 -14.43277
 Alpha  occ. eigenvalues --  -14.43190 -14.38256 -10.44372 -10.41428 -10.41264
 Alpha  occ. eigenvalues --  -10.40471 -10.38777 -10.37539 -10.35428 -10.33802
 Alpha  occ. eigenvalues --  -10.33017 -10.29830 -10.29388 -10.28783 -10.28613
 Alpha  occ. eigenvalues --  -10.28501 -10.27107 -10.25897 -10.25717  -1.20001
 Alpha  occ. eigenvalues --   -1.19946  -1.15407  -1.15346  -1.14507  -1.10999
 Alpha  occ. eigenvalues --   -1.07103  -1.07011  -1.06424  -1.04176  -0.97238
 Alpha  occ. eigenvalues --   -0.94377  -0.93115  -0.91532  -0.89306  -0.86708
 Alpha  occ. eigenvalues --   -0.84934  -0.82945  -0.78241  -0.77046  -0.76780
 Alpha  occ. eigenvalues --   -0.75910  -0.74564  -0.73144  -0.72364  -0.71430
 Alpha  occ. eigenvalues --   -0.70444  -0.69552  -0.67694  -0.66728  -0.66059
 Alpha  occ. eigenvalues --   -0.64937  -0.63507  -0.62799  -0.61926  -0.60503
 Alpha  occ. eigenvalues --   -0.60211  -0.59290  -0.59165  -0.58033  -0.57466
 Alpha  occ. eigenvalues --   -0.56909  -0.56678  -0.55879  -0.55079  -0.54551
 Alpha  occ. eigenvalues --   -0.54156  -0.53884  -0.53406  -0.53124  -0.52390
 Alpha  occ. eigenvalues --   -0.51583  -0.51024  -0.50871  -0.50518  -0.49939
 Alpha  occ. eigenvalues --   -0.49238  -0.48712  -0.48454  -0.48185  -0.47868
 Alpha  occ. eigenvalues --   -0.46933  -0.46766  -0.45712  -0.45652  -0.44310
 Alpha  occ. eigenvalues --   -0.43681  -0.42816  -0.42532  -0.42356  -0.42176
 Alpha  occ. eigenvalues --   -0.41887  -0.41497  -0.40882  -0.40045  -0.38869
 Alpha  occ. eigenvalues --   -0.37207  -0.37059  -0.36157  -0.35178  -0.34225
 Alpha  occ. eigenvalues --   -0.33625  -0.31675
 Alpha virt. eigenvalues --   -0.13076  -0.11461  -0.09012  -0.08266  -0.06980
 Alpha virt. eigenvalues --   -0.06052  -0.04134  -0.03654  -0.03450  -0.02254
 Alpha virt. eigenvalues --   -0.01711  -0.00973  -0.00556   0.00239   0.00697

 Mulliken charges:
               1
     1  N   -0.749966
     2  H    0.417313
     3  H    0.433130
     4  H    0.416565
     5  C   -0.122162
     6  H    0.211524
     7  C    0.653232
     8  C   -0.298767
     9  H    0.218268
    10  H    0.168299
    11  O   -0.533356
    12  C   -0.396198
    13  H    0.196808
    14  H    0.190756
    15  C    0.609015
    16  O   -0.495366
    17  O   -0.610164
    18  N   -0.573611
    19  H    0.367354
    20  C   -0.111810
    21  H    0.199835
    22  C    0.640868
    23  C   -0.261173
    24  H    0.156960
    25  H    0.156690
    26  O   -0.528958
    27  C   -0.069457
    28  H    0.117634
    29  C   -0.446227
    30  H    0.152855
    31  H    0.158956
    32  H    0.149971
    33  C   -0.470447
    34  H    0.145135
    35  H    0.163598
    36  H    0.160463
    37  N   -0.588578
    38  H    0.349113
    39  C   -0.078629
    40  H    0.225922
    41  C    0.601089
    42  C   -0.291535
    43  H    0.173921
    44  H    0.153698
    45  O   -0.441655
    46  C   -0.277005
    47  H    0.145457
    48  H    0.164913
    49  C   -0.169911
    50  H    0.214788
    51  H    0.169049
    52  N   -0.612050
    53  H    0.334738
    54  N   -0.761616
    55  H    0.341056
    56  H    0.342707
    57  N   -0.745359
    58  H    0.300165
    59  C    0.698137
    60  O   -0.577966
    61  H    0.428381
    62  H    0.483604
 Sum of Mulliken charges =   1.00000

 Dipole moment (field-independent basis, Debye):
    X=             -1.5202    Y=             -2.9816    Z=            -11.7831  Tot=             12.2492
 Quadrupole moment (field-independent basis, Debye-Ang):
   XX=            -82.8941   YY=           -151.3515   ZZ=           -102.9796
   XY=             32.6609   XZ=              6.7987   YZ=             29.1035

 Normal termination of Gaussian 16 at Wed Jun  1 02:21:32 2022.
