 Gaussian 16, Revision C.01,
 Gaussian 16:  ES64L-G16RevC.01  3-Jul-2019

 ----------------------------------------------------------------------
 # B3LYP/6-31G* empiricaldispersion=gd3 guess=read geom=check nosymm in
 tegral(ultrafinegrid)
 ----------------------------------------------------------------------

 ------------------------------------------------------
 Candidate Structure: Conf:197 Charge calc in gas phase
 ------------------------------------------------------
 Structure from the checkpoint file:  "conf-197.chk"
 Charge =  1 Multiplicity = 1

                          Input orientation:
 ---------------------------------------------------------------------
 Center     Atomic      Atomic             Coordinates (Angstroms)
 Number     Number       Type             X           Y           Z
 ---------------------------------------------------------------------
      1          7           0       -2.156295    1.842320   -3.952824
      2          1           0       -2.730342    2.268276   -3.226701
      3          1           0       -0.060648    3.089273   -3.664237
      4          1           0       -2.775460    1.648288   -4.738067
      5          6           0       -1.572508    0.586031   -3.472498
      6          1           0       -2.326137   -0.151506   -3.142713
      7          6           0       -0.696751    0.930725   -2.252291
      8          6           0       -0.772038   -0.045982   -4.636410
      9          1           0       -0.036680    0.683187   -4.988485
     10          1           0       -1.478679   -0.217920   -5.456960
     11          8           0       -0.131046    2.026199   -2.134922
     12          6           0       -0.061729   -1.367487   -4.309898
     13          1           0       -0.736984   -2.104088   -3.863060
     14          1           0        0.316843   -1.809633   -5.239673
     15          6           0        1.126629   -1.134449   -3.396996
     16          8           0        1.843846   -0.147456   -3.502149
     17          8           0        1.279166   -2.065984   -2.464828
     18          7           0       -0.585331   -0.018654   -1.299905
     19          1           0       -1.030537   -0.917481   -1.431126
     20          6           0        0.137344    0.204176   -0.045149
     21          1           0       -0.260037    1.127231    0.388041
     22          6           0        1.659243    0.373727   -0.252456
     23          6           0       -0.119664   -0.975632    0.903943
     24          1           0        0.202031   -1.893203    0.394457
     25          1           0       -1.204380   -1.046542    1.064823
     26          8           0        2.399292   -0.567884   -0.569010
     27          6           0        0.591287   -0.884566    2.268960
     28          1           0        1.673882   -0.913702    2.082795
     29          6           0        0.262258    0.412551    3.024644
     30          1           0       -0.822610    0.540467    3.132836
     31          1           0        0.692291    0.386530    4.031460
     32          1           0        0.666777    1.302807    2.530050
     33          6           0        0.227638   -2.116447    3.110385
     34          1           0       -0.844518   -2.127872    3.344293
     35          1           0        0.468722   -3.047642    2.584811
     36          1           0        0.774712   -2.114405    4.058944
     37          7           0        2.122078    1.604747    0.022190
     38          1           0        1.461648    2.327360    0.281118
     39          6           0        3.523386    1.973596    0.127345
     40          1           0        4.109462    1.061662    0.273297
     41          6           0        3.661049    2.863325    1.360997
     42          6           0        4.013581    2.724665   -1.133170
     43          1           0        4.944250    3.251100   -0.897563
     44          1           0        3.260461    3.488487   -1.365688
     45          8           0        2.728860    3.382116    1.935575
     46          6           0        4.221576    1.787382   -2.338291
     47          1           0        5.265701    1.458135   -2.377763
     48          1           0        3.618912    0.879937   -2.241035
     49          6           0        3.877181    2.450476   -3.676418
     50          1           0        4.234441    1.831248   -4.508290
     51          1           0        4.356457    3.434148   -3.745898
     52          7           0        2.423931    2.622998   -3.781705
     53          1           0        1.871181    1.837550   -3.440460
     54          7           0        2.436988    4.428814   -5.258868
     55          1           0        2.003081    5.289992   -5.555732
     56          1           0        3.403380    4.283081   -5.505201
     57          7           0        0.445374    3.672131   -4.344665
     58          1           0       -0.095269    4.120240   -5.069347
     59          6           0        1.773632    3.564394   -4.461527
     60          8           0        4.950298    3.030162    1.699617
     61          1           0        4.978416    3.627333    2.472166
     62          1           0        1.902036   -1.702472   -1.772668
 ---------------------------------------------------------------------

 SCF Done:  E(RB3LYP) =  -1447.53914474     A.U. after    1 cycles

 Alpha  occ. eigenvalues --  -19.29790 -19.27935 -19.24360 -19.24174 -19.23873
 Alpha  occ. eigenvalues --  -19.23141 -14.50434 -14.48997 -14.48410 -14.47889
 Alpha  occ. eigenvalues --  -14.47204 -14.43535 -10.45777 -10.42341 -10.42138
 Alpha  occ. eigenvalues --  -10.40821 -10.40098 -10.34477 -10.34445 -10.34426
 Alpha  occ. eigenvalues --  -10.34392 -10.30447 -10.30361 -10.29659 -10.28967
 Alpha  occ. eigenvalues --  -10.28526 -10.27470 -10.25116 -10.24714  -1.20818
 Alpha  occ. eigenvalues --   -1.19871  -1.15980  -1.14651  -1.14216  -1.12000
 Alpha  occ. eigenvalues --   -1.10911  -1.04574  -1.03948  -1.03683  -1.02105
 Alpha  occ. eigenvalues --   -1.00582  -0.91541  -0.90486  -0.89771  -0.86900
 Alpha  occ. eigenvalues --   -0.84659  -0.81144  -0.79725  -0.76507  -0.76254
 Alpha  occ. eigenvalues --   -0.75716  -0.75107  -0.72498  -0.71354  -0.70886
 Alpha  occ. eigenvalues --   -0.70053  -0.69548  -0.68231  -0.67804  -0.64825
 Alpha  occ. eigenvalues --   -0.63792  -0.63481  -0.62391  -0.62035  -0.60961
 Alpha  occ. eigenvalues --   -0.60265  -0.60132  -0.59231  -0.59012  -0.58563
 Alpha  occ. eigenvalues --   -0.58211  -0.57560  -0.57088  -0.56640  -0.55722
 Alpha  occ. eigenvalues --   -0.54778  -0.54366  -0.53998  -0.53214  -0.52765
 Alpha  occ. eigenvalues --   -0.52299  -0.51882  -0.51103  -0.50997  -0.50571
 Alpha  occ. eigenvalues --   -0.49611  -0.49345  -0.48704  -0.48379  -0.47227
 Alpha  occ. eigenvalues --   -0.46994  -0.46571  -0.45934  -0.45843  -0.45245
 Alpha  occ. eigenvalues --   -0.45045  -0.44751  -0.44478  -0.41890  -0.41483
 Alpha  occ. eigenvalues --   -0.41354  -0.40988  -0.40928  -0.40674  -0.39488
 Alpha  occ. eigenvalues --   -0.38543  -0.38276  -0.37771  -0.37511  -0.36259
 Alpha  occ. eigenvalues --   -0.36080  -0.35815
 Alpha virt. eigenvalues --   -0.10894  -0.10063  -0.09716  -0.09112  -0.08918
 Alpha virt. eigenvalues --   -0.05904  -0.03832  -0.02508  -0.02074  -0.01813
 Alpha virt. eigenvalues --   -0.01021   0.00210   0.00657   0.01161   0.01306

 Mulliken charges:
               1
     1  N   -0.745096
     2  H    0.322626
     3  H    0.451498
     4  H    0.320845
     5  C   -0.060669
     6  H    0.140774
     7  C    0.622194
     8  C   -0.270802
     9  H    0.167686
    10  H    0.162800
    11  O   -0.564196
    12  C   -0.362395
    13  H    0.173860
    14  H    0.204355
    15  C    0.604233
    16  O   -0.508582
    17  O   -0.586146
    18  N   -0.608099
    19  H    0.352234
    20  C   -0.028775
    21  H    0.173598
    22  C    0.672340
    23  C   -0.306473
    24  H    0.162907
    25  H    0.152197
    26  O   -0.582329
    27  C   -0.090063
    28  H    0.148068
    29  C   -0.461340
    30  H    0.147194
    31  H    0.164365
    32  H    0.145081
    33  C   -0.447362
    34  H    0.148986
    35  H    0.151739
    36  H    0.160276
    37  N   -0.569338
    38  H    0.362870
    39  C   -0.068176
    40  H    0.214255
    41  C    0.589233
    42  C   -0.273161
    43  H    0.179514
    44  H    0.156166
    45  O   -0.455929
    46  C   -0.324200
    47  H    0.170551
    48  H    0.218486
    49  C   -0.156041
    50  H    0.185675
    51  H    0.159627
    52  N   -0.614874
    53  H    0.416361
    54  N   -0.767779
    55  H    0.375321
    56  H    0.379356
    57  N   -0.794790
    58  H    0.357094
    59  C    0.793727
    60  O   -0.555293
    61  H    0.431121
    62  H    0.462696
 Sum of Mulliken charges =   1.00000

 Dipole moment (field-independent basis, Debye):
    X=              4.9707    Y=             10.8814    Z=            -15.1300  Tot=             19.2881
 Quadrupole moment (field-independent basis, Debye-Ang):
   XX=           -121.3840   YY=           -119.2563   ZZ=            -77.1354
   XY=             35.3581   XZ=             -7.9759   YZ=            -50.3293

 Normal termination of Gaussian 16 at Wed Jun  1 02:21:21 2022.
