 Gaussian 16, Revision C.01,
 Gaussian 16:  ES64L-G16RevC.01  3-Jul-2019

 ----------------------------------------------------------------------
 # B3LYP/6-31G* empiricaldispersion=gd3 guess=read geom=check nosymm in
 tegral(ultrafinegrid)
 ----------------------------------------------------------------------

 ------------------------------------------------------
 Candidate Structure: Conf:446 Charge calc in gas phase
 ------------------------------------------------------
 Structure from the checkpoint file:  "conf-446.chk"
 Charge =  1 Multiplicity = 1

                          Input orientation:
 ---------------------------------------------------------------------
 Center     Atomic      Atomic             Coordinates (Angstroms)
 Number     Number       Type             X           Y           Z
 ---------------------------------------------------------------------
      1          7           0       -2.226652   -1.440460   -5.190845
      2          1           0       -1.927321   -0.565074   -5.625400
      3          1           0       -1.416333   -2.103709   -5.078333
      4          1           0       -2.938017   -1.901929   -5.781629
      5          6           0       -2.742689   -1.272725   -3.778820
      6          1           0       -2.437397   -0.286634   -3.416598
      7          6           0       -1.925158   -2.308375   -2.966913
      8          6           0       -4.279340   -1.439320   -3.739085
      9          1           0       -4.586716   -1.463574   -2.688653
     10          1           0       -4.735189   -0.542422   -4.173263
     11          8           0       -1.060508   -2.965260   -3.569693
     12          6           0       -4.737382   -2.679334   -4.477080
     13          6           0       -5.217874   -2.575607   -5.792884
     14          1           0       -5.366069   -1.592722   -6.238604
     15          6           0       -4.608504   -3.950818   -3.898586
     16          1           0       -4.243442   -4.044477   -2.879281
     17          6           0       -5.561506   -3.721857   -6.517500
     18          1           0       -5.944186   -3.626444   -7.529246
     19          6           0       -4.955876   -5.091658   -4.620212
     20          1           0       -4.860826   -6.069933   -4.158592
     21          6           0       -5.427966   -4.980273   -5.931737
     22          1           0       -5.698486   -5.871618   -6.489493
     23          7           0       -2.214110   -2.358985   -1.670244
     24          1           0       -2.822405   -1.629339   -1.295902
     25          6           0       -1.373060   -2.900456   -0.595772
     26          1           0       -1.581232   -3.965349   -0.439798
     27          6           0       -1.788180   -2.087050    0.650702
     28          6           0        0.158065   -2.764591   -0.882917
     29          1           0        0.702243   -2.724007    0.063857
     30          1           0        0.320912   -1.799225   -1.387091
     31          8           0       -2.617618   -1.170010    0.560633
     32          8           0        0.667614   -3.862799   -1.588550
     33          1           0        0.297884   -3.817099   -2.487877
     34          7           0       -1.155987   -2.392519    1.796234
     35          1           0       -0.465644   -3.139858    1.815662
     36          6           0       -0.905365   -1.389937    2.842569
     37          1           0       -1.833406   -0.857249    3.064424
     38          6           0        0.182869   -0.466737    2.253257
     39          6           0       -0.372000   -2.133589    4.082457
     40          1           0       -1.182768   -2.714111    4.531968
     41          1           0       -0.023456   -1.395547    4.818832
     42          8           0        1.350631   -0.866354    2.173899
     43          8           0        0.641497   -3.053029    3.719892
     44          1           0        1.376122   -2.517023    3.360662
     45          7           0       -0.225547    0.705532    1.724186
     46          1           0       -1.192682    0.989402    1.815834
     47          6           0        0.651823    1.493973    0.846454
     48          1           0        1.351822    0.776509    0.408919
     49          6           0        1.451646    2.546396    1.668426
     50          6           0       -0.144093    2.208084   -0.273017
     51          1           0       -0.543373    3.142293    0.130538
     52          1           0        0.541517    2.445008   -1.088440
     53          8           0        1.174203    3.743435    1.605979
     54          6           0       -1.259872    1.334726   -0.778610
     55          8           0       -1.202700    0.550290   -1.712956
     56          8           0       -2.359199    1.466628   -0.005686
     57          7           0        2.423512    2.015256    2.427213
     58          1           0        2.574880    1.008358    2.487439
     59          6           0        3.288955    2.812278    3.292299
     60          1           0        3.637843    3.686736    2.735806
     61          6           0        4.483683    1.901967    3.677977
     62          6           0        2.488313    3.284716    4.539449
     63          1           0        2.272330    2.401485    5.156041
     64          1           0        1.531828    3.651959    4.155882
     65          8           0        5.595008    2.499405    3.900557
     66          6           0        3.111924    4.413810    5.397276
     67          1           0        2.316806    5.101660    5.707963
     68          1           0        3.803735    5.013722    4.791745
     69          6           0        3.826476    3.978626    6.687211
     70          1           0        4.054345    4.864160    7.294571
     71          1           0        3.165960    3.328124    7.274773
     72          7           0        5.063561    3.263209    6.367932
     73          1           0        5.366563    3.328321    5.374176
     74          7           0        5.061593    1.789503    8.180733
     75          1           0        5.452934    0.971642    8.624940
     76          1           0        4.770674    2.526592    8.806525
     77          7           0        6.293025    1.333566    6.235014
     78          1           0        6.266515    1.478530    5.199999
     79          1           0        6.580260    0.440899    6.607325
     80          6           0        5.474509    2.125233    6.930746
     81          8           0        4.247794    0.690548    3.813634
     82          1           0       -2.901391    0.659042   -0.115795
 ---------------------------------------------------------------------

 SCF Done:  E(RB3LYP) =  -2166.38450864     A.U. after    1 cycles

 Alpha  occ. eigenvalues --  -19.28945 -19.27476 -19.24924 -19.24552 -19.22276
 Alpha  occ. eigenvalues --  -19.22193 -19.21667 -19.17139 -19.13562 -19.12886
 Alpha  occ. eigenvalues --  -14.59090 -14.49479 -14.47373 -14.46116 -14.46102
 Alpha  occ. eigenvalues --  -14.42991 -14.42975 -14.40358 -10.43893 -10.42334
 Alpha  occ. eigenvalues --  -10.41453 -10.40650 -10.39924 -10.38659 -10.35223
 Alpha  occ. eigenvalues --  -10.34381 -10.34067 -10.33600 -10.33229 -10.32394
 Alpha  occ. eigenvalues --  -10.32285 -10.32130 -10.31041 -10.30958 -10.30407
 Alpha  occ. eigenvalues --  -10.30257 -10.30059 -10.29953 -10.29843 -10.28544
 Alpha  occ. eigenvalues --  -10.26386 -10.25325 -10.24005  -1.20288  -1.19481
 Alpha  occ. eigenvalues --   -1.16504  -1.13728  -1.13417  -1.11394  -1.10290
 Alpha  occ. eigenvalues --   -1.09865  -1.09506  -1.08902  -1.06539  -1.06500
 Alpha  occ. eigenvalues --   -1.03916  -1.02164  -0.99186  -0.97882  -0.97588
 Alpha  occ. eigenvalues --   -0.97246  -0.96556  -0.93050  -0.89211  -0.87810
 Alpha  occ. eigenvalues --   -0.86217  -0.85757  -0.85239  -0.83963  -0.80334
 Alpha  occ. eigenvalues --   -0.79743  -0.77566  -0.76433  -0.73957  -0.73850
 Alpha  occ. eigenvalues --   -0.73113  -0.72602  -0.71677  -0.71286  -0.71015
 Alpha  occ. eigenvalues --   -0.70123  -0.69378  -0.68944  -0.68379  -0.66864
 Alpha  occ. eigenvalues --   -0.66652  -0.65478  -0.63768  -0.63455  -0.63065
 Alpha  occ. eigenvalues --   -0.62455  -0.62052  -0.61590  -0.61109  -0.60034
 Alpha  occ. eigenvalues --   -0.59921  -0.59206  -0.58663  -0.58288  -0.57883
 Alpha  occ. eigenvalues --   -0.57592  -0.57243  -0.56914  -0.56631  -0.56452
 Alpha  occ. eigenvalues --   -0.55547  -0.55251  -0.54573  -0.54255  -0.53676
 Alpha  occ. eigenvalues --   -0.53414  -0.53223  -0.52771  -0.52623  -0.52149
 Alpha  occ. eigenvalues --   -0.51895  -0.51375  -0.51144  -0.50972  -0.50855
 Alpha  occ. eigenvalues --   -0.50451  -0.49759  -0.49397  -0.49180  -0.48807
 Alpha  occ. eigenvalues --   -0.48143  -0.47812  -0.47391  -0.47010  -0.46482
 Alpha  occ. eigenvalues --   -0.46147  -0.45629  -0.45521  -0.45352  -0.44771
 Alpha  occ. eigenvalues --   -0.44180  -0.43456  -0.43013  -0.42163  -0.42075
 Alpha  occ. eigenvalues --   -0.41659  -0.41241  -0.40853  -0.39817  -0.39511
 Alpha  occ. eigenvalues --   -0.39352  -0.39023  -0.38520  -0.37683  -0.36601
 Alpha  occ. eigenvalues --   -0.36572  -0.36204  -0.36100  -0.35919  -0.35238
 Alpha  occ. eigenvalues --   -0.34024  -0.33220  -0.30943  -0.30671  -0.28926
 Alpha  occ. eigenvalues --   -0.27919  -0.27070
 Alpha virt. eigenvalues --   -0.13262  -0.12184  -0.11773  -0.11200  -0.09861
 Alpha virt. eigenvalues --   -0.08884  -0.07624  -0.05473  -0.04382  -0.03741
 Alpha virt. eigenvalues --   -0.03286  -0.02151  -0.01543  -0.01396  -0.00454

 Mulliken charges:
               1
     1  N   -0.759483
     2  H    0.414104
     3  H    0.433636
     4  H    0.404428
     5  C   -0.127872
     6  H    0.254334
     7  C    0.684654
     8  C   -0.384281
     9  H    0.201065
    10  H    0.188649
    11  O   -0.569466
    12  C    0.122488
    13  C   -0.230606
    14  H    0.147654
    15  C   -0.171877
    16  H    0.153119
    17  C   -0.118205
    18  H    0.167039
    19  C   -0.122637
    20  H    0.168067
    21  C   -0.122640
    22  H    0.169647
    23  N   -0.620251
    24  H    0.370910
    25  C   -0.060874
    26  H    0.210196
    27  C    0.624315
    28  C   -0.057883
    29  H    0.179334
    30  H    0.157543
    31  O   -0.573029
    32  O   -0.618659
    33  H    0.426932
    34  N   -0.582458
    35  H    0.369340
    36  C   -0.094202
    37  H    0.178555
    38  C    0.628915
    39  C   -0.046801
    40  H    0.172740
    41  H    0.160736
    42  O   -0.541554
    43  O   -0.627431
    44  H    0.432634
    45  N   -0.606052
    46  H    0.364388
    47  C   -0.081036
    48  H    0.198586
    49  C    0.639294
    50  C   -0.352591
    51  H    0.221098
    52  H    0.193716
    53  O   -0.535677
    54  C    0.570357
    55  O   -0.508055
    56  O   -0.566110
    57  N   -0.630748
    58  H    0.380414
    59  C   -0.013374
    60  H    0.165731
    61  C    0.577263
    62  C   -0.278201
    63  H    0.136100
    64  H    0.169940
    65  O   -0.643886
    66  C   -0.303596
    67  H    0.157237
    68  H    0.172448
    69  C   -0.146569
    70  H    0.164307
    71  H    0.157755
    72  N   -0.603693
    73  H    0.402343
    74  N   -0.755151
    75  H    0.360356
    76  H    0.367039
    77  N   -0.755987
    78  H    0.415068
    79  H    0.345008
    80  C    0.759774
    81  O   -0.563496
    82  H    0.435176
 Sum of Mulliken charges =   1.00000

 Dipole moment (field-independent basis, Debye):
    X=            -10.3263    Y=             -4.5219    Z=             -3.5379  Tot=             11.8151
 Quadrupole moment (field-independent basis, Debye-Ang):
   XX=           -187.3421   YY=           -229.6966   ZZ=             -8.6844
   XY=             39.2808   XZ=            120.7312   YZ=             57.7963

 Normal termination of Gaussian 16 at Mon May 16 14:27:48 2022.
