 Gaussian 16, Revision C.01,
 Gaussian 16:  ES64L-G16RevC.01  3-Jul-2019

 ----------------------------------------------------------------------
 # B3LYP/6-31G* empiricaldispersion=gd3 guess=read geom=check nosymm in
 tegral(ultrafinegrid)
 ----------------------------------------------------------------------

 ------------------------------------------------------
 Candidate Structure: Conf:771 Charge calc in gas phase
 ------------------------------------------------------
 Structure from the checkpoint file:  "conf-771.chk"
 Charge =  1 Multiplicity = 1

                          Input orientation:
 ---------------------------------------------------------------------
 Center     Atomic      Atomic             Coordinates (Angstroms)
 Number     Number       Type             X           Y           Z
 ---------------------------------------------------------------------
      1          7           0       -5.190650   -3.860825   -2.040130
      2          1           0       -5.483022   -4.660842   -2.606256
      3          1           0       -4.176978   -3.988446   -1.771412
      4          1           0       -5.811675   -3.788817   -1.218796
      5          6           0       -5.165939   -2.562734   -2.812556
      6          1           0       -5.781103   -2.686148   -3.706526
      7          6           0       -3.666460   -2.357124   -3.117884
      8          6           0       -5.691142   -1.399697   -1.926299
      9          1           0       -4.904641   -1.120331   -1.217839
     10          1           0       -5.823744   -0.536972   -2.586917
     11          8           0       -2.851362   -3.075171   -2.528834
     12          6           0       -6.980123   -1.765989   -1.228049
     13          6           0       -8.197131   -1.791722   -1.925343
     14          1           0       -8.229583   -1.473076   -2.965312
     15          6           0       -6.959327   -2.167062    0.117838
     16          1           0       -6.029419   -2.111783    0.681405
     17          6           0       -9.368329   -2.201033   -1.289755
     18          1           0      -10.306959   -2.202364   -1.836123
     19          6           0       -8.134125   -2.583696    0.753550
     20          1           0       -8.106582   -2.876743    1.798863
     21          6           0       -9.338001   -2.602386    0.049855
     22          1           0      -10.252286   -2.918042    0.543205
     23          7           0       -3.354689   -1.347220   -3.932130
     24          1           0       -4.076604   -0.848837   -4.436745
     25          6           0       -2.036252   -0.728284   -3.889295
     26          1           0       -1.293808   -1.424833   -4.291794
     27          6           0       -1.706783   -0.349602   -2.418018
     28          6           0       -2.071181    0.554503   -4.729288
     29          1           0       -1.043633    0.923601   -4.846591
     30          1           0       -2.647716    1.320135   -4.185832
     31          8           0       -2.598075   -0.232909   -1.578770
     32          8           0       -2.679958    0.231703   -5.972287
     33          1           0       -2.701370    1.030689   -6.521468
     34          7           0       -0.407154   -0.103950   -2.190520
     35          1           0        0.300268   -0.165895   -2.919325
     36          6           0        0.093553    0.413131   -0.929922
     37          1           0       -0.639839    1.104584   -0.503912
     38          6           0        1.418431    1.114333   -1.231057
     39          6           0        0.331920   -0.732198    0.100182
     40          1           0        1.026531   -1.457773   -0.348829
     41          1           0       -0.631726   -1.228084    0.257856
     42          8           0        2.037257    0.883565   -2.270341
     43          8           0        0.792638   -0.243585    1.335503
     44          1           0        1.775530   -0.172002    1.277690
     45          7           0        1.843660    1.945849   -0.247674
     46          1           0        1.328899    1.879634    0.625285
     47          6           0        3.250697    2.286704   -0.122288
     48          1           0        3.621691    2.562678   -1.112025
     49          6           0        4.062416    1.082686    0.411742
     50          6           0        3.411409    3.477673    0.848013
     51          1           0        3.000591    3.221993    1.829453
     52          1           0        4.475894    3.709170    0.978508
     53          8           0        3.511360    0.076806    0.893285
     54          6           0        2.673835    4.697637    0.343563
     55          8           0        1.732661    5.229892    0.886434
     56          8           0        3.190354    5.131084   -0.833569
     57          7           0        5.387316    1.266016    0.358693
     58          1           0        5.742141    2.221676    0.165599
     59          6           0        6.310722    0.727884    1.354369
     60          1           0        5.744191    0.423772    2.242623
     61          6           0        7.290784    1.927675    1.732858
     62          6           0        7.134664   -0.457724    0.867056
     63          1           0        7.831130   -0.691161    1.680896
     64          1           0        7.744083   -0.095451    0.020495
     65          8           0        8.241443    1.603411    2.460184
     66          6           0        6.311409   -1.683770    0.451351
     67          1           0        5.810190   -1.501089   -0.506020
     68          1           0        5.514745   -1.865459    1.179945
     69          6           0        7.168129   -2.952015    0.367436
     70          1           0        7.500127   -3.238040    1.374908
     71          1           0        6.614582   -3.787474   -0.077942
     72          7           0        8.364910   -2.692232   -0.462487
     73          1           0        8.579958   -1.711445   -0.607729
     74          7           0        9.208713   -4.850370   -0.363026
     75          1           0        9.752822   -5.584373   -0.792216
     76          1           0        8.521861   -5.119474    0.325615
     77          7           0       10.295022   -3.246441   -1.631724
     78          1           0       10.355686   -2.304361   -1.993816
     79          1           0       11.159360   -3.769874   -1.612207
     80          6           0        9.283134   -3.583368   -0.802731
     81          8           0        6.975403    3.033225    1.207222
     82          1           0        2.668802    5.913778   -1.092174
 ---------------------------------------------------------------------

 SCF Done:  E(RB3LYP) =  -2166.31388334     A.U. after    2 cycles

 Alpha  occ. eigenvalues --  -19.25627 -19.25191 -19.23199 -19.20138 -19.18277
 Alpha  occ. eigenvalues --  -19.18184 -19.17478 -19.16912 -19.07972 -19.06897
 Alpha  occ. eigenvalues --  -14.58477 -14.51659 -14.51229 -14.50735 -14.48594
 Alpha  occ. eigenvalues --  -14.44159 -14.41460 -14.37714 -10.47549 -10.42420
 Alpha  occ. eigenvalues --  -10.39678 -10.37587 -10.35756 -10.34857 -10.34258
 Alpha  occ. eigenvalues --  -10.33929 -10.33656 -10.32877 -10.32361 -10.31337
 Alpha  occ. eigenvalues --  -10.30114 -10.29954 -10.29627 -10.29595 -10.29411
 Alpha  occ. eigenvalues --  -10.29307 -10.28945 -10.28612 -10.26031 -10.25859
 Alpha  occ. eigenvalues --  -10.24283 -10.23575 -10.23546  -1.18208  -1.16065
 Alpha  occ. eigenvalues --   -1.14000  -1.13061  -1.12440  -1.11890  -1.10015
 Alpha  occ. eigenvalues --   -1.07719  -1.05941  -1.05139  -1.05072  -1.05022
 Alpha  occ. eigenvalues --   -1.04408  -1.00993  -1.00551  -0.98473  -0.96844
 Alpha  occ. eigenvalues --   -0.95269  -0.92252  -0.92225  -0.88101  -0.88014
 Alpha  occ. eigenvalues --   -0.85452  -0.85124  -0.84265  -0.81323  -0.80558
 Alpha  occ. eigenvalues --   -0.78500  -0.78208  -0.74681  -0.74423  -0.73346
 Alpha  occ. eigenvalues --   -0.73007  -0.72596  -0.72048  -0.71938  -0.70912
 Alpha  occ. eigenvalues --   -0.70276  -0.69370  -0.69347  -0.66785  -0.65408
 Alpha  occ. eigenvalues --   -0.64845  -0.64753  -0.64320  -0.63983  -0.63485
 Alpha  occ. eigenvalues --   -0.63067  -0.62032  -0.61534  -0.60376  -0.60022
 Alpha  occ. eigenvalues --   -0.59828  -0.59459  -0.57512  -0.57108  -0.56942
 Alpha  occ. eigenvalues --   -0.56389  -0.56201  -0.55611  -0.54605  -0.54461
 Alpha  occ. eigenvalues --   -0.53828  -0.53290  -0.53205  -0.53104  -0.52607
 Alpha  occ. eigenvalues --   -0.52047  -0.51880  -0.51358  -0.51215  -0.50941
 Alpha  occ. eigenvalues --   -0.50221  -0.50122  -0.49693  -0.49470  -0.48821
 Alpha  occ. eigenvalues --   -0.48502  -0.47951  -0.47592  -0.46824  -0.46621
 Alpha  occ. eigenvalues --   -0.45872  -0.45547  -0.45034  -0.44883  -0.44663
 Alpha  occ. eigenvalues --   -0.44609  -0.44191  -0.43674  -0.42983  -0.42650
 Alpha  occ. eigenvalues --   -0.42601  -0.41887  -0.41430  -0.40555  -0.40236
 Alpha  occ. eigenvalues --   -0.39511  -0.39313  -0.38425  -0.38405  -0.37804
 Alpha  occ. eigenvalues --   -0.37677  -0.37220  -0.36016  -0.35527  -0.35459
 Alpha  occ. eigenvalues --   -0.35377  -0.35132  -0.34323  -0.32665  -0.32159
 Alpha  occ. eigenvalues --   -0.31735  -0.30644  -0.29823  -0.29307  -0.23094
 Alpha  occ. eigenvalues --   -0.22767  -0.21100
 Alpha virt. eigenvalues --   -0.12390  -0.11661  -0.11564  -0.10046  -0.09022
 Alpha virt. eigenvalues --   -0.07537  -0.06505  -0.04658  -0.04322  -0.03763
 Alpha virt. eigenvalues --   -0.03573  -0.02446  -0.02351  -0.01843  -0.01334

 Mulliken charges:
               1
     1  N   -0.751978
     2  H    0.411371
     3  H    0.427715
     4  H    0.404943
     5  C   -0.123932
     6  H    0.206616
     7  C    0.678088
     8  C   -0.388046
     9  H    0.238967
    10  H    0.190721
    11  O   -0.533810
    12  C    0.130376
    13  C   -0.181688
    14  H    0.140697
    15  C   -0.230314
    16  H    0.161564
    17  C   -0.122781
    18  H    0.164650
    19  C   -0.119968
    20  H    0.166965
    21  C   -0.125308
    22  H    0.167002
    23  N   -0.589853
    24  H    0.358093
    25  C   -0.048982
    26  H    0.195240
    27  C    0.638913
    28  C   -0.073752
    29  H    0.173213
    30  H    0.158334
    31  O   -0.548016
    32  O   -0.623723
    33  H    0.418111
    34  N   -0.615169
    35  H    0.355060
    36  C   -0.073994
    37  H    0.188340
    38  C    0.606669
    39  C   -0.026499
    40  H    0.134463
    41  H    0.156460
    42  O   -0.544766
    43  O   -0.653436
    44  H    0.443155
    45  N   -0.591539
    46  H    0.349014
    47  C   -0.087949
    48  H    0.210652
    49  C    0.623514
    50  C   -0.388826
    51  H    0.179136
    52  H    0.240597
    53  O   -0.582713
    54  C    0.580155
    55  O   -0.457092
    56  O   -0.559159
    57  N   -0.587577
    58  H    0.361926
    59  C   -0.094863
    60  H    0.155439
    61  C    0.589584
    62  C   -0.286974
    63  H    0.175492
    64  H    0.120002
    65  O   -0.578214
    66  C   -0.297684
    67  H    0.170068
    68  H    0.190784
    69  C   -0.163151
    70  H    0.182954
    71  H    0.171893
    72  N   -0.592024
    73  H    0.374497
    74  N   -0.757997
    75  H    0.382299
    76  H    0.393359
    77  N   -0.759279
    78  H    0.386710
    79  H    0.380059
    80  C    0.822753
    81  O   -0.606903
    82  H    0.411349
 Sum of Mulliken charges =   1.00000

 Dipole moment (field-independent basis, Debye):
    X=             -5.8442    Y=            -29.5513    Z=            -19.9998  Tot=             36.1583
 Quadrupole moment (field-independent basis, Debye-Ang):
   XX=             96.3646   YY=           -153.9320   ZZ=           -211.1728
   XY=           -111.0227   XZ=            -22.0163   YZ=              0.4326

 Normal termination of Gaussian 16 at Mon May 16 14:27:47 2022.
