 Gaussian 16, Revision C.01,
 Gaussian 16:  ES64L-G16RevC.01  3-Jul-2019

 ----------------------------------------------------------------------
 # B3LYP/6-31G* empiricaldispersion=gd3 guess=read geom=check nosymm in
 tegral(ultrafinegrid)
 ----------------------------------------------------------------------

 ------------------------------------------------------
 Candidate Structure: Conf:156 Charge calc in gas phase
 ------------------------------------------------------
 Structure from the checkpoint file:  "conf-156.chk"
 Charge =  1 Multiplicity = 1

                          Input orientation:
 ---------------------------------------------------------------------
 Center     Atomic      Atomic             Coordinates (Angstroms)
 Number     Number       Type             X           Y           Z
 ---------------------------------------------------------------------
      1          7           0       -3.505626   -3.070250   -2.638461
      2          1           0       -3.757751   -3.809056   -3.300378
      3          1           0       -2.447428   -2.933437   -2.649383
      4          1           0       -3.824089   -3.344620   -1.704544
      5          6           0       -4.001992   -1.693353   -3.047844
      6          1           0       -4.651358   -1.812946   -3.917745
      7          6           0       -2.684667   -0.970747   -3.447177
      8          6           0       -4.781064   -1.028831   -1.889110
      9          1           0       -5.624236   -1.684743   -1.634669
     10          1           0       -4.125935   -0.967083   -1.012143
     11          8           0       -1.616163   -1.559531   -3.221106
     12          6           0       -5.276071    0.349955   -2.274953
     13          6           0       -4.633424    1.491426   -1.778834
     14          1           0       -3.810388    1.400763   -1.071837
     15          6           0       -6.316152    0.487302   -3.207673
     16          1           0       -6.831477   -0.394719   -3.584634
     17          6           0       -5.019036    2.757121   -2.226878
     18          1           0       -4.501030    3.634369   -1.853591
     19          6           0       -6.701464    1.753733   -3.648194
     20          1           0       -7.510692    1.853649   -4.365452
     21          6           0       -6.047657    2.890465   -3.161837
     22          1           0       -6.344368    3.875871   -3.508542
     23          7           0       -2.790844    0.223763   -4.030674
     24          1           0       -3.686709    0.698325   -3.974889
     25          6           0       -1.607022    1.058243   -4.309604
     26          1           0       -0.823087    0.383766   -4.661131
     27          6           0       -1.185366    1.775746   -3.013459
     28          6           0       -1.938541    2.063760   -5.418935
     29          1           0       -1.069434    2.709696   -5.566215
     30          1           0       -2.766919    2.709000   -5.093541
     31          8           0       -1.631049    2.898799   -2.749141
     32          8           0       -2.187629    1.417043   -6.652206
     33          1           0       -3.091783    1.070142   -6.643968
     34          7           0       -0.346833    1.087987   -2.218120
     35          1           0        0.003202    0.163805   -2.466480
     36          6           0        0.291375    1.683801   -1.052289
     37          1           0        0.557586    2.719153   -1.296925
     38          6           0        1.558745    0.850576   -0.779408
     39          6           0       -0.622656    1.685758    0.189772
     40          1           0       -0.105697    2.226742    0.995845
     41          1           0       -0.774563    0.652697    0.528417
     42          8           0        1.686033   -0.274808   -1.273658
     43          8           0       -1.896986    2.251544   -0.067685
     44          1           0       -1.823865    2.825263   -0.853632
     45          7           0        2.444668    1.425224    0.042312
     46          1           0        2.325525    2.366872    0.408848
     47          6           0        3.696431    0.809587    0.442834
     48          1           0        3.484865   -0.186849    0.850823
     49          6           0        4.259185    1.706209    1.575603
     50          6           0        4.668264    0.629482   -0.737820
     51          1           0        5.554377    0.061736   -0.437268
     52          1           0        4.171620    0.037326   -1.514252
     53          8           0        3.609870    2.664696    1.996162
     54          6           0        5.109316    1.946776   -1.340315
     55          8           0        4.613481    3.028003   -1.110132
     56          8           0        6.135095    1.769488   -2.201649
     57          7           0        5.473066    1.357241    2.031121
     58          1           0        5.960029    0.520004    1.726946
     59          6           0        6.206967    2.108841    3.042726
     60          1           0        6.112524    3.176600    2.833804
     61          6           0        7.691426    1.698244    2.968936
     62          6           0        5.643768    1.808096    4.458079
     63          1           0        5.514669    0.719235    4.539898
     64          1           0        4.638090    2.236908    4.500693
     65          8           0        8.543175    2.534058    3.303661
     66          6           0        6.510281    2.337551    5.624218
     67          1           0        5.874059    2.844223    6.360158
     68          1           0        7.228775    3.073310    5.251639
     69          6           0        7.261035    1.237448    6.396788
     70          1           0        7.785743    1.663164    7.257171
     71          1           0        6.541779    0.524640    6.815657
     72          7           0        8.199736    0.438380    5.591338
     73          1           0        7.771758   -0.031013    4.793247
     74          7           0       10.240014    1.382579    6.270169
     75          1           0       11.049397    1.884104    5.937894
     76          1           0        9.792512    1.786254    7.078684
     77          7           0       10.063236    0.202100    4.264560
     78          1           0        9.416186    0.187467    3.438279
     79          1           0       11.018826    0.472458    4.074830
     80          6           0        9.492733    0.717504    5.359358
     81          8           0        7.882650    0.454307    2.691861
     82          1           0        6.365725    2.652201   -2.548904
 ---------------------------------------------------------------------

 SCF Done:  E(RB3LYP) =  -2166.36693323     A.U. after    1 cycles

 Alpha  occ. eigenvalues --  -19.28206 -19.25112 -19.23947 -19.21801 -19.21248
 Alpha  occ. eigenvalues --  -19.19596 -19.19511 -19.16966 -19.13969 -19.12706
 Alpha  occ. eigenvalues --  -14.60878 -14.50758 -14.45504 -14.45366 -14.44247
 Alpha  occ. eigenvalues --  -14.43061 -14.41988 -14.40672 -10.44693 -10.41881
 Alpha  occ. eigenvalues --  -10.40547 -10.38923 -10.37904 -10.36671 -10.34839
 Alpha  occ. eigenvalues --  -10.34317 -10.34252 -10.33098 -10.31781 -10.31518
 Alpha  occ. eigenvalues --  -10.31295 -10.31006 -10.30566 -10.30298 -10.30290
 Alpha  occ. eigenvalues --  -10.29591 -10.29210 -10.29138 -10.28978 -10.26674
 Alpha  occ. eigenvalues --  -10.26226 -10.24439 -10.23874  -1.20536  -1.16080
 Alpha  occ. eigenvalues --   -1.14817  -1.13738  -1.11553  -1.11349  -1.09330
 Alpha  occ. eigenvalues --   -1.08930  -1.08669  -1.07129  -1.07097  -1.06476
 Alpha  occ. eigenvalues --   -1.01662  -0.99852  -0.99066  -0.98194  -0.97418
 Alpha  occ. eigenvalues --   -0.97100  -0.96441  -0.93528  -0.88418  -0.86623
 Alpha  occ. eigenvalues --   -0.85680  -0.85001  -0.84931  -0.83155  -0.80435
 Alpha  occ. eigenvalues --   -0.79661  -0.76346  -0.75429  -0.75023  -0.74209
 Alpha  occ. eigenvalues --   -0.73604  -0.73121  -0.71745  -0.71108  -0.70938
 Alpha  occ. eigenvalues --   -0.68895  -0.68372  -0.67177  -0.66693  -0.66301
 Alpha  occ. eigenvalues --   -0.65867  -0.64325  -0.64182  -0.63384  -0.62783
 Alpha  occ. eigenvalues --   -0.62083  -0.61642  -0.61087  -0.60309  -0.60063
 Alpha  occ. eigenvalues --   -0.58716  -0.58579  -0.58045  -0.57108  -0.56960
 Alpha  occ. eigenvalues --   -0.56578  -0.56281  -0.56114  -0.55622  -0.54710
 Alpha  occ. eigenvalues --   -0.54172  -0.53654  -0.53452  -0.53035  -0.52661
 Alpha  occ. eigenvalues --   -0.52242  -0.52179  -0.52037  -0.51764  -0.51377
 Alpha  occ. eigenvalues --   -0.50946  -0.50848  -0.50691  -0.50405  -0.49855
 Alpha  occ. eigenvalues --   -0.49436  -0.49227  -0.49146  -0.48623  -0.47698
 Alpha  occ. eigenvalues --   -0.47028  -0.46514  -0.46294  -0.45883  -0.45446
 Alpha  occ. eigenvalues --   -0.44979  -0.44970  -0.44578  -0.44294  -0.43918
 Alpha  occ. eigenvalues --   -0.43481  -0.43101  -0.42736  -0.42405  -0.41866
 Alpha  occ. eigenvalues --   -0.41559  -0.40827  -0.40289  -0.40072  -0.38851
 Alpha  occ. eigenvalues --   -0.37391  -0.37375  -0.36079  -0.35972  -0.35588
 Alpha  occ. eigenvalues --   -0.35226  -0.34765  -0.34301  -0.33815  -0.33304
 Alpha  occ. eigenvalues --   -0.33093  -0.32304  -0.31234  -0.30717  -0.29291
 Alpha  occ. eigenvalues --   -0.28604  -0.26338
 Alpha virt. eigenvalues --   -0.13919  -0.11964  -0.11722  -0.10877  -0.08661
 Alpha virt. eigenvalues --   -0.06757  -0.05941  -0.05397  -0.04628  -0.03766
 Alpha virt. eigenvalues --   -0.03036  -0.02738  -0.01937  -0.01732  -0.01567

 Mulliken charges:
               1
     1  N   -0.761938
     2  H    0.419244
     3  H    0.440254
     4  H    0.417610
     5  C   -0.110948
     6  H    0.221657
     7  C    0.654216
     8  C   -0.375690
     9  H    0.187129
    10  H    0.194766
    11  O   -0.534770
    12  C    0.105164
    13  C   -0.206402
    14  H    0.195177
    15  C   -0.192870
    16  H    0.134129
    17  C   -0.128462
    18  H    0.176593
    19  C   -0.131350
    20  H    0.162782
    21  C   -0.131339
    22  H    0.167577
    23  N   -0.596839
    24  H    0.372590
    25  C   -0.087272
    26  H    0.205702
    27  C    0.643717
    28  C   -0.065851
    29  H    0.192042
    30  H    0.162329
    31  O   -0.556124
    32  O   -0.596119
    33  H    0.394019
    34  N   -0.604105
    35  H    0.375483
    36  C   -0.124477
    37  H    0.195741
    38  C    0.621275
    39  C    0.016474
    40  H    0.154723
    41  H    0.135407
    42  O   -0.555673
    43  O   -0.650513
    44  H    0.431413
    45  N   -0.600177
    46  H    0.372849
    47  C   -0.045237
    48  H    0.181607
    49  C    0.636200
    50  C   -0.380910
    51  H    0.190540
    52  H    0.217943
    53  O   -0.546106
    54  C    0.593644
    55  O   -0.458926
    56  O   -0.563200
    57  N   -0.630060
    58  H    0.348743
    59  C   -0.006132
    60  H    0.177936
    61  C    0.576364
    62  C   -0.295089
    63  H    0.127549
    64  H    0.178560
    65  O   -0.573785
    66  C   -0.273448
    67  H    0.149048
    68  H    0.191978
    69  C   -0.174132
    70  H    0.146675
    71  H    0.176401
    72  N   -0.577781
    73  H    0.369650
    74  N   -0.752105
    75  H    0.367778
    76  H    0.365316
    77  N   -0.737590
    78  H    0.407270
    79  H    0.340022
    80  C    0.765900
    81  O   -0.651085
    82  H    0.417322
 Sum of Mulliken charges =   1.00000

 Dipole moment (field-independent basis, Debye):
    X=             -6.4653    Y=             -8.1032    Z=             -3.5059  Tot=             10.9431
 Quadrupole moment (field-independent basis, Debye-Ang):
   XX=            -37.1298   YY=           -219.2584   ZZ=           -136.5247
   XY=             46.6080   XZ=            149.4256   YZ=             27.9342

 Normal termination of Gaussian 16 at Mon May 16 14:27:45 2022.
