 Gaussian 16, Revision C.01,
 Gaussian 16:  ES64L-G16RevC.01  3-Jul-2019

 ----------------------------------------------------------------------
 # B3LYP/6-31G* empiricaldispersion=gd3 guess=read geom=check nosymm in
 tegral(ultrafinegrid)
 ----------------------------------------------------------------------

 ------------------------------------------------------
 Candidate Structure: Conf:684 Charge calc in gas phase
 ------------------------------------------------------
 Structure from the checkpoint file:  "conf-684.chk"
 Charge =  1 Multiplicity = 1

                          Input orientation:
 ---------------------------------------------------------------------
 Center     Atomic      Atomic             Coordinates (Angstroms)
 Number     Number       Type             X           Y           Z
 ---------------------------------------------------------------------
      1          7           0       -3.737405    1.960629   -5.549479
      2          1           0       -3.134401    2.294127   -6.306777
      3          1           0       -4.325030    1.177388   -5.923673
      4          1           0       -4.303103    2.748833   -5.200507
      5          6           0       -2.963370    1.308891   -4.425698
      6          1           0       -1.978663    1.774588   -4.360752
      7          6           0       -2.908314   -0.176776   -4.827014
      8          6           0       -3.736489    1.498797   -3.103056
      9          1           0       -4.702931    0.986757   -3.182168
     10          1           0       -3.156629    0.985623   -2.335357
     11          8           0       -3.776615   -0.603343   -5.595807
     12          6           0       -3.902010    2.966396   -2.785500
     13          6           0       -5.108849    3.629491   -3.054668
     14          1           0       -5.975663    3.060893   -3.389966
     15          6           0       -2.811612    3.700622   -2.294276
     16          1           0       -1.877652    3.185802   -2.078345
     17          6           0       -5.224929    5.007205   -2.837603
     18          1           0       -6.167745    5.508119   -3.037017
     19          6           0       -2.930899    5.071667   -2.074516
     20          1           0       -2.085229    5.630813   -1.684606
     21          6           0       -4.135517    5.728216   -2.350182
     22          1           0       -4.224260    6.796462   -2.176477
     23          7           0       -1.911148   -0.864620   -4.267673
     24          1           0       -1.364960   -0.380115   -3.549792
     25          6           0       -1.872015   -2.321971   -4.175911
     26          1           0       -2.648416   -2.725448   -4.832769
     27          6           0       -2.238573   -2.645828   -2.705576
     28          6           0       -0.454880   -2.756643   -4.678993
     29          1           0        0.254984   -1.982395   -4.376799
     30          1           0       -0.495760   -2.778402   -5.772316
     31          8           0       -2.882490   -1.812026   -2.056973
     32          8           0       -0.016724   -4.030392   -4.240322
     33          1           0        0.537427   -3.882055   -3.452379
     34          7           0       -1.798646   -3.809374   -2.163018
     35          1           0       -1.222025   -4.358228   -2.801398
     36          6           0       -1.244324   -3.728616   -0.810916
     37          1           0       -2.028435   -3.454364   -0.099551
     38          6           0       -0.149027   -2.619187   -0.824790
     39          6           0       -0.642586   -5.078898   -0.429118
     40          1           0       -1.433119   -5.841995   -0.442057
     41          1           0       -0.230184   -5.018921    0.588780
     42          8           0        0.293268   -2.193807   -1.897756
     43          8           0        0.370777   -5.348622   -1.392340
     44          1           0        0.672221   -6.263932   -1.293195
     45          7           0        0.246247   -2.110966    0.353960
     46          1           0       -0.113785   -2.426211    1.249260
     47          6           0        1.107548   -0.943082    0.408454
     48          1           0        1.836914   -1.025989   -0.399649
     49          6           0        1.792358   -0.941990    1.787259
     50          6           0        0.338047    0.421957    0.244142
     51          1           0       -0.106286    0.688756    1.208130
     52          1           0        1.049584    1.195307   -0.051977
     53          8           0        1.302558   -1.582062    2.724199
     54          6           0       -0.780521    0.333990   -0.769597
     55          8           0       -0.725995    0.714697   -1.934240
     56          8           0       -1.852520   -0.247662   -0.225341
     57          7           0        2.885208   -0.176101    1.872046
     58          1           0        3.201215    0.442157    1.121087
     59          6           0        3.557901    0.126184    3.125064
     60          1           0        2.793838    0.414434    3.859906
     61          6           0        4.429718    1.400929    2.854839
     62          6           0        4.342671   -1.101076    3.683229
     63          1           0        5.416924   -0.878213    3.711048
     64          1           0        4.216385   -1.919050    2.969441
     65          8           0        5.084488    1.831914    3.869741
     66          6           0        3.860325   -1.590536    5.065440
     67          1           0        4.082172   -2.658854    5.177122
     68          1           0        2.769685   -1.491088    5.109788
     69          6           0        4.515623   -0.876184    6.262476
     70          1           0        3.993742   -1.141260    7.188964
     71          1           0        5.554153   -1.209868    6.372415
     72          7           0        4.539363    0.571661    6.078130
     73          1           0        4.915077    0.944225    5.146137
     74          7           0        3.469498    1.331602    8.034444
     75          1           0        2.728690    1.926657    8.375425
     76          1           0        3.570710    0.434807    8.484064
     77          7           0        3.769502    2.727478    6.197137
     78          1           0        4.182803    2.819651    5.259584
     79          1           0        3.775488    3.546061    6.790178
     80          6           0        3.932545    1.512519    6.772835
     81          8           0        4.390165    1.889514    1.720211
     82          1           0       -2.421862   -0.649503   -0.931634
 ---------------------------------------------------------------------

 SCF Done:  E(RB3LYP) =  -2166.39212547     A.U. after    1 cycles

 Alpha  occ. eigenvalues --  -19.26717 -19.24618 -19.24473 -19.23078 -19.23046
 Alpha  occ. eigenvalues --  -19.22502 -19.21028 -19.18628 -19.14929 -19.14138
 Alpha  occ. eigenvalues --  -14.58485 -14.47319 -14.46802 -14.44916 -14.44373
 Alpha  occ. eigenvalues --  -14.44027 -14.44022 -14.41655 -10.41746 -10.41377
 Alpha  occ. eigenvalues --  -10.41125 -10.39168 -10.38495 -10.38025 -10.35663
 Alpha  occ. eigenvalues --  -10.33433 -10.33137 -10.32989 -10.32515 -10.32309
 Alpha  occ. eigenvalues --  -10.32054 -10.31534 -10.30951 -10.30513 -10.29533
 Alpha  occ. eigenvalues --  -10.28987 -10.28839 -10.28774 -10.28665 -10.28598
 Alpha  occ. eigenvalues --  -10.27875 -10.25637 -10.24856  -1.18565  -1.17071
 Alpha  occ. eigenvalues --   -1.14504  -1.12904  -1.12338  -1.11583  -1.10467
 Alpha  occ. eigenvalues --   -1.10411  -1.10287  -1.09678  -1.07743  -1.04325
 Alpha  occ. eigenvalues --   -1.01562  -1.01212  -1.00433  -0.99290  -0.98267
 Alpha  occ. eigenvalues --   -0.97982  -0.96118  -0.91585  -0.88138  -0.86824
 Alpha  occ. eigenvalues --   -0.86053  -0.84963  -0.84406  -0.83175  -0.80911
 Alpha  occ. eigenvalues --   -0.77966  -0.77636  -0.74674  -0.74245  -0.72561
 Alpha  occ. eigenvalues --   -0.72425  -0.71920  -0.71837  -0.70350  -0.69972
 Alpha  occ. eigenvalues --   -0.69215  -0.68549  -0.68238  -0.67440  -0.67236
 Alpha  occ. eigenvalues --   -0.67068  -0.64869  -0.64187  -0.63132  -0.63079
 Alpha  occ. eigenvalues --   -0.61536  -0.61098  -0.60935  -0.60296  -0.59587
 Alpha  occ. eigenvalues --   -0.59195  -0.58413  -0.58178  -0.57864  -0.57244
 Alpha  occ. eigenvalues --   -0.56615  -0.56423  -0.56166  -0.55861  -0.55760
 Alpha  occ. eigenvalues --   -0.55484  -0.54843  -0.54524  -0.53873  -0.53764
 Alpha  occ. eigenvalues --   -0.52754  -0.52451  -0.52233  -0.52187  -0.51870
 Alpha  occ. eigenvalues --   -0.51562  -0.51035  -0.50731  -0.50432  -0.50029
 Alpha  occ. eigenvalues --   -0.49790  -0.49425  -0.49322  -0.48812  -0.48693
 Alpha  occ. eigenvalues --   -0.48328  -0.47218  -0.46530  -0.46313  -0.45918
 Alpha  occ. eigenvalues --   -0.45640  -0.45511  -0.44981  -0.44904  -0.44183
 Alpha  occ. eigenvalues --   -0.43865  -0.43819  -0.43597  -0.42199  -0.41578
 Alpha  occ. eigenvalues --   -0.41509  -0.41122  -0.40662  -0.39795  -0.39129
 Alpha  occ. eigenvalues --   -0.38346  -0.37417  -0.37399  -0.36660  -0.36467
 Alpha  occ. eigenvalues --   -0.36355  -0.35533  -0.35255  -0.34643  -0.34381
 Alpha  occ. eigenvalues --   -0.34307  -0.33914  -0.32640  -0.31970  -0.30349
 Alpha  occ. eigenvalues --   -0.29354  -0.28369
 Alpha virt. eigenvalues --   -0.11717  -0.10978  -0.09943  -0.09348  -0.08788
 Alpha virt. eigenvalues --   -0.08293  -0.06801  -0.06594  -0.04109  -0.03164
 Alpha virt. eigenvalues --   -0.02528  -0.01666  -0.00547  -0.00298   0.00057

 Mulliken charges:
               1
     1  N   -0.744686
     2  H    0.414565
     3  H    0.421299
     4  H    0.403661
     5  C   -0.129048
     6  H    0.223649
     7  C    0.643203
     8  C   -0.381745
     9  H    0.186002
    10  H    0.214816
    11  O   -0.534204
    12  C    0.134702
    13  C   -0.231281
    14  H    0.145174
    15  C   -0.189271
    16  H    0.167033
    17  C   -0.123100
    18  H    0.160708
    19  C   -0.126225
    20  H    0.161804
    21  C   -0.124816
    22  H    0.162022
    23  N   -0.604193
    24  H    0.404041
    25  C   -0.105958
    26  H    0.219621
    27  C    0.622278
    28  C   -0.025808
    29  H    0.170895
    30  H    0.165266
    31  O   -0.567919
    32  O   -0.631377
    33  H    0.433245
    34  N   -0.587513
    35  H    0.378637
    36  C   -0.093465
    37  H    0.195580
    38  C    0.645106
    39  C   -0.050597
    40  H    0.168263
    41  H    0.157111
    42  O   -0.566432
    43  O   -0.626698
    44  H    0.420372
    45  N   -0.600397
    46  H    0.356125
    47  C   -0.051484
    48  H    0.202616
    49  C    0.615556
    50  C   -0.333027
    51  H    0.191254
    52  H    0.193429
    53  O   -0.554388
    54  C    0.594365
    55  O   -0.522683
    56  O   -0.593392
    57  N   -0.619903
    58  H    0.358404
    59  C   -0.049156
    60  H    0.152647
    61  C    0.603298
    62  C   -0.293406
    63  H    0.164589
    64  H    0.167116
    65  O   -0.635521
    66  C   -0.272667
    67  H    0.152042
    68  H    0.172073
    69  C   -0.160726
    70  H    0.139626
    71  H    0.182298
    72  N   -0.610460
    73  H    0.431070
    74  N   -0.757076
    75  H    0.365422
    76  H    0.367990
    77  N   -0.779081
    78  H    0.405455
    79  H    0.351105
    80  C    0.753588
    81  O   -0.537554
    82  H    0.476138
 Sum of Mulliken charges =   1.00000

 Dipole moment (field-independent basis, Debye):
    X=             -8.7029    Y=              3.3967    Z=             -0.3380  Tot=              9.3483
 Quadrupole moment (field-independent basis, Debye-Ang):
   XX=           -212.3397   YY=           -173.3256   ZZ=            -45.5380
   XY=            -46.6217   XZ=             97.6653   YZ=            -26.8899

 Normal termination of Gaussian 16 at Mon May 16 14:27:40 2022.
