 Gaussian 16, Revision C.01,
 Gaussian 16:  ES64L-G16RevC.01  3-Jul-2019

 ----------------------------------------------------------------------
 # B3LYP/6-31G* empiricaldispersion=gd3 guess=read geom=check nosymm in
 tegral(ultrafinegrid)
 ----------------------------------------------------------------------

 ------------------------------------------------------
 Candidate Structure: Conf:306 Charge calc in gas phase
 ------------------------------------------------------
 Structure from the checkpoint file:  "conf-306.chk"
 Charge =  1 Multiplicity = 1

                          Input orientation:
 ---------------------------------------------------------------------
 Center     Atomic      Atomic             Coordinates (Angstroms)
 Number     Number       Type             X           Y           Z
 ---------------------------------------------------------------------
      1          7           0       -5.779740   -2.763181   -3.417059
      2          1           0       -6.277795   -3.023707   -4.271885
      3          1           0       -5.196225   -3.587096   -3.107589
      4          1           0       -6.467977   -2.472216   -2.706166
      5          6           0       -4.740382   -1.689769   -3.643568
      6          1           0       -4.992691   -1.159503   -4.564090
      7          6           0       -3.419913   -2.483018   -3.741491
      8          6           0       -4.701961   -0.719244   -2.434110
      9          1           0       -4.222116   -1.227114   -1.591476
     10          1           0       -4.030320    0.100556   -2.706691
     11          8           0       -3.421979   -3.660134   -3.364739
     12          6           0       -6.083671   -0.219392   -2.080376
     13          6           0       -6.717149    0.758328   -2.861697
     14          1           0       -6.180728    1.217330   -3.689727
     15          6           0       -6.786892   -0.792499   -1.008481
     16          1           0       -6.292500   -1.522415   -0.369273
     17          6           0       -8.020962    1.159019   -2.573989
     18          1           0       -8.495720    1.926262   -3.178541
     19          6           0       -8.097720   -0.394528   -0.723506
     20          1           0       -8.625258   -0.836704    0.116481
     21          6           0       -8.715550    0.579718   -1.506987
     22          1           0       -9.730493    0.894767   -1.284345
     23          7           0       -2.353889   -1.809251   -4.179574
     24          1           0       -2.406087   -0.796129   -4.282170
     25          6           0       -1.011390   -2.226851   -3.803953
     26          1           0       -0.807901   -3.229679   -4.191422
     27          6           0       -0.892244   -2.203505   -2.264800
     28          6           0       -0.035910   -1.187272   -4.426468
     29          1           0        0.041223   -1.383011   -5.501089
     30          1           0        0.956114   -1.291407   -3.972081
     31          8           0       -1.649528   -1.527633   -1.574127
     32          8           0       -0.557067    0.120408   -4.266235
     33          1           0       -0.172899    0.512678   -3.456674
     34          7           0        0.141407   -2.938920   -1.776458
     35          1           0        0.809062   -3.286584   -2.456187
     36          6           0        0.743560   -2.595391   -0.494428
     37          1           0       -0.065998   -2.299835    0.176296
     38          6           0        1.719585   -1.429277   -0.754423
     39          6           0        1.492781   -3.784102    0.106306
     40          1           0        2.014671   -3.437247    1.013557
     41          1           0        2.264600   -4.117465   -0.607236
     42          8           0        2.369320   -1.396568   -1.795328
     43          8           0        0.543812   -4.794364    0.387639
     44          1           0        1.015862   -5.567394    0.732952
     45          7           0        1.764801   -0.475238    0.208223
     46          1           0        1.361841   -0.648890    1.121692
     47          6           0        2.616246    0.691921    0.107686
     48          1           0        3.228284    0.565250   -0.788515
     49          6           0        3.478377    0.794151    1.377873
     50          6           0        1.786771    1.987470    0.003070
     51          1           0        1.185089    2.125742    0.909751
     52          1           0        2.447289    2.862096   -0.055247
     53          8           0        3.063556    0.329633    2.444303
     54          6           0        0.856864    2.023772   -1.187863
     55          8           0        0.799743    1.185160   -2.066661
     56          8           0        0.086516    3.125022   -1.167398
     57          7           0        4.637368    1.462062    1.225389
     58          1           0        4.852327    1.919081    0.343684
     59          6           0        5.426703    1.941142    2.349981
     60          1           0        4.761720    1.983214    3.209012
     61          6           0        5.898089    3.365917    2.038235
     62          6           0        6.633627    1.027189    2.664251
     63          1           0        7.367224    1.592590    3.248298
     64          1           0        7.113270    0.775301    1.710857
     65          8           0        6.420594    4.014198    3.072549
     66          6           0        6.257862   -0.247625    3.427756
     67          1           0        7.095914   -0.954278    3.368778
     68          1           0        5.399362   -0.736017    2.951077
     69          6           0        5.964744   -0.026002    4.920720
     70          1           0        5.876855   -1.005090    5.409175
     71          1           0        6.795198    0.504466    5.393630
     72          7           0        4.749529    0.723913    5.231480
     73          1           0        3.889395    0.371797    4.826094
     74          7           0        5.760978    2.820516    5.475992
     75          1           0        5.645705    3.679006    6.015441
     76          1           0        6.301688    3.491954    3.927375
     77          7           0        3.501731    2.421071    6.141643
     78          1           0        3.021369    1.743628    6.720938
     79          1           0        3.433712    3.371453    6.480196
     80          6           0        4.732748    2.036172    5.629851
     81          8           0        5.820140    3.839979    0.921415
     82          1           0       -0.463176    3.120687   -1.973580
 ---------------------------------------------------------------------

 SCF Done:  E(RB3LYP) =  -2166.37551409     A.U. after    1 cycles

 Alpha  occ. eigenvalues --  -19.29224 -19.25665 -19.24318 -19.22975 -19.22493
 Alpha  occ. eigenvalues --  -19.22342 -19.21139 -19.20074 -19.19893 -19.18207
 Alpha  occ. eigenvalues --  -14.58702 -14.47762 -14.44822 -14.44608 -14.43734
 Alpha  occ. eigenvalues --  -14.42064 -14.41350 -14.36396 -10.42324 -10.42238
 Alpha  occ. eigenvalues --  -10.39682 -10.37954 -10.37098 -10.37086 -10.36510
 Alpha  occ. eigenvalues --  -10.36006 -10.33216 -10.32680 -10.32646 -10.32294
 Alpha  occ. eigenvalues --  -10.32223 -10.31683 -10.31678 -10.30520 -10.30266
 Alpha  occ. eigenvalues --  -10.30013 -10.29931 -10.29737 -10.29653 -10.29425
 Alpha  occ. eigenvalues --  -10.27749 -10.24996 -10.24490  -1.20439  -1.18138
 Alpha  occ. eigenvalues --   -1.13906  -1.13380  -1.12692  -1.12126  -1.11601
 Alpha  occ. eigenvalues --   -1.11348  -1.10413  -1.09981  -1.05990  -1.04773
 Alpha  occ. eigenvalues --   -1.04650  -1.01539  -1.01165  -1.00330  -0.97186
 Alpha  occ. eigenvalues --   -0.95538  -0.92398  -0.91347  -0.88834  -0.87518
 Alpha  occ. eigenvalues --   -0.85783  -0.85591  -0.85388  -0.83386  -0.80938
 Alpha  occ. eigenvalues --   -0.78681  -0.78085  -0.74269  -0.73577  -0.73043
 Alpha  occ. eigenvalues --   -0.72557  -0.72379  -0.71302  -0.71082  -0.69687
 Alpha  occ. eigenvalues --   -0.69216  -0.68223  -0.67204  -0.66924  -0.66716
 Alpha  occ. eigenvalues --   -0.65433  -0.64803  -0.64500  -0.63496  -0.62317
 Alpha  occ. eigenvalues --   -0.61948  -0.61634  -0.61024  -0.60629  -0.60253
 Alpha  occ. eigenvalues --   -0.59313  -0.58806  -0.58244  -0.57621  -0.57178
 Alpha  occ. eigenvalues --   -0.56890  -0.56622  -0.55904  -0.55683  -0.55400
 Alpha  occ. eigenvalues --   -0.55259  -0.54408  -0.53719  -0.53564  -0.53235
 Alpha  occ. eigenvalues --   -0.53055  -0.53000  -0.52441  -0.52054  -0.51974
 Alpha  occ. eigenvalues --   -0.51346  -0.51244  -0.50757  -0.50289  -0.49896
 Alpha  occ. eigenvalues --   -0.49725  -0.49700  -0.49267  -0.48640  -0.48379
 Alpha  occ. eigenvalues --   -0.47644  -0.47408  -0.47218  -0.46861  -0.46237
 Alpha  occ. eigenvalues --   -0.45798  -0.45698  -0.45339  -0.45054  -0.45017
 Alpha  occ. eigenvalues --   -0.44776  -0.44038  -0.42826  -0.42160  -0.41674
 Alpha  occ. eigenvalues --   -0.41613  -0.41471  -0.40341  -0.40315  -0.40094
 Alpha  occ. eigenvalues --   -0.38629  -0.37784  -0.36851  -0.36368  -0.35829
 Alpha  occ. eigenvalues --   -0.35605  -0.35496  -0.35379  -0.34939  -0.34484
 Alpha  occ. eigenvalues --   -0.34289  -0.33592  -0.33099  -0.33063  -0.32421
 Alpha  occ. eigenvalues --   -0.31804  -0.29700
 Alpha virt. eigenvalues --   -0.12619  -0.11991  -0.10174  -0.09170  -0.08898
 Alpha virt. eigenvalues --   -0.07489  -0.06342  -0.05692  -0.04162  -0.03458
 Alpha virt. eigenvalues --   -0.03039  -0.01973  -0.01358  -0.01326  -0.00436

 Mulliken charges:
               1
     1  N   -0.751266
     2  H    0.413229
     3  H    0.426682
     4  H    0.404379
     5  C   -0.122733
     6  H    0.210480
     7  C    0.668423
     8  C   -0.384649
     9  H    0.223392
    10  H    0.199652
    11  O   -0.532788
    12  C    0.133895
    13  C   -0.182437
    14  H    0.143070
    15  C   -0.230805
    16  H    0.154872
    17  C   -0.123115
    18  H    0.165399
    19  C   -0.120550
    20  H    0.165399
    21  C   -0.125386
    22  H    0.167106
    23  N   -0.585569
    24  H    0.367513
    25  C   -0.099481
    26  H    0.190658
    27  C    0.635996
    28  C   -0.082794
    29  H    0.172293
    30  H    0.198295
    31  O   -0.542295
    32  O   -0.665924
    33  H    0.445447
    34  N   -0.558447
    35  H    0.341226
    36  C   -0.093434
    37  H    0.190543
    38  C    0.637801
    39  C   -0.032994
    40  H    0.142424
    41  H    0.142898
    42  O   -0.532847
    43  O   -0.607345
    44  H    0.406689
    45  N   -0.596192
    46  H    0.346997
    47  C   -0.072404
    48  H    0.207540
    49  C    0.627716
    50  C   -0.372976
    51  H    0.202988
    52  H    0.217407
    53  O   -0.557262
    54  C    0.607976
    55  O   -0.468394
    56  O   -0.544556
    57  N   -0.590286
    58  H    0.352170
    59  C   -0.098452
    60  H    0.195525
    61  C    0.606081
    62  C   -0.264132
    63  H    0.170007
    64  H    0.153742
    65  O   -0.602516
    66  C   -0.279550
    67  H    0.148103
    68  H    0.153356
    69  C   -0.129417
    70  H    0.151056
    71  H    0.186635
    72  N   -0.597500
    73  H    0.349014
    74  N   -0.720972
    75  H    0.293672
    76  H    0.467432
    77  N   -0.750571
    78  H    0.338443
    79  H    0.335914
    80  C    0.623571
    81  O   -0.482032
    82  H    0.418964
 Sum of Mulliken charges =   1.00000

 Dipole moment (field-independent basis, Debye):
    X=            -18.0329    Y=             -7.4840    Z=             -5.1955  Tot=             20.2037
 Quadrupole moment (field-independent basis, Debye-Ang):
   XX=           -103.3050   YY=           -222.3512   ZZ=           -152.7513
   XY=              4.0947   XZ=             89.6131   YZ=             28.4624

 Normal termination of Gaussian 16 at Mon May 16 14:27:46 2022.
