 Gaussian 16, Revision C.01,
 Gaussian 16:  ES64L-G16RevC.01  3-Jul-2019

 ----------------------------------------------------------------------
 # B3LYP/6-31G* empiricaldispersion=gd3 guess=read geom=check nosymm in
 tegral(ultrafinegrid)
 ----------------------------------------------------------------------

 ------------------------------------------------------
 Candidate Structure: Conf:896 Charge calc in gas phase
 ------------------------------------------------------
 Structure from the checkpoint file:  "conf-896.chk"
 Charge =  1 Multiplicity = 1

                          Input orientation:
 ---------------------------------------------------------------------
 Center     Atomic      Atomic             Coordinates (Angstroms)
 Number     Number       Type             X           Y           Z
 ---------------------------------------------------------------------
      1          7           0        3.542235   -1.461113   -3.770979
      2          1           0        4.467665   -1.698106   -3.393193
      3          1           0        3.581263   -1.234588   -4.773368
      4          1           0        3.180915   -0.617176   -3.271860
      5          6           0        2.570836   -2.608799   -3.576598
      6          1           0        2.980962   -3.440258   -4.159484
      7          6           0        1.298422   -2.134828   -4.320353
      8          6           0        2.515232   -2.993784   -2.092825
      9          1           0        2.047883   -2.187404   -1.520669
     10          1           0        1.858412   -3.867566   -2.009731
     11          8           0        1.456156   -1.625298   -5.424969
     12          6           0        3.902116   -3.311578   -1.568787
     13          6           0        4.491078   -4.561825   -1.805401
     14          1           0        3.922405   -5.340987   -2.309696
     15          6           0        4.648642   -2.326193   -0.906396
     16          1           0        4.218344   -1.352651   -0.690058
     17          6           0        5.796050   -4.817202   -1.382806
     18          1           0        6.238643   -5.792743   -1.564390
     19          6           0        5.956691   -2.576103   -0.481468
     20          1           0        6.482377   -1.782367    0.040914
     21          6           0        6.530266   -3.825023   -0.724844
     22          1           0        7.545626   -4.030176   -0.397581
     23          7           0        0.103527   -2.351639   -3.710933
     24          1           0        0.123888   -2.432433   -2.693485
     25          6           0       -1.124218   -1.691168   -4.211758
     26          1           0       -0.931559   -1.389064   -5.241710
     27          6           0       -1.245301   -0.416119   -3.361715
     28          6           0       -2.292571   -2.681561   -4.183241
     29          1           0       -3.209774   -2.169395   -4.489208
     30          1           0       -2.445957   -3.062005   -3.156934
     31          8           0       -0.500225    0.535416   -3.601376
     32          8           0       -2.094882   -3.736912   -5.097392
     33          1           0       -1.265209   -4.179624   -4.855791
     34          7           0       -2.079853   -0.422775   -2.286978
     35          1           0       -2.525361   -1.294543   -2.023481
     36          6           0       -1.688727    0.393443   -1.144642
     37          1           0       -1.537446    1.422434   -1.481977
     38          6           0       -0.328218   -0.151916   -0.626378
     39          6           0       -2.781947    0.350923   -0.080625
     40          1           0       -3.687080    0.829423   -0.481405
     41          1           0       -2.453307    0.917644    0.803210
     42          8           0        0.096652   -1.248785   -1.001221
     43          8           0       -2.999060   -1.022103    0.221184
     44          1           0       -3.747098   -1.094931    0.832687
     45          7           0        0.379541    0.668981    0.177579
     46          1           0        0.005448    1.561311    0.479332
     47          6           0        1.803003    0.472241    0.394251
     48          1           0        2.019554   -0.565294    0.143568
     49          6           0        2.220566    0.807828    1.831305
     50          6           0        2.652838    1.442713   -0.504246
     51          1           0        2.711077    2.415277   -0.009906
     52          1           0        3.670445    1.049327   -0.603466
     53          8           0        1.636360    1.682683    2.462659
     54          6           0        1.945351    1.675762   -1.812863
     55          8           0        1.265492    2.637407   -2.065165
     56          8           0        2.029824    0.610782   -2.683938
     57          7           0        3.351625    0.158327    2.198793
     58          1           0        3.807312   -0.368659    1.446368
     59          6           0        4.431826    0.828214    2.921795
     60          1           0        4.193724    1.897770    2.985317
     61          6           0        5.735882    0.647377    2.026458
     62          6           0        4.609935    0.280925    4.348590
     63          1           0        5.007301   -0.742123    4.289321
     64          1           0        3.626734    0.220238    4.832043
     65          8           0        6.808473    1.035217    2.523642
     66          6           0        5.562483    1.166415    5.160371
     67          1           0        5.090742    2.136634    5.365697
     68          1           0        6.437579    1.336480    4.518557
     69          6           0        5.997658    0.528841    6.474986
     70          1           0        5.172605    0.474934    7.196088
     71          1           0        6.380378   -0.484833    6.297624
     72          7           0        7.077613    1.351850    7.065584
     73          1           0        7.551435    1.971724    6.417771
     74          7           0        7.150092    0.268250    9.114703
     75          1           0        7.272834    0.336675   10.114686
     76          1           0        6.572031   -0.482813    8.767270
     77          7           0        8.420524    2.172905    8.777437
     78          1           0        8.669381    2.983495    8.227596
     79          1           0        9.019563    1.952522    9.560858
     80          6           0        7.547806    1.260300    8.301104
     81          8           0        5.533780    0.112419    0.893688
     82          1           0        1.258434    0.701483   -3.305048
 ---------------------------------------------------------------------

 SCF Done:  E(RB3LYP) =  -2166.34656843     A.U. after    1 cycles

 Alpha  occ. eigenvalues --  -19.27520 -19.23902 -19.22865 -19.22216 -19.21485
 Alpha  occ. eigenvalues --  -19.21345 -19.21064 -19.17307 -19.12009 -19.11083
 Alpha  occ. eigenvalues --  -14.55320 -14.52490 -14.52279 -14.51938 -14.46628
 Alpha  occ. eigenvalues --  -14.45034 -14.44750 -14.39375 -10.48557 -10.40235
 Alpha  occ. eigenvalues --  -10.39694 -10.38478 -10.38001 -10.36744 -10.34328
 Alpha  occ. eigenvalues --  -10.34125 -10.32946 -10.32352 -10.32102 -10.32014
 Alpha  occ. eigenvalues --  -10.31310 -10.29864 -10.29449 -10.28014 -10.27319
 Alpha  occ. eigenvalues --  -10.26687 -10.26333 -10.26189 -10.26139 -10.26117
 Alpha  occ. eigenvalues --  -10.25792 -10.25137 -10.24784  -1.17756  -1.17004
 Alpha  occ. eigenvalues --   -1.15293  -1.13830  -1.12387  -1.11118  -1.10135
 Alpha  occ. eigenvalues --   -1.09872  -1.08968  -1.08887  -1.06008  -1.05311
 Alpha  occ. eigenvalues --   -1.04819  -1.02868  -1.01535  -1.01180  -0.97572
 Alpha  occ. eigenvalues --   -0.95569  -0.93495  -0.89366  -0.88905  -0.87456
 Alpha  occ. eigenvalues --   -0.85647  -0.83582  -0.82291  -0.81864  -0.81444
 Alpha  occ. eigenvalues --   -0.78958  -0.77151  -0.75862  -0.75024  -0.73858
 Alpha  occ. eigenvalues --   -0.73463  -0.71995  -0.70523  -0.70326  -0.69412
 Alpha  occ. eigenvalues --   -0.68568  -0.68293  -0.67733  -0.67418  -0.67110
 Alpha  occ. eigenvalues --   -0.66676  -0.65825  -0.65648  -0.64629  -0.63761
 Alpha  occ. eigenvalues --   -0.62265  -0.61609  -0.60874  -0.60691  -0.60465
 Alpha  occ. eigenvalues --   -0.59376  -0.58747  -0.58431  -0.57946  -0.57500
 Alpha  occ. eigenvalues --   -0.56749  -0.56572  -0.55865  -0.55612  -0.55399
 Alpha  occ. eigenvalues --   -0.54734  -0.53978  -0.53324  -0.52874  -0.52702
 Alpha  occ. eigenvalues --   -0.52277  -0.51999  -0.51834  -0.51245  -0.50869
 Alpha  occ. eigenvalues --   -0.50422  -0.50200  -0.49887  -0.49177  -0.49064
 Alpha  occ. eigenvalues --   -0.48819  -0.48484  -0.48305  -0.47963  -0.47525
 Alpha  occ. eigenvalues --   -0.47287  -0.46541  -0.46066  -0.45656  -0.45300
 Alpha  occ. eigenvalues --   -0.44407  -0.44004  -0.43608  -0.43532  -0.43354
 Alpha  occ. eigenvalues --   -0.43050  -0.42604  -0.41713  -0.41634  -0.41459
 Alpha  occ. eigenvalues --   -0.41261  -0.41079  -0.40457  -0.40364  -0.39836
 Alpha  occ. eigenvalues --   -0.38373  -0.38310  -0.37022  -0.36697  -0.36118
 Alpha  occ. eigenvalues --   -0.35667  -0.35079  -0.35024  -0.34028  -0.33061
 Alpha  occ. eigenvalues --   -0.32445  -0.32032  -0.31725  -0.30469  -0.27211
 Alpha  occ. eigenvalues --   -0.26738  -0.24847
 Alpha virt. eigenvalues --   -0.12479  -0.11126  -0.08430  -0.08272  -0.07998
 Alpha virt. eigenvalues --   -0.07864  -0.07777  -0.06382  -0.04581  -0.03756
 Alpha virt. eigenvalues --   -0.03490  -0.03009  -0.02756  -0.01378  -0.00171

 Mulliken charges:
               1
     1  N   -0.761037
     2  H    0.409539
     3  H    0.414825
     4  H    0.444211
     5  C   -0.108569
     6  H    0.220640
     7  C    0.621595
     8  C   -0.429299
     9  H    0.231759
    10  H    0.181378
    11  O   -0.504968
    12  C    0.137445
    13  C   -0.187293
    14  H    0.130903
    15  C   -0.248313
    16  H    0.156759
    17  C   -0.125171
    18  H    0.148095
    19  C   -0.133994
    20  H    0.208286
    21  C   -0.133866
    22  H    0.149669
    23  N   -0.641710
    24  H    0.395431
    25  C   -0.097771
    26  H    0.227761
    27  C    0.623309
    28  C   -0.037427
    29  H    0.180142
    30  H    0.125969
    31  O   -0.539557
    32  O   -0.597185
    33  H    0.398601
    34  N   -0.584000
    35  H    0.361329
    36  C   -0.093618
    37  H    0.219349
    38  C    0.639333
    39  C   -0.050903
    40  H    0.164855
    41  H    0.155907
    42  O   -0.554979
    43  O   -0.622849
    44  H    0.416941
    45  N   -0.597018
    46  H    0.356879
    47  C   -0.080516
    48  H    0.192817
    49  C    0.588686
    50  C   -0.375431
    51  H    0.202957
    52  H    0.217434
    53  O   -0.528056
    54  C    0.589261
    55  O   -0.427182
    56  O   -0.667685
    57  N   -0.588539
    58  H    0.351178
    59  C   -0.086758
    60  H    0.157269
    61  C    0.582738
    62  C   -0.252577
    63  H    0.136936
    64  H    0.148212
    65  O   -0.566533
    66  C   -0.337344
    67  H    0.151729
    68  H    0.217712
    69  C   -0.146003
    70  H    0.173614
    71  H    0.183230
    72  N   -0.599924
    73  H    0.374836
    74  N   -0.756764
    75  H    0.383874
    76  H    0.394588
    77  N   -0.761728
    78  H    0.385619
    79  H    0.382711
    80  C    0.828528
    81  O   -0.611391
    82  H    0.471121
 Sum of Mulliken charges =   1.00000

 Dipole moment (field-independent basis, Debye):
    X=             22.3326    Y=             -4.0512    Z=             22.8290  Tot=             32.1919
 Quadrupole moment (field-independent basis, Debye-Ang):
   XX=            -40.3925   YY=           -222.7364   ZZ=             40.9428
   XY=              6.6190   XZ=            198.1343   YZ=             53.7767

 Normal termination of Gaussian 16 at Mon May 16 14:27:43 2022.
