 Gaussian 16, Revision C.01,
 Gaussian 16:  ES64L-G16RevC.01  3-Jul-2019

 ----------------------------------------------------------------------
 # B3LYP/6-31G* empiricaldispersion=gd3 guess=read geom=check nosymm in
 tegral(ultrafinegrid)
 ----------------------------------------------------------------------

 ------------------------------------------------------
 Candidate Structure: Conf:883 Charge calc in gas phase
 ------------------------------------------------------
 Structure from the checkpoint file:  "conf-883.chk"
 Charge =  1 Multiplicity = 1

                          Input orientation:
 ---------------------------------------------------------------------
 Center     Atomic      Atomic             Coordinates (Angstroms)
 Number     Number       Type             X           Y           Z
 ---------------------------------------------------------------------
      1          7           0       -5.986571   -2.071907   -4.605718
      2          1           0       -6.129892   -1.265218   -5.221842
      3          1           0       -5.313739   -2.734995   -5.082841
      4          1           0       -6.890139   -2.518521   -4.424332
      5          6           0       -5.218074   -1.728315   -3.342637
      6          1           0       -5.453950   -0.703278   -3.050268
      7          6           0       -3.750813   -1.918852   -3.792653
      8          6           0       -5.593644   -2.744350   -2.234432
      9          1           0       -6.618762   -2.533134   -1.904339
     10          1           0       -5.582418   -3.746595   -2.681440
     11          8           0       -3.551839   -2.768771   -4.669877
     12          6           0       -4.620976   -2.697783   -1.075233
     13          6           0       -3.544353   -3.594841   -1.036129
     14          1           0       -3.451418   -4.356654   -1.807319
     15          6           0       -4.728887   -1.712460   -0.086496
     16          1           0       -5.567719   -1.018755   -0.098774
     17          6           0       -2.582546   -3.503135   -0.030806
     18          1           0       -1.728946   -4.171696   -0.014486
     19          6           0       -3.766229   -1.620831    0.921495
     20          1           0       -3.855616   -0.851046    1.682271
     21          6           0       -2.691165   -2.510789    0.945776
     22          1           0       -1.925881   -2.437222    1.711954
     23          7           0       -2.842160   -1.186634   -3.158763
     24          1           0       -3.112240   -0.607596   -2.366162
     25          6           0       -1.404516   -1.436437   -3.231357
     26          1           0       -1.256518   -2.453675   -3.603725
     27          6           0       -0.876050   -1.235344   -1.806813
     28          6           0       -0.699910   -0.440886   -4.165850
     29          1           0        0.377591   -0.668516   -4.158189
     30          1           0       -0.819529    0.575317   -3.768312
     31          8           0       -1.378651   -0.353372   -1.100032
     32          8           0       -1.283726   -0.602122   -5.447237
     33          1           0       -0.833462    0.004957   -6.054554
     34          7           0        0.130675   -2.042508   -1.422580
     35          1           0        0.602008   -2.580501   -2.141902
     36          6           0        0.966236   -1.707843   -0.268485
     37          1           0        0.318450   -1.216416    0.460129
     38          6           0        2.066417   -0.774382   -0.799083
     39          6           0        1.590432   -2.945134    0.368902
     40          1           0        2.306825   -2.613137    1.135679
     41          1           0        2.157579   -3.498344   -0.395371
     42          8           0        2.688044   -1.081489   -1.809523
     43          8           0        0.535919   -3.727304    0.922251
     44          1           0        0.935378   -4.445985    1.435891
     45          7           0        2.243222    0.368806   -0.091687
     46          1           0        1.584834    0.574293    0.648969
     47          6           0        3.047495    1.480243   -0.590732
     48          1           0        3.392359    1.174767   -1.583007
     49          6           0        4.301133    1.743124    0.270925
     50          6           0        2.166056    2.747285   -0.734959
     51          1           0        1.982772    3.200599    0.243033
     52          1           0        2.682959    3.468798   -1.368207
     53          8           0        4.953615    2.773980    0.123897
     54          6           0        0.863272    2.295754   -1.361676
     55          8           0        0.701822    2.043510   -2.538284
     56          8           0       -0.079765    2.061466   -0.418236
     57          7           0        4.574266    0.743660    1.127335
     58          1           0        3.969255   -0.070534    1.187409
     59          6           0        5.751351    0.603065    1.963616
     60          1           0        6.653694    0.714363    1.350627
     61          6           0        5.684622   -0.860010    2.516437
     62          6           0        5.765342    1.697834    3.075700
     63          1           0        5.098724    1.388106    3.892147
     64          1           0        5.314408    2.581329    2.618047
     65          8           0        6.766824   -1.304518    3.034705
     66          6           0        7.153143    2.118954    3.626522
     67          1           0        7.218650    3.212514    3.654313
     68          1           0        7.946878    1.790006    2.944341
     69          6           0        7.487806    1.621389    5.039689
     70          1           0        8.453499    2.033406    5.361369
     71          1           0        6.722550    1.962287    5.749768
     72          7           0        7.537838    0.160176    5.036315
     73          1           0        7.478532   -0.295486    4.091968
     74          7           0        6.979747   -0.200811    7.274556
     75          1           0        6.726032   -0.849540    8.005276
     76          1           0        7.541767    0.586715    7.564047
     77          7           0        6.756061   -1.896486    5.666699
     78          1           0        6.619856   -2.079696    4.651527
     79          1           0        6.477989   -2.571257    6.362447
     80          6           0        7.098443   -0.644655    5.996201
     81          8           0        4.602043   -1.466652    2.435561
     82          1           0       -0.779309    1.504158   -0.823662
 ---------------------------------------------------------------------

 SCF Done:  E(RB3LYP) =  -2166.37090094     A.U. after    1 cycles

 Alpha  occ. eigenvalues --  -19.25575 -19.25295 -19.23080 -19.22784 -19.22696
 Alpha  occ. eigenvalues --  -19.20273 -19.19203 -19.15294 -19.14494 -19.13832
 Alpha  occ. eigenvalues --  -14.60295 -14.48682 -14.46440 -14.46414 -14.43890
 Alpha  occ. eigenvalues --  -14.43817 -14.42921 -14.39064 -10.42481 -10.41044
 Alpha  occ. eigenvalues --  -10.40369 -10.39605 -10.38394 -10.36494 -10.33789
 Alpha  occ. eigenvalues --  -10.33605 -10.32884 -10.31978 -10.31890 -10.31830
 Alpha  occ. eigenvalues --  -10.31592 -10.30074 -10.29882 -10.29879 -10.28632
 Alpha  occ. eigenvalues --  -10.28307 -10.27974 -10.27434 -10.27349 -10.26568
 Alpha  occ. eigenvalues --  -10.26266 -10.25062 -10.23805  -1.18382  -1.16377
 Alpha  occ. eigenvalues --   -1.14588  -1.13642  -1.11411  -1.10233  -1.10071
 Alpha  occ. eigenvalues --   -1.09833  -1.07617  -1.07513  -1.06864  -1.05312
 Alpha  occ. eigenvalues --   -1.02699  -1.00718  -0.99656  -0.98331  -0.97737
 Alpha  occ. eigenvalues --   -0.95976  -0.95760  -0.92151  -0.88221  -0.86080
 Alpha  occ. eigenvalues --   -0.85090  -0.84473  -0.83570  -0.83211  -0.79719
 Alpha  occ. eigenvalues --   -0.79029  -0.75851  -0.74685  -0.73753  -0.73087
 Alpha  occ. eigenvalues --   -0.72973  -0.72373  -0.71291  -0.70313  -0.69784
 Alpha  occ. eigenvalues --   -0.69010  -0.67556  -0.67246  -0.67058  -0.66134
 Alpha  occ. eigenvalues --   -0.65838  -0.65530  -0.63438  -0.63106  -0.62465
 Alpha  occ. eigenvalues --   -0.61450  -0.60813  -0.60268  -0.59810  -0.59227
 Alpha  occ. eigenvalues --   -0.58462  -0.58338  -0.57999  -0.56844  -0.56725
 Alpha  occ. eigenvalues --   -0.56234  -0.55854  -0.55813  -0.54967  -0.54706
 Alpha  occ. eigenvalues --   -0.54359  -0.54196  -0.53596  -0.53382  -0.52969
 Alpha  occ. eigenvalues --   -0.52892  -0.52104  -0.51586  -0.51154  -0.51016
 Alpha  occ. eigenvalues --   -0.50679  -0.49969  -0.49903  -0.49597  -0.49385
 Alpha  occ. eigenvalues --   -0.49184  -0.48744  -0.48414  -0.47530  -0.46967
 Alpha  occ. eigenvalues --   -0.46551  -0.46378  -0.45688  -0.45306  -0.44960
 Alpha  occ. eigenvalues --   -0.44838  -0.44348  -0.44273  -0.43804  -0.43628
 Alpha  occ. eigenvalues --   -0.43255  -0.42766  -0.42291  -0.41838  -0.41109
 Alpha  occ. eigenvalues --   -0.40157  -0.40038  -0.39583  -0.38709  -0.38591
 Alpha  occ. eigenvalues --   -0.38134  -0.37083  -0.37048  -0.36470  -0.35490
 Alpha  occ. eigenvalues --   -0.35143  -0.34300  -0.34026  -0.33728  -0.33562
 Alpha  occ. eigenvalues --   -0.33480  -0.32657  -0.30365  -0.29628  -0.28906
 Alpha  occ. eigenvalues --   -0.28317  -0.27925
 Alpha virt. eigenvalues --   -0.12009  -0.10610  -0.10355  -0.09345  -0.08793
 Alpha virt. eigenvalues --   -0.05876  -0.05702  -0.05641  -0.05528  -0.02934
 Alpha virt. eigenvalues --   -0.02590  -0.01883  -0.01732  -0.00989  -0.00410

 Mulliken charges:
               1
     1  N   -0.747540
     2  H    0.420000
     3  H    0.429797
     4  H    0.414597
     5  C   -0.116869
     6  H    0.209484
     7  C    0.669300
     8  C   -0.378797
     9  H    0.183132
    10  H    0.181383
    11  O   -0.535540
    12  C    0.147027
    13  C   -0.186897
    14  H    0.142768
    15  C   -0.198828
    16  H    0.131021
    17  C   -0.134005
    18  H    0.173256
    19  C   -0.111306
    20  H    0.153120
    21  C   -0.122035
    22  H    0.159903
    23  N   -0.574608
    24  H    0.368804
    25  C   -0.086342
    26  H    0.195309
    27  C    0.655135
    28  C   -0.033055
    29  H    0.164202
    30  H    0.174148
    31  O   -0.572574
    32  O   -0.623138
    33  H    0.412506
    34  N   -0.566134
    35  H    0.355160
    36  C   -0.100368
    37  H    0.184955
    38  C    0.624504
    39  C   -0.059143
    40  H    0.196230
    41  H    0.153424
    42  O   -0.519197
    43  O   -0.621069
    44  H    0.411976
    45  N   -0.636126
    46  H    0.350555
    47  C   -0.063080
    48  H    0.227167
    49  C    0.626322
    50  C   -0.340526
    51  H    0.174752
    52  H    0.210214
    53  O   -0.545122
    54  C    0.569765
    55  O   -0.471366
    56  O   -0.588568
    57  N   -0.635043
    58  H    0.362703
    59  C   -0.026616
    60  H    0.167123
    61  C    0.592612
    62  C   -0.285099
    63  H    0.133985
    64  H    0.185375
    65  O   -0.636974
    66  C   -0.303464
    67  H    0.163817
    68  H    0.170220
    69  C   -0.149674
    70  H    0.163663
    71  H    0.158948
    72  N   -0.608586
    73  H    0.413362
    74  N   -0.754184
    75  H    0.359066
    76  H    0.369699
    77  N   -0.777735
    78  H    0.417692
    79  H    0.345373
    80  C    0.765930
    81  O   -0.564252
    82  H    0.434375
 Sum of Mulliken charges =   1.00000

 Dipole moment (field-independent basis, Debye):
    X=            -12.7018    Y=             -7.8564    Z=              1.3702  Tot=             14.9979
 Quadrupole moment (field-independent basis, Debye-Ang):
   XX=            -57.8017   YY=           -224.2832   ZZ=            -76.3384
   XY=             34.2032   XZ=            186.2569   YZ=             16.9391

 Normal termination of Gaussian 16 at Mon May 16 14:27:41 2022.
