 Gaussian 16, Revision C.01,
 Gaussian 16:  ES64L-G16RevC.01  3-Jul-2019

 ----------------------------------------------------------------------
 # B3LYP/6-31G* empiricaldispersion=gd3 guess=read geom=check nosymm in
 tegral(ultrafinegrid)
 ----------------------------------------------------------------------

 ------------------------------------------------------
 Candidate Structure: Conf:961 Charge calc in gas phase
 ------------------------------------------------------
 Structure from the checkpoint file:  "conf-961.chk"
 Charge =  1 Multiplicity = 1

                          Input orientation:
 ---------------------------------------------------------------------
 Center     Atomic      Atomic             Coordinates (Angstroms)
 Number     Number       Type             X           Y           Z
 ---------------------------------------------------------------------
      1          7           0       -6.342179   -0.121240   -5.990532
      2          1           0       -6.660514    0.852319   -6.006660
      3          1           0       -5.405178   -0.176733   -6.489111
      4          1           0       -7.047015   -0.708622   -6.444958
      5          6           0       -5.964229   -0.603456   -4.601753
      6          1           0       -6.516193   -0.023552   -3.859798
      7          6           0       -4.441036   -0.334169   -4.566862
      8          6           0       -6.278267   -2.113438   -4.479574
      9          1           0       -7.361096   -2.247981   -4.604545
     10          1           0       -5.776766   -2.634790   -5.304703
     11          8           0       -3.856918   -0.272314   -5.664173
     12          6           0       -5.822441   -2.671726   -3.149008
     13          6           0       -4.596479   -3.341393   -3.043600
     14          1           0       -3.993374   -3.505677   -3.934195
     15          6           0       -6.588567   -2.456915   -1.996674
     16          1           0       -7.546807   -1.945240   -2.067868
     17          6           0       -4.137771   -3.790006   -1.805275
     18          1           0       -3.170707   -4.276035   -1.725214
     19          6           0       -6.135055   -2.909310   -0.756907
     20          1           0       -6.736939   -2.742809    0.131390
     21          6           0       -4.911782   -3.574350   -0.662495
     22          1           0       -4.559146   -3.924215    0.303093
     23          7           0       -3.880343   -0.241203   -3.375258
     24          1           0       -4.410529   -0.344921   -2.506231
     25          6           0       -2.441350   -0.222375   -3.149563
     26          1           0       -1.973466   -1.002981   -3.762015
     27          6           0       -2.277168   -0.557027   -1.648603
     28          6           0       -1.812105    1.127062   -3.514251
     29          1           0       -1.956691    1.301228   -4.590326
     30          1           0       -0.730768    1.062158   -3.320473
     31          8           0       -3.252877   -0.561067   -0.900606
     32          8           0       -2.445666    2.113687   -2.720745
     33          1           0       -1.962543    2.947568   -2.820732
     34          7           0       -1.014535   -0.813203   -1.258811
     35          1           0       -0.306511   -1.028200   -1.953444
     36          6           0       -0.705097   -1.331643    0.069397
     37          1           0       -1.103605   -0.650729    0.827441
     38          6           0        0.817293   -1.461716    0.133557
     39          6           0       -1.315533   -2.744972    0.272544
     40          1           0       -2.401150   -2.648618    0.326000
     41          1           0       -0.950226   -3.150141    1.229730
     42          8           0        1.410854   -1.971721   -0.830323
     43          8           0       -1.035447   -3.602244   -0.817113
     44          1           0       -0.075742   -3.562437   -0.985795
     45          7           0        1.411781   -1.081855    1.269694
     46          1           0        0.908477   -0.635008    2.034232
     47          6           0        2.833753   -1.236781    1.525674
     48          1           0        3.148488   -2.248989    1.253973
     49          6           0        3.009564   -0.993708    3.045579
     50          6           0        3.670982   -0.239804    0.672858
     51          1           0        3.494994   -0.485697   -0.377415
     52          1           0        3.357308    0.785944    0.879122
     53          8           0        2.120070   -0.419168    3.676896
     54          6           0        5.131106   -0.451854    1.023160
     55          8           0        5.681178   -1.528234    0.868767
     56          8           0        5.671506    0.597873    1.644817
     57          7           0        4.166734   -1.439423    3.580804
     58          1           0        4.886839   -1.805655    2.964477
     59          6           0        4.650626   -1.021406    4.897618
     60          1           0        3.873685   -0.407139    5.354674
     61          6           0        5.941717   -0.182461    4.713500
     62          6           0        4.905369   -2.288883    5.754903
     63          1           0        5.752759   -2.834264    5.316520
     64          1           0        4.025505   -2.926316    5.616702
     65          8           0        6.143237    0.745389    5.557687
     66          6           0        5.121337   -2.091428    7.275526
     67          1           0        4.621657   -2.908612    7.808592
     68          1           0        4.630854   -1.169681    7.614815
     69          6           0        6.578493   -2.095970    7.768305
     70          1           0        6.594137   -2.154632    8.863867
     71          1           0        7.095575   -2.980138    7.375989
     72          7           0        7.279289   -0.885546    7.331241
     73          1           0        6.666406   -0.125579    6.993230
     74          7           0        9.386511   -1.830675    6.992747
     75          1           0       10.319017   -1.754037    6.614130
     76          1           0        9.288066   -2.415274    7.809618
     77          7           0        8.801677    0.219866    6.016777
     78          1           0        7.983303    0.704260    5.596346
     79          1           0        9.670042    0.226010    5.501282
     80          6           0        8.491649   -0.837308    6.775962
     81          8           0        6.731511   -0.537324    3.804377
     82          1           0        6.408644    0.261330    2.222764
 ---------------------------------------------------------------------

 SCF Done:  E(RB3LYP) =  -2166.38014383     A.U. after    3 cycles

 Alpha  occ. eigenvalues --  -19.25917 -19.23681 -19.21745 -19.21345 -19.21165
 Alpha  occ. eigenvalues --  -19.19574 -19.17410 -19.17263 -19.14778 -19.14299
 Alpha  occ. eigenvalues --  -14.59922 -14.48374 -14.46510 -14.44786 -14.43849
 Alpha  occ. eigenvalues --  -14.43503 -14.43501 -14.40860 -10.42555 -10.41246
 Alpha  occ. eigenvalues --  -10.40221 -10.38194 -10.36623 -10.35772 -10.34573
 Alpha  occ. eigenvalues --  -10.33953 -10.33457 -10.33271 -10.32368 -10.31349
 Alpha  occ. eigenvalues --  -10.30576 -10.30499 -10.30137 -10.29815 -10.28376
 Alpha  occ. eigenvalues --  -10.28071 -10.27678 -10.27317 -10.27062 -10.26987
 Alpha  occ. eigenvalues --  -10.25920 -10.25094 -10.24715  -1.18465  -1.13758
 Alpha  occ. eigenvalues --   -1.13401  -1.13156  -1.11569  -1.11082  -1.10108
 Alpha  occ. eigenvalues --   -1.09254  -1.08528  -1.07744  -1.05147  -1.04606
 Alpha  occ. eigenvalues --   -1.01292  -0.99952  -0.99802  -0.98768  -0.97847
 Alpha  occ. eigenvalues --   -0.97295  -0.95778  -0.92002  -0.87859  -0.86168
 Alpha  occ. eigenvalues --   -0.85249  -0.84187  -0.83286  -0.82255  -0.80069
 Alpha  occ. eigenvalues --   -0.78912  -0.75804  -0.75371  -0.73766  -0.73489
 Alpha  occ. eigenvalues --   -0.72804  -0.72682  -0.71558  -0.69742  -0.69120
 Alpha  occ. eigenvalues --   -0.67706  -0.67277  -0.66968  -0.66199  -0.66124
 Alpha  occ. eigenvalues --   -0.65780  -0.64463  -0.63489  -0.62883  -0.62655
 Alpha  occ. eigenvalues --   -0.62188  -0.61834  -0.60109  -0.59688  -0.58497
 Alpha  occ. eigenvalues --   -0.58107  -0.57623  -0.57352  -0.56985  -0.56372
 Alpha  occ. eigenvalues --   -0.56073  -0.55403  -0.55095  -0.54684  -0.54344
 Alpha  occ. eigenvalues --   -0.53950  -0.53588  -0.53475  -0.53067  -0.52376
 Alpha  occ. eigenvalues --   -0.51873  -0.51547  -0.51371  -0.51108  -0.50783
 Alpha  occ. eigenvalues --   -0.50612  -0.50152  -0.49942  -0.49708  -0.49600
 Alpha  occ. eigenvalues --   -0.49214  -0.48991  -0.48010  -0.47800  -0.47615
 Alpha  occ. eigenvalues --   -0.46710  -0.46233  -0.46129  -0.45567  -0.45224
 Alpha  occ. eigenvalues --   -0.44720  -0.44392  -0.43533  -0.43392  -0.43122
 Alpha  occ. eigenvalues --   -0.42956  -0.42588  -0.42052  -0.41390  -0.40990
 Alpha  occ. eigenvalues --   -0.40657  -0.40492  -0.40349  -0.39256  -0.38529
 Alpha  occ. eigenvalues --   -0.37038  -0.36421  -0.35852  -0.35021  -0.34502
 Alpha  occ. eigenvalues --   -0.34200  -0.33867  -0.33752  -0.33678  -0.33491
 Alpha  occ. eigenvalues --   -0.32504  -0.32329  -0.31516  -0.30834  -0.30181
 Alpha  occ. eigenvalues --   -0.28443  -0.28123
 Alpha virt. eigenvalues --   -0.11894  -0.10614  -0.10170  -0.09113  -0.07095
 Alpha virt. eigenvalues --   -0.05945  -0.05868  -0.05533  -0.03650  -0.02775
 Alpha virt. eigenvalues --   -0.02467  -0.02166  -0.01756  -0.01107  -0.00847

 Mulliken charges:
               1
     1  N   -0.752637
     2  H    0.417582
     3  H    0.429987
     4  H    0.413649
     5  C   -0.112143
     6  H    0.217343
     7  C    0.657736
     8  C   -0.382290
     9  H    0.180532
    10  H    0.184682
    11  O   -0.556394
    12  C    0.147837
    13  C   -0.189355
    14  H    0.138851
    15  C   -0.192558
    16  H    0.129424
    17  C   -0.131221
    18  H    0.194831
    19  C   -0.115986
    20  H    0.155958
    21  C   -0.120933
    22  H    0.155938
    23  N   -0.582722
    24  H    0.388761
    25  C   -0.081272
    26  H    0.191985
    27  C    0.663935
    28  C   -0.035239
    29  H    0.164417
    30  H    0.149855
    31  O   -0.536050
    32  O   -0.611842
    33  H    0.413129
    34  N   -0.611168
    35  H    0.352744
    36  C   -0.058837
    37  H    0.179460
    38  C    0.611741
    39  C   -0.045214
    40  H    0.181369
    41  H    0.146236
    42  O   -0.561616
    43  O   -0.632477
    44  H    0.413362
    45  N   -0.622286
    46  H    0.364563
    47  C   -0.054816
    48  H    0.200249
    49  C    0.604409
    50  C   -0.325049
    51  H    0.198800
    52  H    0.173385
    53  O   -0.540472
    54  C    0.555812
    55  O   -0.477110
    56  O   -0.573958
    57  N   -0.610029
    58  H    0.367395
    59  C   -0.055447
    60  H    0.186741
    61  C    0.607627
    62  C   -0.274236
    63  H    0.150220
    64  H    0.161724
    65  O   -0.615141
    66  C   -0.305592
    67  H    0.161380
    68  H    0.173137
    69  C   -0.148342
    70  H    0.169192
    71  H    0.162837
    72  N   -0.601124
    73  H    0.399994
    74  N   -0.755714
    75  H    0.365510
    76  H    0.370134
    77  N   -0.749351
    78  H    0.407985
    79  H    0.348592
    80  C    0.766127
    81  O   -0.606446
    82  H    0.447911
 Sum of Mulliken charges =   1.00000

 Dipole moment (field-independent basis, Debye):
    X=             -9.8263    Y=             -4.8477    Z=             -7.0000  Tot=             13.0022
 Quadrupole moment (field-independent basis, Debye-Ang):
   XX=             46.4082   YY=           -234.8311   ZZ=            -37.0303
   XY=            -26.1887   XZ=            244.0349   YZ=            -47.4371

 Normal termination of Gaussian 16 at Mon May 16 14:28:12 2022.
