 Gaussian 16, Revision C.01,
 Gaussian 16:  ES64L-G16RevC.01  3-Jul-2019

 ----------------------------------------------------------------------
 # B3LYP/6-31G* empiricaldispersion=gd3 guess=read geom=check nosymm in
 tegral(ultrafinegrid)
 ----------------------------------------------------------------------

 ------------------------------------------------------
 Candidate Structure: Conf:966 Charge calc in gas phase
 ------------------------------------------------------
 Structure from the checkpoint file:  "conf-966.chk"
 Charge =  1 Multiplicity = 1

                          Input orientation:
 ---------------------------------------------------------------------
 Center     Atomic      Atomic             Coordinates (Angstroms)
 Number     Number       Type             X           Y           Z
 ---------------------------------------------------------------------
      1          7           0       -4.134600    1.416379   -6.120030
      2          1           0       -3.809180    2.158126   -6.746441
      3          1           0       -3.782681    0.498635   -6.492464
      4          1           0       -5.165122    1.451759   -6.066527
      5          6           0       -3.517156    1.494267   -4.743051
      6          1           0       -3.255812    2.535367   -4.543364
      7          6           0       -2.293791    0.554268   -4.824490
      8          6           0       -4.528617    0.966643   -3.693225
      9          1           0       -4.668474   -0.108332   -3.861148
     10          1           0       -4.060570    1.071250   -2.708072
     11          8           0       -2.265560   -0.278695   -5.734202
     12          6           0       -5.847738    1.700127   -3.781759
     13          6           0       -6.922497    1.134659   -4.487725
     14          1           0       -6.842869    0.118394   -4.871888
     15          6           0       -5.990075    2.985731   -3.239787
     16          1           0       -5.169976    3.429299   -2.678905
     17          6           0       -8.118032    1.843600   -4.649084
     18          1           0       -8.946812    1.389466   -5.184026
     19          6           0       -7.183862    3.688544   -3.395865
     20          1           0       -7.288405    4.677486   -2.959442
     21          6           0       -8.247882    3.121006   -4.104944
     22          1           0       -9.177060    3.670382   -4.221870
     23          7           0       -1.404396    0.702438   -3.836977
     24          1           0       -1.668736    1.279373   -3.036448
     25          6           0       -0.481256   -0.356051   -3.416011
     26          1           0       -0.624468   -1.218827   -4.070770
     27          6           0       -0.861072   -0.654871   -1.953102
     28          6           0        0.983002    0.128564   -3.522462
     29          1           0        1.646440   -0.692309   -3.239438
     30          1           0        1.147504    0.956678   -2.815500
     31          8           0       -1.513906    0.179463   -1.312109
     32          8           0        1.302625    0.482962   -4.851500
     33          1           0        0.878272    1.333486   -5.041646
     34          7           0       -0.404958   -1.811567   -1.437317
     35          1           0        0.293458   -2.331010   -1.960912
     36          6           0       -0.479226   -2.125797   -0.006307
     37          1           0       -1.283341   -1.524013    0.423775
     38          6           0        0.861615   -1.753346    0.664097
     39          6           0       -0.791111   -3.621634    0.192283
     40          1           0        0.003887   -4.215638   -0.288959
     41          1           0       -1.737076   -3.851377   -0.307423
     42          8           0        1.513725   -2.563808    1.324784
     43          8           0       -0.941097   -3.940641    1.553855
     44          1           0       -0.055500   -3.816032    1.943516
     45          7           0        1.292608   -0.494898    0.417378
     46          1           0        0.735690    0.159440   -0.121419
     47          6           0        2.684377   -0.109604    0.584227
     48          1           0        3.066070   -0.548753    1.508957
     49          6           0        2.709161    1.429457    0.595562
     50          6           0        3.558832   -0.558536   -0.630725
     51          1           0        3.254258    0.034242   -1.493650
     52          1           0        4.610093   -0.355163   -0.404747
     53          8           0        2.052024    2.035514   -0.262406
     54          6           0        3.371523   -2.014092   -0.982523
     55          8           0        2.583715   -2.426248   -1.820700
     56          8           0        4.141539   -2.823574   -0.245060
     57          7           0        3.485532    2.013165    1.516587
     58          1           0        3.968169    1.484801    2.240323
     59          6           0        3.729648    3.452582    1.602348
     60          1           0        3.811613    3.869850    0.595918
     61          6           0        5.046257    3.637707    2.392689
     62          6           0        2.549648    4.114313    2.362435
     63          1           0        2.561193    3.734574    3.391705
     64          1           0        1.633155    3.738363    1.893376
     65          8           0        5.732466    4.671804    2.091302
     66          6           0        2.469492    5.651508    2.355639
     67          1           0        1.499055    5.931427    2.790800
     68          1           0        2.448364    6.015530    1.319765
     69          6           0        3.571721    6.440961    3.083719
     70          1           0        4.519095    6.315314    2.568712
     71          1           0        3.309308    7.506075    3.094844
     72          7           0        3.737034    6.003736    4.482749
     73          1           0        2.948054    6.185746    5.089523
     74          7           0        6.033929    5.553885    4.490655
     75          1           0        6.792337    5.153968    5.028010
     76          1           0        6.050472    5.255159    3.433609
     77          7           0        4.797954    5.494956    6.471494
     78          1           0        3.890639    5.359060    6.896447
     79          1           0        5.547009    4.988847    6.924007
     80          6           0        4.872734    5.660136    5.114361
     81          8           0        5.255794    2.836670    3.322652
     82          1           0        3.874569   -3.741482   -0.442890
 ---------------------------------------------------------------------

 SCF Done:  E(RB3LYP) =  -2166.36824443     A.U. after    1 cycles

 Alpha  occ. eigenvalues --  -19.26834 -19.26665 -19.23139 -19.22488 -19.21848
 Alpha  occ. eigenvalues --  -19.19687 -19.19474 -19.18025 -19.14296 -19.13630
 Alpha  occ. eigenvalues --  -14.60044 -14.49216 -14.46156 -14.46108 -14.46060
 Alpha  occ. eigenvalues --  -14.43385 -14.42223 -14.41942 -10.43513 -10.41398
 Alpha  occ. eigenvalues --  -10.40806 -10.39939 -10.39357 -10.36658 -10.35293
 Alpha  occ. eigenvalues --  -10.34090 -10.33862 -10.32438 -10.32200 -10.31776
 Alpha  occ. eigenvalues --  -10.31455 -10.31216 -10.31011 -10.30826 -10.30566
 Alpha  occ. eigenvalues --  -10.30446 -10.30164 -10.29943 -10.29395 -10.27487
 Alpha  occ. eigenvalues --  -10.27211 -10.25787 -10.24591  -1.19077  -1.18049
 Alpha  occ. eigenvalues --   -1.14492  -1.13932  -1.11653  -1.10717  -1.09971
 Alpha  occ. eigenvalues --   -1.09698  -1.08922  -1.07457  -1.07218  -1.05892
 Alpha  occ. eigenvalues --   -1.02604  -0.99933  -0.99732  -0.99281  -0.97904
 Alpha  occ. eigenvalues --   -0.97738  -0.96970  -0.93418  -0.88515  -0.86825
 Alpha  occ. eigenvalues --   -0.86169  -0.85897  -0.85437  -0.82600  -0.80636
 Alpha  occ. eigenvalues --   -0.79561  -0.77107  -0.74757  -0.74154  -0.73948
 Alpha  occ. eigenvalues --   -0.73584  -0.72053  -0.71777  -0.71271  -0.70601
 Alpha  occ. eigenvalues --   -0.70390  -0.68666  -0.68030  -0.67574  -0.66702
 Alpha  occ. eigenvalues --   -0.65912  -0.65799  -0.64132  -0.63334  -0.63201
 Alpha  occ. eigenvalues --   -0.62910  -0.62090  -0.60887  -0.60245  -0.58648
 Alpha  occ. eigenvalues --   -0.58462  -0.57872  -0.57722  -0.57507  -0.57245
 Alpha  occ. eigenvalues --   -0.56628  -0.56489  -0.56178  -0.55656  -0.55250
 Alpha  occ. eigenvalues --   -0.54989  -0.54747  -0.54279  -0.54019  -0.53606
 Alpha  occ. eigenvalues --   -0.53443  -0.52892  -0.52654  -0.52353  -0.51739
 Alpha  occ. eigenvalues --   -0.51163  -0.50890  -0.50404  -0.50256  -0.50140
 Alpha  occ. eigenvalues --   -0.49549  -0.49280  -0.48662  -0.48308  -0.47739
 Alpha  occ. eigenvalues --   -0.47624  -0.47233  -0.46944  -0.46290  -0.46145
 Alpha  occ. eigenvalues --   -0.45966  -0.45758  -0.45691  -0.44828  -0.44264
 Alpha  occ. eigenvalues --   -0.43830  -0.43446  -0.42795  -0.42053  -0.41763
 Alpha  occ. eigenvalues --   -0.41141  -0.40234  -0.40028  -0.39516  -0.39264
 Alpha  occ. eigenvalues --   -0.38948  -0.37604  -0.37055  -0.36919  -0.36404
 Alpha  occ. eigenvalues --   -0.36199  -0.35573  -0.35043  -0.34320  -0.33629
 Alpha  occ. eigenvalues --   -0.33112  -0.32034  -0.31778  -0.31675  -0.29759
 Alpha  occ. eigenvalues --   -0.28581  -0.27808
 Alpha virt. eigenvalues --   -0.13430  -0.12684  -0.11102  -0.10029  -0.08947
 Alpha virt. eigenvalues --   -0.07857  -0.05906  -0.05338  -0.04905  -0.03646
 Alpha virt. eigenvalues --   -0.03477  -0.03065  -0.01887  -0.01682  -0.00792

 Mulliken charges:
               1
     1  N   -0.746451
     2  H    0.417030
     3  H    0.425383
     4  H    0.405810
     5  C   -0.122147
     6  H    0.212732
     7  C    0.637706
     8  C   -0.393592
     9  H    0.195191
    10  H    0.223271
    11  O   -0.514330
    12  C    0.142439
    13  C   -0.235138
    14  H    0.152670
    15  C   -0.180009
    16  H    0.148357
    17  C   -0.119572
    18  H    0.168764
    19  C   -0.122381
    20  H    0.167873
    21  C   -0.123843
    22  H    0.170051
    23  N   -0.592170
    24  H    0.366120
    25  C   -0.112872
    26  H    0.207934
    27  C    0.618036
    28  C   -0.078831
    29  H    0.201061
    30  H    0.167313
    31  O   -0.554103
    32  O   -0.592854
    33  H    0.394761
    34  N   -0.595752
    35  H    0.375594
    36  C   -0.109355
    37  H    0.211217
    38  C    0.632773
    39  C   -0.019492
    40  H    0.131013
    41  H    0.152211
    42  O   -0.545731
    43  O   -0.620773
    44  H    0.418987
    45  N   -0.616053
    46  H    0.362588
    47  C   -0.044977
    48  H    0.195899
    49  C    0.623561
    50  C   -0.341225
    51  H    0.191189
    52  H    0.195263
    53  O   -0.568324
    54  C    0.597467
    55  O   -0.502860
    56  O   -0.531452
    57  N   -0.606697
    58  H    0.353537
    59  C   -0.019734
    60  H    0.163446
    61  C    0.580148
    62  C   -0.264290
    63  H    0.139894
    64  H    0.159599
    65  O   -0.622888
    66  C   -0.278390
    67  H    0.131506
    68  H    0.160245
    69  C   -0.169771
    70  H    0.231902
    71  H    0.162163
    72  N   -0.595509
    73  H    0.337091
    74  N   -0.751068
    75  H    0.344179
    76  H    0.433436
    77  N   -0.758465
    78  H    0.353989
    79  H    0.363709
    80  C    0.778643
    81  O   -0.575672
    82  H    0.423017
 Sum of Mulliken charges =   1.00000

 Dipole moment (field-independent basis, Debye):
    X=            -13.8630    Y=             15.2982    Z=            -10.3399  Tot=             23.0897
 Quadrupole moment (field-independent basis, Debye-Ang):
   XX=           -139.7059   YY=           -174.4444   ZZ=            -70.8619
   XY=            -26.1499   XZ=            143.0070   YZ=             25.5568

 Normal termination of Gaussian 16 at Mon May 16 14:27:45 2022.
