 Gaussian 16, Revision C.01,
 Gaussian 16:  ES64L-G16RevC.01  3-Jul-2019

 ----------------------------------------------------------------------
 # B3LYP/6-31G* empiricaldispersion=gd3 guess=read geom=check nosymm in
 tegral(ultrafinegrid)
 ----------------------------------------------------------------------

 ------------------------------------------------------
 Candidate Structure: Conf:126 Charge calc in gas phase
 ------------------------------------------------------
 Structure from the checkpoint file:  "conf-126.chk"
 Charge =  1 Multiplicity = 1

                          Input orientation:
 ---------------------------------------------------------------------
 Center     Atomic      Atomic             Coordinates (Angstroms)
 Number     Number       Type             X           Y           Z
 ---------------------------------------------------------------------
      1          7           0       -4.468159   -2.144953   -5.346205
      2          1           0       -4.804000   -2.346822   -6.290417
      3          1           0       -3.603526   -2.739265   -5.106249
      4          1           0       -5.221313   -2.342454   -4.681164
      5          6           0       -3.901272   -0.744770   -5.184869
      6          1           0       -3.841792   -0.302297   -6.182345
      7          6           0       -2.457691   -1.041208   -4.674500
      8          6           0       -4.795445    0.122204   -4.273434
      9          1           0       -5.838319   -0.035011   -4.581066
     10          1           0       -4.703059   -0.227833   -3.238429
     11          8           0       -2.128952   -2.236407   -4.588828
     12          6           0       -4.464205    1.598641   -4.375563
     13          6           0       -3.788203    2.260387   -3.344745
     14          1           0       -3.491135    1.721759   -2.450072
     15          6           0       -4.817243    2.311118   -5.532184
     16          1           0       -5.360061    1.812133   -6.333426
     17          6           0       -3.452848    3.610501   -3.473810
     18          1           0       -2.903772    4.099614   -2.676207
     19          6           0       -4.494129    3.660517   -5.655357
     20          1           0       -4.778904    4.204912   -6.550847
     21          6           0       -3.807472    4.311613   -4.625212
     22          1           0       -3.550564    5.362038   -4.723897
     23          7           0       -1.686335   -0.003261   -4.381688
     24          1           0       -2.064432    0.941766   -4.346976
     25          6           0       -0.287662   -0.132121   -3.988870
     26          1           0       -0.130779   -1.149445   -3.621737
     27          6           0       -0.016270    0.923532   -2.900137
     28          6           0        0.629591    0.111488   -5.198971
     29          1           0        1.672891   -0.027787   -4.878868
     30          1           0        0.513221    1.157111   -5.526903
     31          8           0       -0.783785    1.876372   -2.756762
     32          8           0        0.247621   -0.806846   -6.206803
     33          1           0        0.844137   -0.694430   -6.962683
     34          7           0        1.115039    0.746193   -2.197612
     35          1           0        1.749337   -0.031274   -2.365338
     36          6           0        1.618657    1.727505   -1.252736
     37          1           0        1.414260    2.734016   -1.631023
     38          6           0        3.119804    1.478380   -1.106531
     39          6           0        0.930050    1.589090    0.139134
     40          1           0        1.077852    0.558922    0.494910
     41          1           0       -0.141214    1.755359   -0.013094
     42          8           0        3.623072    0.404245   -1.437008
     43          8           0        1.404870    2.543692    1.058059
     44          1           0        2.195490    2.155955    1.499218
     45          7           0        3.805301    2.506454   -0.542750
     46          1           0        3.221470    3.213642   -0.105554
     47          6           0        5.076990    2.252230    0.112667
     48          1           0        5.732159    1.727309   -0.586238
     49          6           0        4.851912    1.369422    1.367721
     50          6           0        5.744070    3.597335    0.502197
     51          1           0        5.949827    4.158048   -0.413264
     52          1           0        5.083075    4.176608    1.154060
     53          8           0        3.742876    1.298611    1.916931
     54          6           0        7.042957    3.246401    1.215811
     55          8           0        7.954169    2.698791    0.614979
     56          8           0        6.968747    3.412522    2.526586
     57          7           0        5.937976    0.733873    1.854070
     58          1           0        6.835549    0.922912    1.416729
     59          6           0        5.980128    0.294103    3.252166
     60          1           0        5.404575    1.016864    3.841434
     61          6           0        7.491099    0.305580    3.765355
     62          6           0        5.476038   -1.120379    3.452950
     63          1           0        5.509954   -1.272705    4.534376
     64          1           0        6.284457   -1.710005    3.025582
     65          8           0        7.918727   -0.740011    4.325198
     66          6           0        4.179458   -1.721663    2.930458
     67          1           0        4.140971   -1.699089    1.834451
     68          1           0        3.291638   -1.192514    3.293572
     69          6           0        4.119585   -3.180686    3.454996
     70          1           0        4.009135   -3.180476    4.544278
     71          1           0        3.263708   -3.730067    3.055057
     72          7           0        5.317018   -4.000973    3.110645
     73          1           0        5.258555   -4.496956    2.229268
     74          7           0        6.874712   -3.349276    4.789198
     75          1           0        7.445493   -2.470008    4.799919
     76          1           0        6.101827   -3.316733    5.442073
     77          7           0        7.607005   -4.028160    2.725114
     78          1           0        7.503862   -3.922291    1.724920
     79          1           0        8.541906   -3.911247    3.096953
     80          6           0        6.572458   -3.771312    3.547803
     81          8           0        8.142987    1.355186    3.549595
     82          1           0        7.580516    2.721464    2.976784
 ---------------------------------------------------------------------

 SCF Done:  E(RB3LYP) =  -2166.34093950     A.U. after    1 cycles

 Alpha  occ. eigenvalues --  -19.26781 -19.24815 -19.21580 -19.19910 -19.19909
 Alpha  occ. eigenvalues --  -19.19842 -19.19093 -19.16301 -19.13346 -19.13242
 Alpha  occ. eigenvalues --  -14.59581 -14.49306 -14.49042 -14.48621 -14.45568
 Alpha  occ. eigenvalues --  -14.45544 -14.42986 -14.41677 -10.44315 -10.43552
 Alpha  occ. eigenvalues --  -10.40777 -10.38963 -10.36422 -10.35363 -10.34921
 Alpha  occ. eigenvalues --  -10.34540 -10.34287 -10.34204 -10.33204 -10.31704
 Alpha  occ. eigenvalues --  -10.30920 -10.30912 -10.30382 -10.30372 -10.29436
 Alpha  occ. eigenvalues --  -10.28950 -10.28771 -10.28418 -10.28334 -10.27208
 Alpha  occ. eigenvalues --  -10.26754 -10.25438 -10.24437  -1.19311  -1.13927
 Alpha  occ. eigenvalues --   -1.13310  -1.12718  -1.12230  -1.12143  -1.11682
 Alpha  occ. eigenvalues --   -1.10125  -1.07593  -1.06426  -1.05939  -1.03344
 Alpha  occ. eigenvalues --   -1.02446  -1.01923  -1.00169  -0.99988  -0.98249
 Alpha  occ. eigenvalues --   -0.97590  -0.96646  -0.92681  -0.88549  -0.87737
 Alpha  occ. eigenvalues --   -0.85712  -0.85007  -0.84311  -0.82410  -0.81353
 Alpha  occ. eigenvalues --   -0.79733  -0.76318  -0.75724  -0.74300  -0.74168
 Alpha  occ. eigenvalues --   -0.73083  -0.72622  -0.72135  -0.70552  -0.70450
 Alpha  occ. eigenvalues --   -0.69388  -0.68772  -0.68128  -0.67165  -0.66641
 Alpha  occ. eigenvalues --   -0.65854  -0.65305  -0.64170  -0.63853  -0.62832
 Alpha  occ. eigenvalues --   -0.61995  -0.61495  -0.61090  -0.60901  -0.60189
 Alpha  occ. eigenvalues --   -0.60015  -0.58864  -0.58452  -0.57602  -0.57329
 Alpha  occ. eigenvalues --   -0.56942  -0.55919  -0.55664  -0.55463  -0.55293
 Alpha  occ. eigenvalues --   -0.54727  -0.54365  -0.54161  -0.53720  -0.52821
 Alpha  occ. eigenvalues --   -0.52541  -0.52099  -0.51961  -0.51904  -0.51372
 Alpha  occ. eigenvalues --   -0.51214  -0.50725  -0.50233  -0.50017  -0.49798
 Alpha  occ. eigenvalues --   -0.49343  -0.49083  -0.48852  -0.48490  -0.47856
 Alpha  occ. eigenvalues --   -0.46911  -0.46760  -0.46270  -0.46204  -0.45756
 Alpha  occ. eigenvalues --   -0.45082  -0.44590  -0.44400  -0.44108  -0.43983
 Alpha  occ. eigenvalues --   -0.43520  -0.42940  -0.42229  -0.41826  -0.41617
 Alpha  occ. eigenvalues --   -0.41175  -0.39663  -0.39351  -0.39018  -0.38921
 Alpha  occ. eigenvalues --   -0.38449  -0.37452  -0.37421  -0.36621  -0.35984
 Alpha  occ. eigenvalues --   -0.34823  -0.34553  -0.34466  -0.33956  -0.33458
 Alpha  occ. eigenvalues --   -0.32723  -0.31906  -0.31521  -0.30014  -0.28714
 Alpha  occ. eigenvalues --   -0.27725  -0.27369
 Alpha virt. eigenvalues --   -0.12548  -0.11097  -0.11043  -0.10548  -0.10004
 Alpha virt. eigenvalues --   -0.07748  -0.06001  -0.05831  -0.04999  -0.04528
 Alpha virt. eigenvalues --   -0.03318  -0.02764  -0.01950  -0.01612  -0.01247

 Mulliken charges:
               1
     1  N   -0.766567
     2  H    0.414112
     3  H    0.438684
     4  H    0.411141
     5  C   -0.105151
     6  H    0.229505
     7  C    0.660331
     8  C   -0.383812
     9  H    0.181102
    10  H    0.186713
    11  O   -0.541527
    12  C    0.129217
    13  C   -0.190330
    14  H    0.155117
    15  C   -0.179177
    16  H    0.126306
    17  C   -0.106136
    18  H    0.171340
    19  C   -0.125317
    20  H    0.158668
    21  C   -0.127462
    22  H    0.162396
    23  N   -0.589213
    24  H    0.390803
    25  C   -0.099293
    26  H    0.204419
    27  C    0.627103
    28  C   -0.021554
    29  H    0.156876
    30  H    0.148556
    31  O   -0.539255
    32  O   -0.617229
    33  H    0.412878
    34  N   -0.617604
    35  H    0.356617
    36  C   -0.069107
    37  H    0.188117
    38  C    0.606194
    39  C   -0.029628
    40  H    0.135563
    41  H    0.163024
    42  O   -0.546420
    43  O   -0.648898
    44  H    0.443019
    45  N   -0.593461
    46  H    0.347285
    47  C   -0.083964
    48  H    0.205297
    49  C    0.643814
    50  C   -0.329321
    51  H    0.186442
    52  H    0.172388
    53  O   -0.575650
    54  C    0.547192
    55  O   -0.481795
    56  O   -0.586225
    57  N   -0.610391
    58  H    0.367373
    59  C   -0.081161
    60  H    0.176610
    61  C    0.600783
    62  C   -0.240226
    63  H    0.128695
    64  H    0.132186
    65  O   -0.592455
    66  C   -0.254479
    67  H    0.153336
    68  H    0.175241
    69  C   -0.178566
    70  H    0.175320
    71  H    0.177147
    72  N   -0.563923
    73  H    0.350495
    74  N   -0.715105
    75  H    0.424514
    76  H    0.354847
    77  N   -0.709408
    78  H    0.368044
    79  H    0.393371
    80  C    0.676462
    81  O   -0.578566
    82  H    0.463731
 Sum of Mulliken charges =   1.00000

 Dipole moment (field-independent basis, Debye):
    X=            -13.5917    Y=            -15.0220    Z=            -19.8713  Tot=             28.3772
 Quadrupole moment (field-independent basis, Debye-Ang):
   XX=           -193.4469   YY=           -190.8103   ZZ=           -112.0739
   XY=            -59.5069   XZ=             80.1819   YZ=            -25.0228

 Normal termination of Gaussian 16 at Mon May 16 14:27:45 2022.
