 Gaussian 16, Revision C.01,
 Gaussian 16:  ES64L-G16RevC.01  3-Jul-2019

 ----------------------------------------------------------------------
 # B3LYP/6-31G* empiricaldispersion=gd3 guess=read geom=check nosymm in
 tegral(ultrafinegrid)
 ----------------------------------------------------------------------

 ------------------------------------------------------
 Candidate Structure: Conf:472 Charge calc in gas phase
 ------------------------------------------------------
 Structure from the checkpoint file:  "conf-472.chk"
 Charge =  1 Multiplicity = 1

                          Input orientation:
 ---------------------------------------------------------------------
 Center     Atomic      Atomic             Coordinates (Angstroms)
 Number     Number       Type             X           Y           Z
 ---------------------------------------------------------------------
      1          7           0       -6.030774   -1.239210   -5.264379
      2          1           0       -6.057755   -2.292726   -5.363007
      3          1           0       -6.738075   -0.968380   -4.560305
      4          1           0       -6.223941   -0.762429   -6.147318
      5          6           0       -4.644528   -0.992578   -4.713801
      6          1           0       -4.005442   -0.718924   -5.558984
      7          6           0       -4.228196   -2.410361   -4.223320
      8          6           0       -4.659715    0.134658   -3.655529
      9          1           0       -3.645738    0.237275   -3.255370
     10          1           0       -4.876703    1.079200   -4.168512
     11          8           0       -4.925556   -3.369403   -4.580281
     12          6           0       -5.664610   -0.119542   -2.552070
     13          6           0       -6.981518    0.355052   -2.683437
     14          1           0       -7.240745    1.015465   -3.511490
     15          6           0       -5.323412   -0.880220   -1.424057
     16          1           0       -4.301400   -1.221848   -1.284924
     17          6           0       -7.947702    0.052013   -1.719094
     18          1           0       -8.958186    0.434864   -1.827033
     19          6           0       -6.288215   -1.173690   -0.460399
     20          1           0       -6.010085   -1.754426    0.414132
     21          6           0       -7.601853   -0.720037   -0.610110
     22          1           0       -8.347453   -0.952795    0.144084
     23          7           0       -3.126297   -2.487185   -3.484771
     24          1           0       -2.689761   -1.653783   -3.093888
     25          6           0       -2.681753   -3.699016   -2.808048
     26          1           0       -3.518455   -4.397967   -2.728962
     27          6           0       -2.188357   -3.245027   -1.430533
     28          6           0       -1.518741   -4.384802   -3.590558
     29          1           0       -0.736811   -3.634261   -3.772509
     30          1           0       -1.918393   -4.709393   -4.557223
     31          8           0       -1.967470   -2.049114   -1.207888
     32          8           0       -1.023583   -5.509039   -2.906713
     33          1           0       -0.302567   -5.188512   -2.318102
     34          7           0       -1.967436   -4.234222   -0.540366
     35          1           0       -2.015350   -5.178787   -0.909314
     36          6           0       -1.038227   -4.010850    0.555007
     37          1           0       -1.370707   -3.130725    1.112190
     38          6           0        0.376316   -3.766767   -0.025721
     39          6           0       -1.016043   -5.221232    1.490623
     40          1           0       -0.297328   -5.017544    2.298314
     41          1           0       -0.647298   -6.099350    0.932917
     42          8           0        0.695894   -4.187380   -1.147049
     43          8           0       -2.333087   -5.411529    1.972593
     44          1           0       -2.327662   -6.165483    2.582131
     45          7           0        1.220140   -3.114432    0.780744
     46          1           0        0.930430   -2.719915    1.674334
     47          6           0        2.592283   -2.793597    0.429074
     48          1           0        3.090442   -3.685334    0.037421
     49          6           0        3.258547   -2.321492    1.745389
     50          6           0        2.643534   -1.697005   -0.675062
     51          1           0        2.180490   -2.117702   -1.571004
     52          1           0        2.093062   -0.812684   -0.346975
     53          8           0        2.554740   -1.956178    2.687990
     54          6           0        4.101517   -1.371939   -0.936044
     55          8           0        4.894843   -2.217489   -1.315165
     56          8           0        4.427113   -0.134592   -0.563080
     57          7           0        4.610392   -2.346026    1.755258
     58          1           0        5.095348   -2.552106    0.886745
     59          6           0        5.416446   -1.627816    2.745925
     60          1           0        4.760804   -1.347088    3.570730
     61          6           0        6.035396   -0.361890    2.097591
     62          6           0        6.560940   -2.563700    3.210475
     63          1           0        7.260109   -2.659362    2.369405
     64          1           0        6.128125   -3.559939    3.358839
     65          8           0        6.100088    0.677756    2.777019
     66          6           0        7.335749   -2.223354    4.500345
     67          1           0        8.119865   -2.983766    4.603809
     68          1           0        6.676315   -2.349639    5.368350
     69          6           0        7.965748   -0.819699    4.646969
     70          1           0        7.196845   -0.097258    4.921998
     71          1           0        8.708855   -0.829368    5.453769
     72          7           0        8.549245   -0.245857    3.421533
     73          1           0        7.916177    0.441540    2.993516
     74          7           0       10.311840   -1.714789    3.063893
     75          1           0       10.891682   -2.259678    2.444224
     76          1           0       10.577849   -1.673461    4.036529
     77          7           0        9.276653   -0.610226    1.273228
     78          1           0        8.313305   -0.406835    0.924309
     79          1           0        9.971135   -0.956524    0.626763
     80          6           0        9.382240   -0.861331    2.581833
     81          8           0        6.565411   -0.560180    0.943496
     82          1           0        5.395701   -0.129099   -0.322837
 ---------------------------------------------------------------------

 SCF Done:  E(RB3LYP) =  -2166.38550537     A.U. after    1 cycles

 Alpha  occ. eigenvalues --  -19.26030 -19.22595 -19.22106 -19.21802 -19.21406
 Alpha  occ. eigenvalues --  -19.20421 -19.17751 -19.17747 -19.15174 -19.14504
 Alpha  occ. eigenvalues --  -14.58695 -14.48785 -14.47222 -14.44873 -14.44502
 Alpha  occ. eigenvalues --  -14.44205 -14.43793 -14.41301 -10.42927 -10.41902
 Alpha  occ. eigenvalues --  -10.40250 -10.38352 -10.37169 -10.36248 -10.34895
 Alpha  occ. eigenvalues --  -10.33649 -10.33168 -10.32695 -10.32327 -10.32040
 Alpha  occ. eigenvalues --  -10.31887 -10.31452 -10.30519 -10.30374 -10.29925
 Alpha  occ. eigenvalues --  -10.29628 -10.29287 -10.29191 -10.29112 -10.27275
 Alpha  occ. eigenvalues --  -10.26005 -10.25460 -10.25070  -1.18519  -1.13890
 Alpha  occ. eigenvalues --   -1.13811  -1.12848  -1.11857  -1.10611  -1.10103
 Alpha  occ. eigenvalues --   -1.09575  -1.09158  -1.08039  -1.05478  -1.05023
 Alpha  occ. eigenvalues --   -1.01727  -1.00348  -0.99931  -0.99522  -0.98353
 Alpha  occ. eigenvalues --   -0.97583  -0.96857  -0.92522  -0.87782  -0.86491
 Alpha  occ. eigenvalues --   -0.85795  -0.85027  -0.84625  -0.82916  -0.80268
 Alpha  occ. eigenvalues --   -0.79125  -0.76084  -0.74711  -0.74397  -0.73772
 Alpha  occ. eigenvalues --   -0.72686  -0.72125  -0.71768  -0.70498  -0.70031
 Alpha  occ. eigenvalues --   -0.68945  -0.67987  -0.67531  -0.66767  -0.66605
 Alpha  occ. eigenvalues --   -0.65306  -0.64874  -0.63299  -0.63073  -0.62850
 Alpha  occ. eigenvalues --   -0.62518  -0.60718  -0.60596  -0.60045  -0.59884
 Alpha  occ. eigenvalues --   -0.59074  -0.58516  -0.58181  -0.57385  -0.56898
 Alpha  occ. eigenvalues --   -0.56719  -0.56449  -0.55911  -0.55501  -0.54911
 Alpha  occ. eigenvalues --   -0.53837  -0.53604  -0.53422  -0.52998  -0.52450
 Alpha  occ. eigenvalues --   -0.52245  -0.52142  -0.51888  -0.51692  -0.51652
 Alpha  occ. eigenvalues --   -0.51055  -0.50776  -0.50552  -0.50334  -0.50146
 Alpha  occ. eigenvalues --   -0.49301  -0.49016  -0.48512  -0.48135  -0.47847
 Alpha  occ. eigenvalues --   -0.47224  -0.46886  -0.46682  -0.46065  -0.45865
 Alpha  occ. eigenvalues --   -0.44927  -0.44763  -0.44717  -0.44274  -0.43525
 Alpha  occ. eigenvalues --   -0.42721  -0.42224  -0.41987  -0.41634  -0.41029
 Alpha  occ. eigenvalues --   -0.40960  -0.40677  -0.40598  -0.39534  -0.39377
 Alpha  occ. eigenvalues --   -0.37486  -0.36349  -0.35862  -0.35757  -0.35499
 Alpha  occ. eigenvalues --   -0.35418  -0.35169  -0.34596  -0.34408  -0.33845
 Alpha  occ. eigenvalues --   -0.33255  -0.32686  -0.31826  -0.31409  -0.30761
 Alpha  occ. eigenvalues --   -0.29393  -0.27537
 Alpha virt. eigenvalues --   -0.12190  -0.11582  -0.11509  -0.08084  -0.07894
 Alpha virt. eigenvalues --   -0.07220  -0.06463  -0.04118  -0.03730  -0.03682
 Alpha virt. eigenvalues --   -0.03286  -0.02623  -0.01747  -0.01115  -0.00249

 Mulliken charges:
               1
     1  N   -0.755605
     2  H    0.432854
     3  H    0.403692
     4  H    0.409263
     5  C   -0.115709
     6  H    0.228022
     7  C    0.655185
     8  C   -0.394927
     9  H    0.208648
    10  H    0.188283
    11  O   -0.533735
    12  C    0.140775
    13  C   -0.241598
    14  H    0.140772
    15  C   -0.186610
    16  H    0.177762
    17  C   -0.118600
    18  H    0.163312
    19  C   -0.130165
    20  H    0.169222
    21  C   -0.121831
    22  H    0.166395
    23  N   -0.601424
    24  H    0.370428
    25  C   -0.100208
    26  H    0.205988
    27  C    0.626949
    28  C   -0.026073
    29  H    0.151418
    30  H    0.167526
    31  O   -0.551707
    32  O   -0.643770
    33  H    0.443939
    34  N   -0.568988
    35  H    0.354438
    36  C   -0.078081
    37  H    0.197528
    38  C    0.650219
    39  C   -0.050564
    40  H    0.156583
    41  H    0.144110
    42  O   -0.570185
    43  O   -0.609532
    44  H    0.409657
    45  N   -0.614504
    46  H    0.365356
    47  C   -0.053483
    48  H    0.198729
    49  C    0.606195
    50  C   -0.323181
    51  H    0.194381
    52  H    0.177222
    53  O   -0.537436
    54  C    0.554985
    55  O   -0.484015
    56  O   -0.572742
    57  N   -0.612007
    58  H    0.364195
    59  C   -0.035229
    60  H    0.183057
    61  C    0.593267
    62  C   -0.290666
    63  H    0.144054
    64  H    0.159637
    65  O   -0.554929
    66  C   -0.280681
    67  H    0.141428
    68  H    0.164684
    69  C   -0.167255
    70  H    0.212071
    71  H    0.154222
    72  N   -0.593859
    73  H    0.398411
    74  N   -0.753476
    75  H    0.366067
    76  H    0.374555
    77  N   -0.763133
    78  H    0.423836
    79  H    0.347712
    80  C    0.754346
    81  O   -0.654549
    82  H    0.449077
 Sum of Mulliken charges =   1.00000

 Dipole moment (field-independent basis, Debye):
    X=             -4.8658    Y=             -9.5198    Z=             -8.6665  Tot=             13.7627
 Quadrupole moment (field-independent basis, Debye-Ang):
   XX=             90.8991   YY=           -227.4283   ZZ=           -135.1735
   XY=            -32.7441   XZ=            155.4405   YZ=            -31.5013

 Normal termination of Gaussian 16 at Mon May 16 14:27:45 2022.
