 Gaussian 16, Revision C.01,
 Gaussian 16:  ES64L-G16RevC.01  3-Jul-2019

 ----------------------------------------------------------------------
 # B3LYP/6-31G* empiricaldispersion=gd3 guess=read geom=check nosymm in
 tegral(ultrafinegrid)
 ----------------------------------------------------------------------

 -----------------------------------------------------
 Candidate Structure: Conf:34 Charge calc in gas phase
 -----------------------------------------------------
 Structure from the checkpoint file:  "conf-34.chk"
 Charge =  1 Multiplicity = 1

                          Input orientation:
 ---------------------------------------------------------------------
 Center     Atomic      Atomic             Coordinates (Angstroms)
 Number     Number       Type             X           Y           Z
 ---------------------------------------------------------------------
      1          7           0       -6.079068   -0.585891   -6.194801
      2          1           0       -6.092921   -0.120360   -7.106167
      3          1           0       -5.418499   -1.407045   -6.257070
      4          1           0       -7.041381   -0.859029   -5.944570
      5          6           0       -5.447631    0.261177   -5.116072
      6          1           0       -5.536281    1.309364   -5.407925
      7          6           0       -3.980972   -0.234458   -5.089665
      8          6           0       -6.155673    0.004077   -3.764293
      9          1           0       -5.919620   -1.015548   -3.436800
     10          1           0       -5.707721    0.683424   -3.031079
     11          8           0       -3.738345   -1.326354   -5.615685
     12          6           0       -7.651074    0.203529   -3.870444
     13          6           0       -8.199427    1.493674   -3.905465
     14          1           0       -7.552549    2.358998   -3.777049
     15          6           0       -8.502326   -0.902877   -4.021595
     16          1           0       -8.096752   -1.911251   -3.949382
     17          6           0       -9.570422    1.673322   -4.082612
     18          1           0       -9.985651    2.676710   -4.093828
     19          6           0       -9.877363   -0.721588   -4.205410
     20          1           0      -10.526810   -1.585993   -4.306813
     21          6           0      -10.411085    0.566332   -4.238151
     22          1           0      -11.478775    0.709810   -4.373365
     23          7           0       -3.127722    0.554203   -4.443911
     24          1           0       -3.452422    1.346689   -3.888274
     25          6           0       -1.741872    0.215902   -4.152227
     26          1           0       -1.633735   -0.872436   -4.174742
     27          6           0       -1.467281    0.801004   -2.748658
     28          6           0       -0.791718    0.838289   -5.186528
     29          1           0        0.238197    0.543258   -4.935326
     30          1           0       -0.855838    1.935997   -5.111178
     31          8           0       -2.256823    1.617908   -2.265128
     32          8           0       -1.191046    0.368841   -6.460364
     33          1           0       -0.562296    0.702890   -7.118305
     34          7           0       -0.331476    0.399332   -2.163673
     35          1           0        0.305212   -0.263167   -2.601463
     36          6           0        0.147923    0.927095   -0.897575
     37          1           0       -0.028978    2.006609   -0.858602
     38          6           0        1.640013    0.602564   -0.825662
     39          6           0       -0.592694    0.271354    0.309131
     40          1           0       -0.476690   -0.819132    0.230599
     41          1           0       -1.653928    0.519263    0.207800
     42          8           0        2.145331   -0.243813   -1.561959
     43          8           0       -0.131457    0.767652    1.542455
     44          1           0        0.625449    0.199347    1.814907
     45          7           0        2.319811    1.283982    0.134229
     46          1           0        1.738015    1.785659    0.799641
     47          6           0        3.559546    0.737939    0.658716
     48          1           0        4.195356    0.474710   -0.190420
     49          6           0        3.269692   -0.535007    1.493666
     50          6           0        4.264320    1.796492    1.530373
     51          1           0        3.649500    2.042442    2.400868
     52          1           0        5.221164    1.398182    1.879805
     53          8           0        2.125075   -0.813515    1.883964
     54          6           0        4.492866    3.070751    0.744075
     55          8           0        3.897574    4.110337    0.905301
     56          8           0        5.441402    2.891455   -0.207012
     57          7           0        4.345275   -1.270203    1.784678
     58          1           0        5.278310   -1.048335    1.439003
     59          6           0        4.347248   -2.435949    2.664094
     60          1           0        3.690888   -2.241391    3.516642
     61          6           0        5.816416   -2.601876    3.138373
     62          6           0        3.821375   -3.667409    1.874535
     63          1           0        4.554086   -3.905543    1.091650
     64          1           0        2.917185   -3.321831    1.363932
     65          8           0        5.983793   -3.203474    4.254167
     66          6           0        3.457378   -4.935786    2.684595
     67          1           0        2.533005   -5.363059    2.278423
     68          1           0        3.232805   -4.673070    3.726498
     69          6           0        4.496931   -6.069757    2.668288
     70          1           0        4.065168   -6.971267    3.121591
     71          1           0        4.764919   -6.309710    1.631634
     72          7           0        5.695009   -5.668759    3.407732
     73          1           0        5.579989   -4.817172    3.995742
     74          7           0        7.281771   -6.779097    2.099333
     75          1           0        8.254494   -6.937200    1.879391
     76          1           0        6.681660   -7.586782    2.015733
     77          7           0        7.886667   -5.004030    3.510270
     78          1           0        7.521758   -4.109923    3.901437
     79          1           0        8.835087   -5.036341    3.166348
     80          6           0        6.956112   -5.818874    3.002820
     81          8           0        6.705332   -2.198442    2.368087
     82          1           0        5.518854    3.736488   -0.688862
 ---------------------------------------------------------------------

 SCF Done:  E(RB3LYP) =  -2166.37753852     A.U. after    1 cycles

 Alpha  occ. eigenvalues --  -19.25527 -19.25053 -19.23976 -19.21305 -19.19322
 Alpha  occ. eigenvalues --  -19.19277 -19.19087 -19.18192 -19.13933 -19.13460
 Alpha  occ. eigenvalues --  -14.59003 -14.48453 -14.46233 -14.45040 -14.43226
 Alpha  occ. eigenvalues --  -14.43155 -14.42545 -14.41104 -10.42486 -10.40862
 Alpha  occ. eigenvalues --  -10.39955 -10.38505 -10.37646 -10.35922 -10.34835
 Alpha  occ. eigenvalues --  -10.33896 -10.33592 -10.33542 -10.31913 -10.31525
 Alpha  occ. eigenvalues --  -10.30705 -10.30486 -10.30320 -10.30317 -10.30176
 Alpha  occ. eigenvalues --  -10.30080 -10.29945 -10.29683 -10.29551 -10.26909
 Alpha  occ. eigenvalues --  -10.26741 -10.25593 -10.24310  -1.18118  -1.15845
 Alpha  occ. eigenvalues --   -1.13542  -1.12883  -1.11450  -1.11223  -1.09703
 Alpha  occ. eigenvalues --   -1.09443  -1.07058  -1.06935  -1.06773  -1.05162
 Alpha  occ. eigenvalues --   -1.01468  -0.99657  -0.99505  -0.98420  -0.97467
 Alpha  occ. eigenvalues --   -0.97386  -0.97151  -0.92802  -0.88338  -0.86484
 Alpha  occ. eigenvalues --   -0.85721  -0.85480  -0.85096  -0.81991  -0.80051
 Alpha  occ. eigenvalues --   -0.79111  -0.75636  -0.75065  -0.73265  -0.73062
 Alpha  occ. eigenvalues --   -0.72786  -0.72153  -0.71354  -0.71209  -0.69919
 Alpha  occ. eigenvalues --   -0.69823  -0.67801  -0.67069  -0.66495  -0.66151
 Alpha  occ. eigenvalues --   -0.65635  -0.64583  -0.63563  -0.63184  -0.62843
 Alpha  occ. eigenvalues --   -0.62481  -0.61128  -0.60697  -0.59286  -0.58532
 Alpha  occ. eigenvalues --   -0.58162  -0.58095  -0.57247  -0.57083  -0.57018
 Alpha  occ. eigenvalues --   -0.56312  -0.55809  -0.55533  -0.54863  -0.54301
 Alpha  occ. eigenvalues --   -0.54270  -0.53836  -0.53619  -0.53306  -0.53105
 Alpha  occ. eigenvalues --   -0.52996  -0.52263  -0.52192  -0.51679  -0.51059
 Alpha  occ. eigenvalues --   -0.50840  -0.50527  -0.50320  -0.49777  -0.49673
 Alpha  occ. eigenvalues --   -0.49387  -0.48821  -0.48310  -0.47813  -0.47143
 Alpha  occ. eigenvalues --   -0.47063  -0.46692  -0.46022  -0.45734  -0.45561
 Alpha  occ. eigenvalues --   -0.45446  -0.45198  -0.44914  -0.44457  -0.44011
 Alpha  occ. eigenvalues --   -0.43836  -0.43018  -0.42700  -0.41910  -0.41012
 Alpha  occ. eigenvalues --   -0.40249  -0.40140  -0.39219  -0.38605  -0.38121
 Alpha  occ. eigenvalues --   -0.37232  -0.36742  -0.36662  -0.36432  -0.36078
 Alpha  occ. eigenvalues --   -0.35872  -0.35422  -0.33819  -0.33521  -0.33423
 Alpha  occ. eigenvalues --   -0.33044  -0.31819  -0.31577  -0.30912  -0.29309
 Alpha  occ. eigenvalues --   -0.28279  -0.27731
 Alpha virt. eigenvalues --   -0.12597  -0.12087  -0.10158  -0.09274  -0.07170
 Alpha virt. eigenvalues --   -0.05728  -0.05651  -0.05104  -0.04147  -0.02587
 Alpha virt. eigenvalues --   -0.02333  -0.02253  -0.01412  -0.01133  -0.00551

 Mulliken charges:
               1
     1  N   -0.749300
     2  H    0.415757
     3  H    0.425476
     4  H    0.403707
     5  C   -0.117378
     6  H    0.212636
     7  C    0.669109
     8  C   -0.388203
     9  H    0.193555
    10  H    0.213792
    11  O   -0.529564
    12  C    0.142033
    13  C   -0.180783
    14  H    0.148179
    15  C   -0.232016
    16  H    0.150746
    17  C   -0.122574
    18  H    0.167949
    19  C   -0.120223
    20  H    0.166598
    21  C   -0.124193
    22  H    0.168740
    23  N   -0.591286
    24  H    0.366975
    25  C   -0.093879
    26  H    0.204152
    27  C    0.630599
    28  C   -0.018567
    29  H    0.154705
    30  H    0.144707
    31  O   -0.544827
    32  O   -0.613381
    33  H    0.411168
    34  N   -0.620463
    35  H    0.361024
    36  C   -0.070954
    37  H    0.193194
    38  C    0.608106
    39  C   -0.032527
    40  H    0.141330
    41  H    0.166569
    42  O   -0.539729
    43  O   -0.648954
    44  H    0.442886
    45  N   -0.596296
    46  H    0.353763
    47  C   -0.082586
    48  H    0.207795
    49  C    0.656442
    50  C   -0.365970
    51  H    0.190218
    52  H    0.200880
    53  O   -0.578003
    54  C    0.581496
    55  O   -0.448603
    56  O   -0.560224
    57  N   -0.604202
    58  H    0.358214
    59  C   -0.032991
    60  H    0.170062
    61  C    0.587690
    62  C   -0.273438
    63  H    0.143999
    64  H    0.172170
    65  O   -0.641385
    66  C   -0.303619
    67  H    0.155486
    68  H    0.173171
    69  C   -0.147826
    70  H    0.164945
    71  H    0.158871
    72  N   -0.603781
    73  H    0.405595
    74  N   -0.754266
    75  H    0.361826
    76  H    0.367100
    77  N   -0.755531
    78  H    0.414030
    79  H    0.347897
    80  C    0.759830
    81  O   -0.563936
    82  H    0.416290
 Sum of Mulliken charges =   1.00000

 Dipole moment (field-independent basis, Debye):
    X=            -13.7484    Y=            -11.0566    Z=            -22.2463  Tot=             28.3931
 Quadrupole moment (field-independent basis, Debye-Ang):
   XX=             18.2946   YY=           -149.5081   ZZ=           -126.1162
   XY=            -79.3102   XZ=            142.3111   YZ=            -36.5073

 Normal termination of Gaussian 16 at Mon May 16 14:27:42 2022.
