 Gaussian 16, Revision C.01,
 Gaussian 16:  ES64L-G16RevC.01  3-Jul-2019

 ----------------------------------------------------------------------
 # B3LYP/6-31G* empiricaldispersion=gd3 guess=read geom=check nosymm in
 tegral(ultrafinegrid)
 ----------------------------------------------------------------------

 ------------------------------------------------------
 Candidate Structure: Conf:950 Charge calc in gas phase
 ------------------------------------------------------
 Structure from the checkpoint file:  "conf-950.chk"
 Charge =  1 Multiplicity = 1

                          Input orientation:
 ---------------------------------------------------------------------
 Center     Atomic      Atomic             Coordinates (Angstroms)
 Number     Number       Type             X           Y           Z
 ---------------------------------------------------------------------
      1          7           0       -5.058789   -0.324793   -5.507987
      2          1           0       -5.386774    0.123316   -6.367903
      3          1           0       -4.104137   -0.762376   -5.689495
      4          1           0       -5.738578   -1.035399   -5.222918
      5          6           0       -4.733314    0.658517   -4.396622
      6          1           0       -5.192427    1.619902   -4.634820
      7          6           0       -3.187697    0.714276   -4.446301
      8          6           0       -5.251477    0.109784   -3.046111
      9          1           0       -6.328771   -0.080847   -3.154579
     10          1           0       -4.745222   -0.842728   -2.846754
     11          8           0       -2.611821   -0.173937   -5.102568
     12          6           0       -5.010242    1.085221   -1.910721
     13          6           0       -4.014471    0.831742   -0.961005
     14          1           0       -3.433650   -0.080585   -1.033753
     15          6           0       -5.730156    2.287314   -1.840675
     16          1           0       -6.515888    2.494867   -2.565334
     17          6           0       -3.738984    1.761548    0.042260
     18          1           0       -2.948898    1.555556    0.757759
     19          6           0       -5.452472    3.219742   -0.840772
     20          1           0       -6.013445    4.148418   -0.797285
     21          6           0       -4.454559    2.958377    0.101801
     22          1           0       -4.233579    3.689029    0.873924
     23          7           0       -2.595080    1.667467   -3.743278
     24          1           0       -3.139334    2.296638   -3.153913
     25          6           0       -1.160123    1.670029   -3.414191
     26          1           0       -0.581275    1.360531   -4.286867
     27          6           0       -0.938768    0.664924   -2.255944
     28          6           0       -0.803221    3.095183   -2.978175
     29          1           0       -0.882998    3.771836   -3.833364
     30          1           0        0.231784    3.100641   -2.624567
     31          8           0       -0.713305    1.042205   -1.101125
     32          8           0       -1.729190    3.553408   -2.001104
     33          1           0       -1.554918    3.015548   -1.206483
     34          7           0       -1.117602   -0.626915   -2.611239
     35          1           0       -1.102999   -0.848697   -3.601335
     36          6           0       -0.877417   -1.761462   -1.724458
     37          1           0       -0.958175   -1.398556   -0.696755
     38          6           0        0.547851   -2.245584   -2.065374
     39          6           0       -1.897093   -2.873956   -2.000137
     40          1           0       -1.669549   -3.740701   -1.365805
     41          1           0       -1.791439   -3.194236   -3.040517
     42          8           0        0.767045   -2.736259   -3.172491
     43          8           0       -3.251514   -2.451341   -1.823549
     44          1           0       -3.463162   -2.502152   -0.877620
     45          7           0        1.490457   -1.980801   -1.143540
     46          1           0        1.278497   -1.528998   -0.257416
     47          6           0        2.904138   -1.943867   -1.472801
     48          1           0        3.209971   -2.902142   -1.903806
     49          6           0        3.652302   -1.690545   -0.145129
     50          6           0        3.215166   -0.834694   -2.531321
     51          1           0        4.275469   -0.536003   -2.477512
     52          1           0        2.998203   -1.211872   -3.532148
     53          8           0        3.033176   -1.460618    0.898654
     54          6           0        2.340877    0.374790   -2.317197
     55          8           0        1.643834    0.891664   -3.173586
     56          8           0        2.354895    0.797770   -1.038527
     57          7           0        4.995967   -1.685497   -0.268265
     58          1           0        5.363832   -1.633025   -1.231386
     59          6           0        5.811753   -0.734350    0.490467
     60          1           0        5.147529    0.012716    0.941831
     61          6           0        6.757773   -0.008069   -0.561242
     62          6           0        6.643957   -1.373577    1.594879
     63          1           0        7.250261   -0.567219    2.023629
     64          1           0        7.345508   -2.074278    1.108242
     65          8           0        6.453515   -0.226083   -1.772735
     66          6           0        5.813431   -2.102878    2.660945
     67          1           0        5.447564   -3.059233    2.269298
     68          1           0        4.920320   -1.518571    2.905720
     69          6           0        6.599302   -2.334981    3.954990
     70          1           0        6.782128   -1.375120    4.456960
     71          1           0        6.063959   -3.000439    4.642768
     72          7           0        7.906977   -2.951563    3.638047
     73          1           0        8.188195   -2.884938    2.665584
     74          7           0        8.571456   -3.230833    5.836517
     75          1           0        9.160253   -3.681559    6.521528
     76          1           0        7.816444   -2.651571    6.173566
     77          7           0        9.928547   -4.000848    4.129234
     78          1           0       10.117467   -4.128401    3.144279
     79          1           0       10.736912   -4.009136    4.736135
     80          6           0        8.798653   -3.373577    4.520112
     81          8           0        7.675282    0.658150   -0.057493
     82          1           0        1.652871    1.468302   -0.939396
 ---------------------------------------------------------------------

 SCF Done:  E(RB3LYP) =  -2166.32959439     A.U. after    1 cycles

 Alpha  occ. eigenvalues --  -19.26016 -19.24626 -19.24309 -19.22099 -19.20953
 Alpha  occ. eigenvalues --  -19.19196 -19.17525 -19.15866 -19.07913 -19.06953
 Alpha  occ. eigenvalues --  -14.59131 -14.51370 -14.51063 -14.50490 -14.48424
 Alpha  occ. eigenvalues --  -14.44524 -14.41551 -14.37140 -10.47310 -10.42501
 Alpha  occ. eigenvalues --  -10.39851 -10.37965 -10.37188 -10.34908 -10.33387
 Alpha  occ. eigenvalues --  -10.32585 -10.32343 -10.32342 -10.31975 -10.31036
 Alpha  occ. eigenvalues --  -10.31004 -10.29914 -10.28721 -10.28678 -10.28039
 Alpha  occ. eigenvalues --  -10.27921 -10.27772 -10.27691 -10.25859 -10.25710
 Alpha  occ. eigenvalues --  -10.23844 -10.23328 -10.23257  -1.18406  -1.15843
 Alpha  occ. eigenvalues --   -1.15506  -1.13102  -1.12559  -1.11307  -1.09675
 Alpha  occ. eigenvalues --   -1.09372  -1.07180  -1.06356  -1.04983  -1.04859
 Alpha  occ. eigenvalues --   -1.04152  -1.00986  -1.00829  -0.98271  -0.95715
 Alpha  occ. eigenvalues --   -0.94851  -0.92048  -0.91773  -0.87817  -0.86838
 Alpha  occ. eigenvalues --   -0.84784  -0.83691  -0.83506  -0.82384  -0.80354
 Alpha  occ. eigenvalues --   -0.78565  -0.77959  -0.75312  -0.74129  -0.73469
 Alpha  occ. eigenvalues --   -0.73197  -0.72408  -0.72144  -0.71763  -0.70372
 Alpha  occ. eigenvalues --   -0.69709  -0.69068  -0.67557  -0.67235  -0.66413
 Alpha  occ. eigenvalues --   -0.65216  -0.64915  -0.64351  -0.63942  -0.62950
 Alpha  occ. eigenvalues --   -0.62072  -0.61927  -0.60323  -0.59863  -0.59765
 Alpha  occ. eigenvalues --   -0.59751  -0.59010  -0.58736  -0.57515  -0.56578
 Alpha  occ. eigenvalues --   -0.56112  -0.55832  -0.55070  -0.54829  -0.54327
 Alpha  occ. eigenvalues --   -0.54045  -0.53721  -0.53567  -0.53262  -0.52359
 Alpha  occ. eigenvalues --   -0.51622  -0.51131  -0.50839  -0.50612  -0.50501
 Alpha  occ. eigenvalues --   -0.50329  -0.50057  -0.49866  -0.49510  -0.49282
 Alpha  occ. eigenvalues --   -0.48681  -0.48364  -0.47570  -0.47218  -0.46438
 Alpha  occ. eigenvalues --   -0.46118  -0.44998  -0.44691  -0.44411  -0.44323
 Alpha  occ. eigenvalues --   -0.43772  -0.43679  -0.43265  -0.42556  -0.42359
 Alpha  occ. eigenvalues --   -0.42306  -0.41920  -0.41540  -0.41317  -0.40791
 Alpha  occ. eigenvalues --   -0.40265  -0.39559  -0.39121  -0.38941  -0.38213
 Alpha  occ. eigenvalues --   -0.37254  -0.37156  -0.36955  -0.35550  -0.35335
 Alpha  occ. eigenvalues --   -0.35179  -0.34095  -0.33979  -0.33606  -0.32751
 Alpha  occ. eigenvalues --   -0.31689  -0.30586  -0.29827  -0.29011  -0.23127
 Alpha  occ. eigenvalues --   -0.22650  -0.21115
 Alpha virt. eigenvalues --   -0.11979  -0.11186  -0.10274  -0.10118  -0.09536
 Alpha virt. eigenvalues --   -0.07384  -0.07363  -0.05156  -0.04549  -0.03782
 Alpha virt. eigenvalues --   -0.03568  -0.02564  -0.02353  -0.01685  -0.01607

 Mulliken charges:
               1
     1  N   -0.758064
     2  H    0.415542
     3  H    0.436302
     4  H    0.414284
     5  C   -0.111816
     6  H    0.215673
     7  C    0.673096
     8  C   -0.404255
     9  H    0.173437
    10  H    0.225359
    11  O   -0.563224
    12  C    0.123429
    13  C   -0.190386
    14  H    0.157394
    15  C   -0.192571
    16  H    0.129223
    17  C   -0.141674
    18  H    0.164158
    19  C   -0.117641
    20  H    0.158620
    21  C   -0.114953
    22  H    0.160901
    23  N   -0.587092
    24  H    0.380655
    25  C   -0.103095
    26  H    0.223215
    27  C    0.667090
    28  C   -0.061552
    29  H    0.166388
    30  H    0.178972
    31  O   -0.574293
    32  O   -0.638372
    33  H    0.422401
    34  N   -0.590925
    35  H    0.373369
    36  C   -0.088944
    37  H    0.166409
    38  C    0.631302
    39  C   -0.060672
    40  H    0.160214
    41  H    0.181847
    42  O   -0.542435
    43  O   -0.615324
    44  H    0.405707
    45  N   -0.613498
    46  H    0.360884
    47  C   -0.056685
    48  H    0.193152
    49  C    0.610369
    50  C   -0.402486
    51  H    0.253385
    52  H    0.195426
    53  O   -0.557936
    54  C    0.599104
    55  O   -0.502122
    56  O   -0.554178
    57  N   -0.599380
    58  H    0.348088
    59  C   -0.093626
    60  H    0.158702
    61  C    0.584806
    62  C   -0.284557
    63  H    0.172043
    64  H    0.118808
    65  O   -0.606539
    66  C   -0.298578
    67  H    0.166997
    68  H    0.193903
    69  C   -0.162983
    70  H    0.180804
    71  H    0.174778
    72  N   -0.593607
    73  H    0.374534
    74  N   -0.758126
    75  H    0.381666
    76  H    0.393391
    77  N   -0.758268
    78  H    0.386054
    79  H    0.378771
    80  C    0.824945
    81  O   -0.578743
    82  H    0.423002
 Sum of Mulliken charges =   1.00000

 Dipole moment (field-independent basis, Debye):
    X=             -4.2288    Y=            -12.2700    Z=              5.0780  Tot=             13.9364
 Quadrupole moment (field-independent basis, Debye-Ang):
   XX=             37.7433   YY=           -199.0407   ZZ=            -73.2706
   XY=           -132.5079   XZ=            270.6595   YZ=            -62.7021

 Normal termination of Gaussian 16 at Mon May 16 14:27:49 2022.
