 Gaussian 16, Revision C.01,
 Gaussian 16:  ES64L-G16RevC.01  3-Jul-2019

 ----------------------------------------------------------------------
 # B3LYP/6-31G* empiricaldispersion=gd3 guess=read geom=check nosymm in
 tegral(ultrafinegrid)
 ----------------------------------------------------------------------

 ------------------------------------------------------
 Candidate Structure: Conf:578 Charge calc in gas phase
 ------------------------------------------------------
 Structure from the checkpoint file:  "conf-578.chk"
 Charge =  1 Multiplicity = 1

                          Input orientation:
 ---------------------------------------------------------------------
 Center     Atomic      Atomic             Coordinates (Angstroms)
 Number     Number       Type             X           Y           Z
 ---------------------------------------------------------------------
      1          7           0       -4.864215    1.261059   -3.207935
      2          1           0       -5.088168    1.722017   -4.094372
      3          1           0       -5.479007    0.421922   -3.111076
      4          1           0       -4.997002    1.931263   -2.435327
      5          6           0       -3.465707    0.680938   -3.178240
      6          1           0       -2.800474    1.327891   -3.750820
      7          6           0       -3.627996   -0.728510   -3.768991
      8          6           0       -3.004675    0.589647   -1.706381
      9          1           0       -3.699774   -0.066548   -1.168299
     10          1           0       -2.037191    0.087582   -1.723794
     11          8           0       -4.714617   -1.296009   -3.616471
     12          6           0       -2.928868    1.960214   -1.076216
     13          6           0       -1.831152    2.793373   -1.341966
     14          1           0       -1.016854    2.416375   -1.955366
     15          6           0       -3.977086    2.445183   -0.278274
     16          1           0       -4.807580    1.788752   -0.018362
     17          6           0       -1.783453    4.082513   -0.814328
     18          1           0       -0.921071    4.712516   -1.012186
     19          6           0       -3.932228    3.743480    0.242466
     20          1           0       -4.744202    4.103711    0.867738
     21          6           0       -2.836143    4.562319   -0.027047
     22          1           0       -2.794857    5.567775    0.381441
     23          7           0       -2.537600   -1.220666   -4.371316
     24          1           0       -1.687482   -0.656863   -4.281233
     25          6           0       -2.275146   -2.650322   -4.439331
     26          1           0       -3.221663   -3.183679   -4.571806
     27          6           0       -1.589316   -3.032129   -3.098406
     28          6           0       -1.323142   -2.917013   -5.626206
     29          1           0       -1.790446   -2.537723   -6.539544
     30          1           0       -1.171415   -3.997246   -5.752822
     31          8           0       -1.454685   -2.200407   -2.203427
     32          8           0       -0.091670   -2.235589   -5.464236
     33          1           0        0.498462   -2.750048   -4.865117
     34          7           0       -1.013224   -4.254177   -3.016630
     35          1           0       -1.198537   -4.988061   -3.686364
     36          6           0        0.081030   -4.460626   -2.068232
     37          1           0       -0.300397   -4.396938   -1.044180
     38          6           0        1.123151   -3.356207   -2.373041
     39          6           0        0.711009   -5.830117   -2.321735
     40          1           0        1.445732   -6.029657   -1.527764
     41          1           0        1.243521   -5.794515   -3.283115
     42          8           0        1.577921   -3.268358   -3.521316
     43          8           0       -0.343377   -6.782822   -2.334928
     44          1           0        0.035882   -7.655312   -2.521011
     45          7           0        1.448236   -2.517680   -1.380196
     46          1           0        1.030487   -2.614423   -0.461031
     47          6           0        2.250543   -1.317161   -1.562302
     48          1           0        2.945692   -1.493056   -2.385775
     49          6           0        2.975472   -1.032981   -0.237167
     50          6           0        1.383299   -0.058635   -1.856083
     51          1           0        0.578943    0.007701   -1.119338
     52          1           0        2.006256    0.839860   -1.720717
     53          8           0        2.483117   -1.400742    0.827062
     54          6           0        0.755840   -0.003421   -3.224817
     55          8           0       -0.375902    0.423742   -3.436379
     56          8           0        1.557085   -0.425787   -4.198930
     57          7           0        4.118641   -0.307559   -0.360623
     58          1           0        4.250220    0.115560   -1.274535
     59          6           0        4.531736    0.597868    0.713263
     60          1           0        4.113309    0.178301    1.631282
     61          6           0        3.856938    1.998074    0.485360
     62          6           0        6.083463    0.667369    0.815043
     63          1           0        6.426868    1.696623    0.649749
     64          1           0        6.494014    0.072347   -0.006657
     65          8           0        3.970996    2.817316    1.466162
     66          6           0        6.674390    0.134751    2.138751
     67          1           0        7.705533   -0.203194    1.976743
     68          1           0        6.103597   -0.742845    2.469050
     69          6           0        6.718568    1.179470    3.267254
     70          1           0        7.061994    0.723820    4.201888
     71          1           0        7.440136    1.964649    3.019242
     72          7           0        5.431925    1.849947    3.460103
     73          1           0        5.060121    2.375889    2.622905
     74          7           0        4.658704    0.697587    5.352228
     75          1           0        3.886347    0.360478    5.905946
     76          1           0        5.579946    0.637021    5.756686
     77          7           0        3.188961    1.793785    3.911574
     78          1           0        3.082388    2.276135    3.005266
     79          1           0        2.446551    1.813169    4.594145
     80          6           0        4.440691    1.448717    4.249302
     81          8           0        3.272945    2.196355   -0.587918
     82          1           0        1.016756   -0.562169   -5.007209
 ---------------------------------------------------------------------

 SCF Done:  E(RB3LYP) =  -2166.39971551     A.U. after    1 cycles

 Alpha  occ. eigenvalues --  -19.27145 -19.23768 -19.23418 -19.23081 -19.22718
 Alpha  occ. eigenvalues --  -19.21233 -19.20370 -19.19043 -19.15174 -19.14495
 Alpha  occ. eigenvalues --  -14.57824 -14.47543 -14.45945 -14.45336 -14.45250
 Alpha  occ. eigenvalues --  -14.44767 -14.44394 -14.42080 -10.42480 -10.40832
 Alpha  occ. eigenvalues --  -10.40461 -10.38171 -10.37745 -10.37349 -10.35852
 Alpha  occ. eigenvalues --  -10.33042 -10.33019 -10.32765 -10.32421 -10.32371
 Alpha  occ. eigenvalues --  -10.31684 -10.31300 -10.29874 -10.29382 -10.28592
 Alpha  occ. eigenvalues --  -10.28095 -10.28075 -10.27683 -10.27626 -10.27539
 Alpha  occ. eigenvalues --  -10.27390 -10.26544 -10.25673  -1.18817  -1.16173
 Alpha  occ. eigenvalues --   -1.13833  -1.12168  -1.11631  -1.11126  -1.10785
 Alpha  occ. eigenvalues --   -1.10704  -1.10315  -1.09569  -1.07878  -1.03271
 Alpha  occ. eigenvalues --   -1.01429  -1.01109  -1.00769  -0.99592  -0.99060
 Alpha  occ. eigenvalues --   -0.98412  -0.94989  -0.90483  -0.87844  -0.86850
 Alpha  occ. eigenvalues --   -0.86147  -0.84430  -0.83379  -0.82738  -0.81137
 Alpha  occ. eigenvalues --   -0.77797  -0.76673  -0.74923  -0.74154  -0.72711
 Alpha  occ. eigenvalues --   -0.71840  -0.71651  -0.71105  -0.69881  -0.69207
 Alpha  occ. eigenvalues --   -0.68664  -0.68342  -0.68094  -0.67582  -0.67440
 Alpha  occ. eigenvalues --   -0.67041  -0.64950  -0.64226  -0.63904  -0.62447
 Alpha  occ. eigenvalues --   -0.60991  -0.60726  -0.60213  -0.60032  -0.59812
 Alpha  occ. eigenvalues --   -0.59541  -0.59158  -0.58408  -0.57996  -0.57182
 Alpha  occ. eigenvalues --   -0.56863  -0.56049  -0.55834  -0.55583  -0.55000
 Alpha  occ. eigenvalues --   -0.54778  -0.54233  -0.53875  -0.53567  -0.53084
 Alpha  occ. eigenvalues --   -0.52985  -0.52016  -0.51705  -0.51425  -0.51198
 Alpha  occ. eigenvalues --   -0.50978  -0.50826  -0.50459  -0.50296  -0.49719
 Alpha  occ. eigenvalues --   -0.49614  -0.48997  -0.48702  -0.48172  -0.47911
 Alpha  occ. eigenvalues --   -0.47720  -0.47553  -0.46430  -0.46162  -0.45873
 Alpha  occ. eigenvalues --   -0.45608  -0.45339  -0.45015  -0.44699  -0.43631
 Alpha  occ. eigenvalues --   -0.43357  -0.43087  -0.42788  -0.42681  -0.42181
 Alpha  occ. eigenvalues --   -0.42118  -0.41748  -0.40098  -0.39905  -0.38356
 Alpha  occ. eigenvalues --   -0.37986  -0.37435  -0.36858  -0.36145  -0.36058
 Alpha  occ. eigenvalues --   -0.35334  -0.35090  -0.34842  -0.34628  -0.34224
 Alpha  occ. eigenvalues --   -0.34045  -0.33598  -0.33191  -0.32265  -0.30858
 Alpha  occ. eigenvalues --   -0.28781  -0.28415
 Alpha virt. eigenvalues --   -0.10951  -0.10065  -0.08958  -0.08423  -0.07579
 Alpha virt. eigenvalues --   -0.07387  -0.07056  -0.06562  -0.04884  -0.04013
 Alpha virt. eigenvalues --   -0.01778  -0.01335  -0.00662  -0.00178  -0.00005

 Mulliken charges:
               1
     1  N   -0.742718
     2  H    0.412090
     3  H    0.417241
     4  H    0.402187
     5  C   -0.126558
     6  H    0.222383
     7  C    0.637701
     8  C   -0.389628
     9  H    0.175253
    10  H    0.259041
    11  O   -0.537727
    12  C    0.131017
    13  C   -0.185925
    14  H    0.174449
    15  C   -0.234592
    16  H    0.137762
    17  C   -0.127047
    18  H    0.167537
    19  C   -0.124819
    20  H    0.153950
    21  C   -0.127148
    22  H    0.157160
    23  N   -0.591101
    24  H    0.402309
    25  C   -0.111173
    26  H    0.203290
    27  C    0.621602
    28  C   -0.049747
    29  H    0.176992
    30  H    0.144047
    31  O   -0.527874
    32  O   -0.679650
    33  H    0.462615
    34  N   -0.600390
    35  H    0.352393
    36  C   -0.016726
    37  H    0.176535
    38  C    0.626814
    39  C   -0.072957
    40  H    0.157878
    41  H    0.162920
    42  O   -0.570570
    43  O   -0.622382
    44  H    0.413415
    45  N   -0.572561
    46  H    0.357010
    47  C   -0.085352
    48  H    0.208916
    49  C    0.611933
    50  C   -0.389951
    51  H    0.185352
    52  H    0.260781
    53  O   -0.535842
    54  C    0.621350
    55  O   -0.528293
    56  O   -0.544076
    57  N   -0.573113
    58  H    0.335537
    59  C   -0.093023
    60  H    0.172485
    61  C    0.596468
    62  C   -0.297466
    63  H    0.164107
    64  H    0.165356
    65  O   -0.627281
    66  C   -0.267873
    67  H    0.157597
    68  H    0.157320
    69  C   -0.166445
    70  H    0.145256
    71  H    0.185935
    72  N   -0.605118
    73  H    0.413939
    74  N   -0.762921
    75  H    0.366276
    76  H    0.372648
    77  N   -0.778564
    78  H    0.412119
    79  H    0.349230
    80  C    0.776897
    81  O   -0.538411
    82  H    0.439929
 Sum of Mulliken charges =   1.00000

 Dipole moment (field-independent basis, Debye):
    X=             -3.3675    Y=             -1.6855    Z=             -0.3570  Tot=              3.7826
 Quadrupole moment (field-independent basis, Debye-Ang):
   XX=           -128.7005   YY=           -196.4529   ZZ=           -137.5319
   XY=            -34.6357   XZ=             89.9623   YZ=             21.6118

 Normal termination of Gaussian 16 at Mon May 16 14:27:44 2022.
