 Gaussian 16, Revision C.01,
 Gaussian 16:  ES64L-G16RevC.01  3-Jul-2019

 ----------------------------------------------------------------------
 # B3LYP/6-31G* empiricaldispersion=gd3 guess=read geom=check nosymm in
 tegral(ultrafinegrid)
 ----------------------------------------------------------------------

 ------------------------------------------------------
 Candidate Structure: Conf:304 Charge calc in gas phase
 ------------------------------------------------------
 Structure from the checkpoint file:  "conf-304.chk"
 Charge =  1 Multiplicity = 1

                          Input orientation:
 ---------------------------------------------------------------------
 Center     Atomic      Atomic             Coordinates (Angstroms)
 Number     Number       Type             X           Y           Z
 ---------------------------------------------------------------------
      1          7           0       -5.314179   -3.310537   -2.663521
      2          1           0       -5.775524   -3.929819   -3.335770
      3          1           0       -4.605077   -3.864733   -2.134557
      4          1           0       -6.025470   -2.911649   -2.023376
      5          6           0       -4.526787   -2.201315   -3.319171
      6          1           0       -4.934850   -2.039772   -4.318817
      7          6           0       -3.069206   -2.697616   -3.309498
      8          6           0       -4.617170   -0.906914   -2.451874
      9          1           0       -3.960667   -1.030814   -1.584344
     10          1           0       -4.216934   -0.084344   -3.053184
     11          8           0       -2.769969   -3.605057   -2.523025
     12          6           0       -6.030283   -0.636541   -1.991112
     13          6           0       -6.422552   -1.053396   -0.706078
     14          1           0       -5.677432   -1.469397   -0.028787
     15          6           0       -6.977622   -0.051802   -2.843412
     16          1           0       -6.680507    0.284483   -3.834549
     17          6           0       -7.745958   -0.882762   -0.284873
     18          1           0       -8.037982   -1.193880    0.713716
     19          6           0       -8.293235    0.123819   -2.416108
     20          1           0       -9.017003    0.592500   -3.076194
     21          6           0       -8.680042   -0.295797   -1.138957
     22          1           0       -9.705101   -0.155388   -0.809758
     23          7           0       -2.193973   -2.019803   -4.073682
     24          1           0       -2.540810   -1.180696   -4.530579
     25          6           0       -0.764182   -1.934397   -3.670812
     26          1           0       -0.448518   -2.940991   -3.392689
     27          6           0       -0.806219   -0.966011   -2.481180
     28          6           0        0.109699   -1.435108   -4.822762
     29          1           0        1.119276   -1.308816   -4.423638
     30          1           0       -0.241512   -0.444473   -5.150101
     31          8           0       -1.033682    0.230451   -2.659299
     32          8           0        0.184106   -2.376540   -5.872047
     33          1           0       -0.645146   -2.359437   -6.373200
     34          7           0       -0.804264   -1.555426   -1.259928
     35          1           0       -0.402015   -2.480420   -1.167654
     36          6           0       -1.129743   -0.815273   -0.039356
     37          1           0       -1.762237    0.019319   -0.356044
     38          6           0        0.171737   -0.271307    0.569126
     39          6           0       -1.930245   -1.725778    0.896719
     40          1           0       -2.289466   -1.149393    1.751552
     41          1           0       -1.290008   -2.528488    1.285146
     42          8           0        0.655706   -0.770712    1.600973
     43          8           0       -3.082558   -2.249043    0.230516
     44          1           0       -2.764257   -2.845396   -0.468911
     45          7           0        0.741408    0.682584   -0.169556
     46          1           0        0.242135    0.991515   -0.997598
     47          6           0        2.121260    1.108660   -0.006526
     48          1           0        2.709278    0.226140    0.268374
     49          6           0        2.267090    2.181401    1.098356
     50          6           0        2.667236    1.679600   -1.324346
     51          1           0        2.081206    2.555563   -1.634886
     52          1           0        3.694027    2.052450   -1.172334
     53          8           0        1.290653    2.812752    1.511060
     54          6           0        2.664003    0.681276   -2.458952
     55          8           0        2.203333   -0.449285   -2.421031
     56          8           0        3.236654    1.200375   -3.555878
     57          7           0        3.545278    2.329099    1.501778
     58          1           0        4.264046    1.887423    0.883866
     59          6           0        4.141352    3.655998    1.749451
     60          1           0        3.411687    4.423372    1.467572
     61          6           0        5.379104    3.734301    0.750775
     62          6           0        4.574762    3.904440    3.194494
     63          1           0        5.050652    4.888090    3.198497
     64          1           0        5.372867    3.195440    3.460891
     65          8           0        6.053754    4.762635    0.829475
     66          6           0        3.410846    3.835955    4.211100
     67          1           0        2.459458    3.844337    3.664744
     68          1           0        3.396963    4.724737    4.854033
     69          6           0        3.470617    2.625892    5.157738
     70          1           0        4.316509    2.727691    5.843559
     71          1           0        2.566544    2.547033    5.770179
     72          7           0        3.664950    1.326965    4.488753
     73          1           0        4.613493    1.116841    4.207375
     74          7           0        1.433353    1.084571    3.846282
     75          1           0        0.804074    0.525641    3.275911
     76          1           0        1.305917    2.079008    3.682888
     77          7           0        2.975609   -0.547179    3.296866
     78          1           0        3.899920   -0.947799    3.357149
     79          1           0        2.332132   -0.890874    2.585164
     80          6           0        2.709324    0.645941    3.852266
     81          8           0        5.511308    2.703455    0.009105
     82          1           0        3.249440    0.509482   -4.244428
 ---------------------------------------------------------------------

 SCF Done:  E(RB3LYP) =  -2166.34054491     A.U. after    1 cycles

 Alpha  occ. eigenvalues --  -19.30082 -19.27680 -19.27255 -19.25398 -19.24830
 Alpha  occ. eigenvalues --  -19.23525 -19.22752 -19.18156 -19.09730 -19.08253
 Alpha  occ. eigenvalues --  -14.61780 -14.53099 -14.49477 -14.47066 -14.46612
 Alpha  occ. eigenvalues --  -14.46299 -14.45485 -14.39077 -10.46794 -10.43021
 Alpha  occ. eigenvalues --  -10.42891 -10.42013 -10.40808 -10.40104 -10.36639
 Alpha  occ. eigenvalues --  -10.35203 -10.35175 -10.35116 -10.34681 -10.34660
 Alpha  occ. eigenvalues --  -10.33452 -10.31993 -10.31907 -10.31899 -10.31452
 Alpha  occ. eigenvalues --  -10.31397 -10.31126 -10.30884 -10.27886 -10.27202
 Alpha  occ. eigenvalues --  -10.24846 -10.24464 -10.22699  -1.22194  -1.18882
 Alpha  occ. eigenvalues --   -1.17057  -1.16136  -1.14755  -1.14094  -1.13019
 Alpha  occ. eigenvalues --   -1.11612  -1.09859  -1.09412  -1.09107  -1.05607
 Alpha  occ. eigenvalues --   -1.02958  -1.02482  -1.01163  -0.99352  -0.98959
 Alpha  occ. eigenvalues --   -0.96823  -0.95079  -0.93532  -0.90857  -0.88757
 Alpha  occ. eigenvalues --   -0.87427  -0.87029  -0.86241  -0.85398  -0.81012
 Alpha  occ. eigenvalues --   -0.79937  -0.78569  -0.77503  -0.76174  -0.75970
 Alpha  occ. eigenvalues --   -0.75140  -0.74848  -0.73883  -0.72951  -0.72155
 Alpha  occ. eigenvalues --   -0.71428  -0.71308  -0.69498  -0.69000  -0.68594
 Alpha  occ. eigenvalues --   -0.67776  -0.66261  -0.65639  -0.65220  -0.64215
 Alpha  occ. eigenvalues --   -0.63918  -0.62931  -0.62293  -0.62089  -0.61442
 Alpha  occ. eigenvalues --   -0.61141  -0.60383  -0.59986  -0.59887  -0.59670
 Alpha  occ. eigenvalues --   -0.59131  -0.58381  -0.57981  -0.57565  -0.57109
 Alpha  occ. eigenvalues --   -0.56506  -0.55922  -0.55573  -0.54848  -0.54736
 Alpha  occ. eigenvalues --   -0.54451  -0.54248  -0.53757  -0.53712  -0.53190
 Alpha  occ. eigenvalues --   -0.52933  -0.52274  -0.52063  -0.51872  -0.51466
 Alpha  occ. eigenvalues --   -0.51250  -0.50802  -0.50460  -0.50214  -0.49051
 Alpha  occ. eigenvalues --   -0.48851  -0.48737  -0.47968  -0.47286  -0.47047
 Alpha  occ. eigenvalues --   -0.46706  -0.46653  -0.45513  -0.45151  -0.44852
 Alpha  occ. eigenvalues --   -0.44618  -0.44115  -0.43734  -0.43375  -0.42381
 Alpha  occ. eigenvalues --   -0.41217  -0.40346  -0.40160  -0.39975  -0.39783
 Alpha  occ. eigenvalues --   -0.39304  -0.38916  -0.38203  -0.38140  -0.37907
 Alpha  occ. eigenvalues --   -0.37541  -0.37373  -0.37198  -0.36499  -0.36257
 Alpha  occ. eigenvalues --   -0.35573  -0.35507  -0.32191  -0.31063  -0.24692
 Alpha  occ. eigenvalues --   -0.24543  -0.22154
 Alpha virt. eigenvalues --   -0.16573  -0.13705  -0.13025  -0.11798  -0.11493
 Alpha virt. eigenvalues --   -0.09480  -0.08210  -0.07990  -0.07126  -0.06036
 Alpha virt. eigenvalues --   -0.05144  -0.04460  -0.03467  -0.03188  -0.02639

 Mulliken charges:
               1
     1  N   -0.745628
     2  H    0.419801
     3  H    0.425500
     4  H    0.411317
     5  C   -0.114937
     6  H    0.215213
     7  C    0.648929
     8  C   -0.411911
     9  H    0.227793
    10  H    0.203291
    11  O   -0.535972
    12  C    0.118303
    13  C   -0.248132
    14  H    0.185253
    15  C   -0.177673
    16  H    0.145711
    17  C   -0.120160
    18  H    0.171060
    19  C   -0.123236
    20  H    0.171600
    21  C   -0.122395
    22  H    0.173218
    23  N   -0.586681
    24  H    0.356907
    25  C   -0.089238
    26  H    0.202811
    27  C    0.656160
    28  C   -0.070785
    29  H    0.203445
    30  H    0.153105
    31  O   -0.549630
    32  O   -0.591783
    33  H    0.398103
    34  N   -0.604497
    35  H    0.354213
    36  C   -0.107623
    37  H    0.201167
    38  C    0.651784
    39  C   -0.062964
    40  H    0.186301
    41  H    0.166995
    42  O   -0.584315
    43  O   -0.641747
    44  H    0.414445
    45  N   -0.556340
    46  H    0.371943
    47  C   -0.052487
    48  H    0.170945
    49  C    0.581722
    50  C   -0.436154
    51  H    0.203119
    52  H    0.277888
    53  O   -0.558004
    54  C    0.594430
    55  O   -0.501551
    56  O   -0.536663
    57  N   -0.611385
    58  H    0.346633
    59  C   -0.099018
    60  H    0.160558
    61  C    0.591500
    62  C   -0.265140
    63  H    0.193508
    64  H    0.113677
    65  O   -0.548026
    66  C   -0.288053
    67  H    0.164909
    68  H    0.162191
    69  C   -0.181829
    70  H    0.182962
    71  H    0.181188
    72  N   -0.569015
    73  H    0.357572
    74  N   -0.749327
    75  H    0.377142
    76  H    0.391599
    77  N   -0.777030
    78  H    0.360629
    79  H    0.405660
    80  C    0.767644
    81  O   -0.619200
    82  H    0.418685
 Sum of Mulliken charges =   1.00000

 Dipole moment (field-independent basis, Debye):
    X=            -27.9164    Y=            -17.4380    Z=             -7.2213  Tot=             33.6980
 Quadrupole moment (field-independent basis, Debye-Ang):
   XX=           -151.5864   YY=           -252.9156   ZZ=           -148.0348
   XY=              3.3497   XZ=             96.7566   YZ=             36.8261

 Normal termination of Gaussian 16 at Mon May 16 14:27:51 2022.
