 Gaussian 16, Revision C.01,
 Gaussian 16:  ES64L-G16RevC.01  3-Jul-2019

 ----------------------------------------------------------------------
 # B3LYP/6-31G* empiricaldispersion=gd3 guess=read geom=check nosymm in
 tegral(ultrafinegrid)
 ----------------------------------------------------------------------

 ------------------------------------------------------
 Candidate Structure: Conf:962 Charge calc in gas phase
 ------------------------------------------------------
 Structure from the checkpoint file:  "conf-962.chk"
 Charge =  1 Multiplicity = 1

                          Input orientation:
 ---------------------------------------------------------------------
 Center     Atomic      Atomic             Coordinates (Angstroms)
 Number     Number       Type             X           Y           Z
 ---------------------------------------------------------------------
      1          7           0       -5.028435    1.126796   -3.773384
      2          1           0       -4.566423    2.036952   -3.855085
      3          1           0       -5.035383    0.679812   -4.726289
      4          1           0       -5.975713    1.265695   -3.389299
      5          6           0       -4.237123    0.145062   -2.941018
      6          1           0       -3.605894    0.713978   -2.255326
      7          6           0       -3.416116   -0.634381   -3.994571
      8          6           0       -5.203379   -0.777632   -2.161429
      9          1           0       -5.708893   -1.437928   -2.876154
     10          1           0       -4.586160   -1.415702   -1.520333
     11          8           0       -3.797559   -0.585008   -5.172622
     12          6           0       -6.207675    0.019020   -1.358246
     13          6           0       -5.828985    0.648633   -0.163672
     14          1           0       -4.825506    0.501230    0.230304
     15          6           0       -7.510245    0.210578   -1.846362
     16          1           0       -7.831280   -0.306826   -2.749418
     17          6           0       -6.735591    1.447453    0.531440
     18          1           0       -6.435161    1.919851    1.461958
     19          6           0       -8.417849    1.016850   -1.150892
     20          1           0       -9.426601    1.145809   -1.531627
     21          6           0       -8.030091    1.636740    0.036607
     22          1           0       -8.734366    2.257983    0.581416
     23          7           0       -2.391727   -1.338137   -3.529805
     24          1           0       -2.075171   -1.261856   -2.563122
     25          6           0       -1.423152   -2.025906   -4.374572
     26          1           0       -1.934506   -2.731145   -5.039396
     27          6           0       -0.463343   -2.722658   -3.402849
     28          6           0       -0.599940   -0.996590   -5.207374
     29          1           0       -1.295701   -0.447684   -5.848511
     30          1           0        0.093231   -1.549531   -5.857818
     31          8           0       -0.468907   -2.435637   -2.203141
     32          8           0        0.050126   -0.072777   -4.373953
     33          1           0        0.884954   -0.475772   -4.054894
     34          7           0        0.463424   -3.521179   -3.967116
     35          1           0        0.391148   -3.812821   -4.933641
     36          6           0        1.711178   -3.831137   -3.283331
     37          1           0        1.543544   -4.597403   -2.517754
     38          6           0        2.253836   -2.523956   -2.666437
     39          6           0        2.718568   -4.337608   -4.321145
     40          1           0        3.612346   -4.702722   -3.795812
     41          1           0        3.010763   -3.492476   -4.961540
     42          8           0        2.284222   -1.485813   -3.333640
     43          8           0        2.070981   -5.362643   -5.063146
     44          1           0        2.672555   -5.666669   -5.760000
     45          7           0        2.714355   -2.601927   -1.406868
     46          1           0        2.529054   -3.419813   -0.834901
     47          6           0        3.046320   -1.404941   -0.653789
     48          1           0        3.714739   -0.777357   -1.245936
     49          6           0        3.677757   -1.828241    0.674044
     50          6           0        1.741509   -0.597376   -0.321285
     51          1           0        1.414938   -0.094524   -1.234623
     52          1           0        0.969911   -1.298856   -0.000186
     53          8           0        3.234385   -2.832531    1.259350
     54          6           0        2.026180    0.388935    0.794816
     55          8           0        1.629491    0.231327    1.945487
     56          8           0        2.844559    1.353872    0.408103
     57          7           0        4.580544   -0.979416    1.198541
     58          1           0        4.801360   -0.113147    0.711332
     59          6           0        4.668406   -0.856396    2.654967
     60          1           0        3.718626   -1.238828    2.988181
     61          6           0        4.625267    0.642347    3.084964
     62          6           0        5.784119   -1.717550    3.281565
     63          1           0        6.756287   -1.252440    3.082005
     64          1           0        5.787092   -2.686607    2.764586
     65          8           0        4.455064    0.833158    4.313560
     66          6           0        5.625111   -1.922492    4.800826
     67          1           0        5.488378   -0.944328    5.264538
     68          1           0        6.557195   -2.334792    5.205546
     69          6           0        4.499167   -2.892989    5.243578
     70          1           0        4.862092   -3.924484    5.218733
     71          1           0        4.200073   -2.677843    6.273462
     72          7           0        3.273692   -2.913601    4.422718
     73          1           0        3.343767   -3.434167    3.552168
     74          7           0        2.453506   -0.846601    5.143931
     75          1           0        1.656564   -0.221680    5.092566
     76          1           0        3.354110   -0.313068    5.078571
     77          7           0        1.246085   -2.116442    3.604143
     78          1           0        1.247504   -2.956376    3.036696
     79          1           0        1.020289   -1.283704    3.051327
     80          6           0        2.338373   -1.953105    4.395330
     81          8           0        4.706869    1.506993    2.168733
     82          1           0        3.414772    1.661802    1.196772
 ---------------------------------------------------------------------

 SCF Done:  E(RB3LYP) =  -2166.38561041     A.U. after    1 cycles

 Alpha  occ. eigenvalues --  -19.26478 -19.24877 -19.23877 -19.23293 -19.22153
 Alpha  occ. eigenvalues --  -19.21693 -19.21114 -19.20807 -19.14454 -19.14360
 Alpha  occ. eigenvalues --  -14.59765 -14.49337 -14.46841 -14.46080 -14.45855
 Alpha  occ. eigenvalues --  -14.44685 -14.43714 -14.43111 -10.43352 -10.41278
 Alpha  occ. eigenvalues --  -10.40732 -10.40028 -10.39085 -10.38934 -10.37285
 Alpha  occ. eigenvalues --  -10.34653 -10.34325 -10.33835 -10.33803 -10.33127
 Alpha  occ. eigenvalues --  -10.32765 -10.32725 -10.32539 -10.31292 -10.30954
 Alpha  occ. eigenvalues --  -10.30633 -10.30528 -10.30338 -10.30245 -10.27815
 Alpha  occ. eigenvalues --  -10.27629 -10.24943 -10.24696  -1.18969  -1.16135
 Alpha  occ. eigenvalues --   -1.15596  -1.13850  -1.13451  -1.12186  -1.11924
 Alpha  occ. eigenvalues --   -1.10183  -1.10100  -1.07898  -1.07222  -1.05919
 Alpha  occ. eigenvalues --   -1.03340  -1.02325  -1.00217  -0.99677  -0.98949
 Alpha  occ. eigenvalues --   -0.98014  -0.97481  -0.93498  -0.89315  -0.87843
 Alpha  occ. eigenvalues --   -0.86483  -0.86186  -0.85493  -0.84344  -0.80900
 Alpha  occ. eigenvalues --   -0.79719  -0.77651  -0.76203  -0.74691  -0.73933
 Alpha  occ. eigenvalues --   -0.73504  -0.73432  -0.72008  -0.71776  -0.70946
 Alpha  occ. eigenvalues --   -0.70468  -0.69559  -0.68348  -0.67387  -0.66558
 Alpha  occ. eigenvalues --   -0.66432  -0.66119  -0.65271  -0.63867  -0.63137
 Alpha  occ. eigenvalues --   -0.63052  -0.62643  -0.61763  -0.61199  -0.59996
 Alpha  occ. eigenvalues --   -0.59872  -0.58694  -0.58503  -0.58125  -0.57773
 Alpha  occ. eigenvalues --   -0.57421  -0.57094  -0.57005  -0.56541  -0.56321
 Alpha  occ. eigenvalues --   -0.55705  -0.55524  -0.55054  -0.54238  -0.53754
 Alpha  occ. eigenvalues --   -0.53722  -0.53580  -0.53491  -0.52886  -0.52626
 Alpha  occ. eigenvalues --   -0.52015  -0.51866  -0.51437  -0.51190  -0.50919
 Alpha  occ. eigenvalues --   -0.50385  -0.50017  -0.49870  -0.49123  -0.48609
 Alpha  occ. eigenvalues --   -0.48420  -0.47823  -0.47664  -0.47363  -0.46553
 Alpha  occ. eigenvalues --   -0.46093  -0.46059  -0.45786  -0.45614  -0.45304
 Alpha  occ. eigenvalues --   -0.44497  -0.43895  -0.43512  -0.42172  -0.42026
 Alpha  occ. eigenvalues --   -0.41572  -0.40937  -0.40634  -0.39606  -0.39533
 Alpha  occ. eigenvalues --   -0.38175  -0.37542  -0.37431  -0.37162  -0.37038
 Alpha  occ. eigenvalues --   -0.37018  -0.36553  -0.36519  -0.35331  -0.35068
 Alpha  occ. eigenvalues --   -0.34857  -0.34358  -0.34223  -0.33575  -0.30157
 Alpha  occ. eigenvalues --   -0.28805  -0.28249
 Alpha virt. eigenvalues --   -0.13387  -0.12652  -0.11197  -0.09889  -0.09832
 Alpha virt. eigenvalues --   -0.08548  -0.08243  -0.06835  -0.06270  -0.04927
 Alpha virt. eigenvalues --   -0.02827  -0.02227  -0.02077  -0.01451  -0.01358

 Mulliken charges:
               1
     1  N   -0.748564
     2  H    0.419372
     3  H    0.425861
     4  H    0.405591
     5  C   -0.117312
     6  H    0.216904
     7  C    0.668745
     8  C   -0.380481
     9  H    0.194270
    10  H    0.206142
    11  O   -0.543156
    12  C    0.138042
    13  C   -0.180749
    14  H    0.145843
    15  C   -0.231464
    16  H    0.152202
    17  C   -0.122219
    18  H    0.168929
    19  C   -0.119685
    20  H    0.168849
    21  C   -0.123939
    22  H    0.170767
    23  N   -0.600566
    24  H    0.371283
    25  C   -0.067139
    26  H    0.188131
    27  C    0.622333
    28  C   -0.049693
    29  H    0.179958
    30  H    0.142551
    31  O   -0.543770
    32  O   -0.652872
    33  H    0.456775
    34  N   -0.605625
    35  H    0.358608
    36  C   -0.018820
    37  H    0.175942
    38  C    0.649459
    39  C   -0.070876
    40  H    0.163760
    41  H    0.166528
    42  O   -0.566032
    43  O   -0.624719
    44  H    0.417923
    45  N   -0.603849
    46  H    0.353273
    47  C   -0.032550
    48  H    0.201114
    49  C    0.580531
    50  C   -0.327206
    51  H    0.198927
    52  H    0.167545
    53  O   -0.587752
    54  C    0.574826
    55  O   -0.510175
    56  O   -0.580078
    57  N   -0.583134
    58  H    0.355557
    59  C   -0.077322
    60  H    0.147144
    61  C    0.629968
    62  C   -0.265327
    63  H    0.165972
    64  H    0.140232
    65  O   -0.565480
    66  C   -0.304079
    67  H    0.201799
    68  H    0.156138
    69  C   -0.159001
    70  H    0.170576
    71  H    0.191774
    72  N   -0.556999
    73  H    0.369665
    74  N   -0.730343
    75  H    0.357863
    76  H    0.418962
    77  N   -0.734628
    78  H    0.349318
    79  H    0.389042
    80  C    0.640293
    81  O   -0.614046
    82  H    0.464359
 Sum of Mulliken charges =   1.00000

 Dipole moment (field-independent basis, Debye):
    X=            -16.7628    Y=             -8.8949    Z=            -11.7625  Tot=             22.3264
 Quadrupole moment (field-independent basis, Debye-Ang):
   XX=           -116.7436   YY=           -210.0060   ZZ=           -171.1605
   XY=            -73.9630   XZ=             38.0077   YZ=             -2.8782

 Normal termination of Gaussian 16 at Mon May 16 14:27:47 2022.
