 Gaussian 16, Revision C.01,
 Gaussian 16:  ES64L-G16RevC.01  3-Jul-2019

 ----------------------------------------------------------------------
 # B3LYP/6-31G* empiricaldispersion=gd3 guess=read geom=check nosymm in
 tegral(ultrafinegrid)
 ----------------------------------------------------------------------

 ------------------------------------------------------
 Candidate Structure: Conf:669 Charge calc in gas phase
 ------------------------------------------------------
 Structure from the checkpoint file:  "conf-669.chk"
 Charge =  1 Multiplicity = 1

                          Input orientation:
 ---------------------------------------------------------------------
 Center     Atomic      Atomic             Coordinates (Angstroms)
 Number     Number       Type             X           Y           Z
 ---------------------------------------------------------------------
      1          7           0       -5.765841    0.045094   -4.337473
      2          1           0       -6.015040    0.333477   -5.286068
      3          1           0       -5.584525   -0.996398   -4.316859
      4          1           0       -6.530578    0.264797   -3.677912
      5          6           0       -4.447847    0.606999   -3.855670
      6          1           0       -4.131078    1.390355   -4.547470
      7          6           0       -3.499779   -0.609172   -3.927939
      8          6           0       -4.568487    1.168004   -2.397610
      9          1           0       -3.596932    1.028097   -1.913355
     10          1           0       -4.766389    2.242433   -2.460917
     11          8           0       -3.996960   -1.736315   -4.031642
     12          6           0       -5.661468    0.483908   -1.603208
     13          6           0       -6.944268    1.058352   -1.548960
     14          1           0       -7.113541    2.043549   -1.982160
     15          6           0       -5.444083   -0.762987   -0.997864
     16          1           0       -4.451715   -1.201112   -1.020600
     17          6           0       -7.993140    0.398830   -0.900227
     18          1           0       -8.975155    0.860379   -0.852688
     19          6           0       -6.493089   -1.413806   -0.347686
     20          1           0       -6.313703   -2.373161    0.129124
     21          6           0       -7.767546   -0.841119   -0.301720
     22          1           0       -8.577901   -1.354628    0.207229
     23          7           0       -2.195546   -0.331544   -3.862973
     24          1           0       -1.896021    0.613792   -3.624089
     25          6           0       -1.218523   -1.318729   -3.431893
     26          1           0       -1.215621   -2.175882   -4.112293
     27          6           0       -1.548923   -1.760136   -1.991647
     28          6           0        0.162974   -0.603456   -3.444651
     29          1           0        0.479483   -0.466136   -4.482577
     30          1           0        0.894952   -1.219466   -2.915220
     31          8           0       -2.247035   -1.056862   -1.265332
     32          8           0        0.058469    0.698705   -2.886330
     33          1           0       -0.144538    0.642014   -1.918448
     34          7           0       -0.955707   -2.912832   -1.578746
     35          1           0       -0.256408   -3.321372   -2.189999
     36          6           0       -0.620300   -3.063938   -0.168079
     37          1           0       -1.469477   -2.706351    0.419858
     38          6           0        0.612188   -2.170290    0.124611
     39          6           0       -0.357102   -4.533723    0.148895
     40          1           0       -1.283051   -5.103277   -0.019810
     41          1           0       -0.079519   -4.632067    1.209736
     42          8           0        1.331803   -1.760902   -0.786764
     43          8           0        0.687527   -4.955900   -0.716451
     44          1           0        0.840571   -5.903807   -0.587506
     45          7           0        0.804238   -1.837583    1.413982
     46          1           0        0.283785   -2.249741    2.183949
     47          6           0        1.882616   -0.968290    1.839600
     48          1           0        2.766890   -1.171470    1.226742
     49          6           0        2.144902   -1.291036    3.328294
     50          6           0        1.508950    0.537515    1.704091
     51          1           0        0.659844    0.752059    2.357073
     52          1           0        2.364661    1.148623    2.004908
     53          8           0        1.331724   -1.965746    3.966495
     54          6           0        1.106428    0.870023    0.288394
     55          8           0       -0.053438    0.848274   -0.099629
     56          8           0        2.147434    1.148599   -0.505215
     57          7           0        3.257266   -0.747870    3.841450
     58          1           0        3.925652   -0.230089    3.275856
     59          6           0        3.623930   -0.796800    5.256531
     60          1           0        2.721692   -0.698209    5.864966
     61          6           0        4.584897    0.397198    5.490553
     62          6           0        4.330087   -2.141092    5.551796
     63          1           0        5.262216   -2.152783    4.971909
     64          1           0        3.691136   -2.933776    5.145581
     65          8           0        4.545162    0.913764    6.655647
     66          6           0        4.613135   -2.496647    7.022698
     67          1           0        4.974219   -3.535212    7.050688
     68          1           0        3.674433   -2.488527    7.590833
     69          6           0        5.599809   -1.603866    7.791383
     70          1           0        5.146649   -0.632186    7.967914
     71          1           0        5.845147   -2.063504    8.756955
     72          7           0        6.852410   -1.402271    7.040651
     73          1           0        7.260010   -2.232579    6.629544
     74          7           0        7.060001    0.909304    7.267149
     75          1           0        7.671431    1.705944    7.142494
     76          1           0        6.005474    1.084256    7.083694
     77          7           0        8.834029   -0.348540    6.427462
     78          1           0        9.180724   -1.251128    6.128030
     79          1           0        9.146388    0.419261    5.845366
     80          6           0        7.551772   -0.266718    6.900817
     81          8           0        5.358043    0.679572    4.553699
     82          1           0        1.818648    1.226764   -1.423482
 ---------------------------------------------------------------------

 SCF Done:  E(RB3LYP) =  -2166.38768364     A.U. after    1 cycles

 Alpha  occ. eigenvalues --  -19.26418 -19.25433 -19.23503 -19.23169 -19.21433
 Alpha  occ. eigenvalues --  -19.21391 -19.18997 -19.17702 -19.13750 -19.13152
 Alpha  occ. eigenvalues --  -14.57728 -14.47619 -14.46039 -14.45862 -14.44478
 Alpha  occ. eigenvalues --  -14.43081 -14.42047 -14.41121 -10.41861 -10.41131
 Alpha  occ. eigenvalues --  -10.39555 -10.39075 -10.38036 -10.36250 -10.34855
 Alpha  occ. eigenvalues --  -10.33346 -10.32304 -10.32290 -10.31822 -10.31560
 Alpha  occ. eigenvalues --  -10.31298 -10.31083 -10.30332 -10.29378 -10.28844
 Alpha  occ. eigenvalues --  -10.28827 -10.28442 -10.28383 -10.28088 -10.27285
 Alpha  occ. eigenvalues --  -10.26649 -10.25350 -10.24206  -1.17735  -1.17683
 Alpha  occ. eigenvalues --   -1.13445  -1.11952  -1.11307  -1.10585  -1.10328
 Alpha  occ. eigenvalues --   -1.09718  -1.09416  -1.08550  -1.06841  -1.04500
 Alpha  occ. eigenvalues --   -1.01197  -0.99783  -0.99554  -0.98807  -0.97263
 Alpha  occ. eigenvalues --   -0.96703  -0.95795  -0.91354  -0.87588  -0.86441
 Alpha  occ. eigenvalues --   -0.85396  -0.84583  -0.84059  -0.82919  -0.80059
 Alpha  occ. eigenvalues --   -0.77769  -0.76713  -0.74228  -0.73550  -0.72476
 Alpha  occ. eigenvalues --   -0.72174  -0.71299  -0.71117  -0.70397  -0.69781
 Alpha  occ. eigenvalues --   -0.68260  -0.67846  -0.67447  -0.67086  -0.66137
 Alpha  occ. eigenvalues --   -0.65444  -0.64637  -0.63603  -0.62567  -0.62351
 Alpha  occ. eigenvalues --   -0.61668  -0.60801  -0.60270  -0.59983  -0.59517
 Alpha  occ. eigenvalues --   -0.58508  -0.57790  -0.57120  -0.57013  -0.56398
 Alpha  occ. eigenvalues --   -0.56066  -0.55468  -0.55131  -0.54959  -0.54714
 Alpha  occ. eigenvalues --   -0.54488  -0.53738  -0.53463  -0.52893  -0.52713
 Alpha  occ. eigenvalues --   -0.52514  -0.52080  -0.51874  -0.51270  -0.50968
 Alpha  occ. eigenvalues --   -0.50689  -0.50229  -0.50107  -0.49632  -0.49398
 Alpha  occ. eigenvalues --   -0.49012  -0.48721  -0.48295  -0.48100  -0.47912
 Alpha  occ. eigenvalues --   -0.47500  -0.46474  -0.46332  -0.45770  -0.45740
 Alpha  occ. eigenvalues --   -0.45435  -0.44476  -0.44241  -0.43836  -0.43398
 Alpha  occ. eigenvalues --   -0.43272  -0.42737  -0.42366  -0.42306  -0.41999
 Alpha  occ. eigenvalues --   -0.41161  -0.39839  -0.39830  -0.38789  -0.38571
 Alpha  occ. eigenvalues --   -0.38497  -0.37069  -0.36449  -0.35950  -0.35449
 Alpha  occ. eigenvalues --   -0.35294  -0.35041  -0.34570  -0.34496  -0.34037
 Alpha  occ. eigenvalues --   -0.33386  -0.32536  -0.31718  -0.31340  -0.29173
 Alpha  occ. eigenvalues --   -0.27974  -0.27352
 Alpha virt. eigenvalues --   -0.11526  -0.10825  -0.10026  -0.08201  -0.07874
 Alpha virt. eigenvalues --   -0.07130  -0.06283  -0.05302  -0.03256  -0.03103
 Alpha virt. eigenvalues --   -0.02831  -0.00998  -0.00912  -0.00526   0.00259

 Mulliken charges:
               1
     1  N   -0.761180
     2  H    0.407200
     3  H    0.429976
     4  H    0.405267
     5  C   -0.109722
     6  H    0.211107
     7  C    0.659898
     8  C   -0.384156
     9  H    0.237418
    10  H    0.182730
    11  O   -0.535220
    12  C    0.085080
    13  C   -0.228790
    14  H    0.145057
    15  C   -0.174021
    16  H    0.202193
    17  C   -0.120011
    18  H    0.160359
    19  C   -0.129823
    20  H    0.158621
    21  C   -0.124984
    22  H    0.161537
    23  N   -0.581336
    24  H    0.365152
    25  C   -0.107838
    26  H    0.191625
    27  C    0.637427
    28  C   -0.079684
    29  H    0.171831
    30  H    0.208061
    31  O   -0.524612
    32  O   -0.677000
    33  H    0.447769
    34  N   -0.577763
    35  H    0.356989
    36  C   -0.104493
    37  H    0.197255
    38  C    0.660160
    39  C   -0.039162
    40  H    0.152477
    41  H    0.151417
    42  O   -0.551139
    43  O   -0.620842
    44  H    0.413125
    45  N   -0.612367
    46  H    0.356897
    47  C   -0.068714
    48  H    0.199282
    49  C    0.625876
    50  C   -0.324904
    51  H    0.190208
    52  H    0.192970
    53  O   -0.550774
    54  C    0.607536
    55  O   -0.496590
    56  O   -0.553128
    57  N   -0.613960
    58  H    0.350502
    59  C   -0.018172
    60  H    0.166730
    61  C    0.583782
    62  C   -0.262306
    63  H    0.128692
    64  H    0.163782
    65  O   -0.621709
    66  C   -0.297214
    67  H    0.137770
    68  H    0.169901
    69  C   -0.155316
    70  H    0.231400
    71  H    0.165580
    72  N   -0.592489
    73  H    0.337508
    74  N   -0.749110
    75  H    0.343084
    76  H    0.432278
    77  N   -0.751639
    78  H    0.350279
    79  H    0.365344
    80  C    0.763809
    81  O   -0.584354
    82  H    0.421584
 Sum of Mulliken charges =   1.00000

 Dipole moment (field-independent basis, Debye):
    X=             -5.3316    Y=             -6.0911    Z=             -5.5362  Tot=              9.8070
 Quadrupole moment (field-independent basis, Debye-Ang):
   XX=             -1.6254   YY=           -207.5540   ZZ=           -134.9806
   XY=            -32.4946   XZ=            153.4849   YZ=            -34.5706

 Normal termination of Gaussian 16 at Mon May 16 14:27:39 2022.
