 Gaussian 16, Revision C.01,
 Gaussian 16:  ES64L-G16RevC.01  3-Jul-2019

 ----------------------------------------------------------------------
 # B3LYP/6-31G* empiricaldispersion=gd3bj guess=read geom=check nosymm
 integral(ultrafinegrid)
 ----------------------------------------------------------------------

 ------------------------------------------------------
 Candidate Structure: Conf:538 Charge calc in gas phase
 ------------------------------------------------------
 Structure from the checkpoint file:  "conf-538.chk"
 Charge =  1 Multiplicity = 1

                          Input orientation:
 ---------------------------------------------------------------------
 Center     Atomic      Atomic             Coordinates (Angstroms)
 Number     Number       Type             X           Y           Z
 ---------------------------------------------------------------------
      1          7           0       -4.401699    9.696544   -5.880804
      2          6           0       -3.403854    8.894252   -6.623507
      3          6           0       -2.013790    9.347270   -6.155946
      4          8           0       -1.884178   10.139570   -5.229419
      5          6           0       -3.660894    9.010722   -8.140437
      6          6           0       -5.015538    8.443990   -8.504967
      7          6           0       -5.188401    7.060732   -8.646879
      8          6           0       -6.128514    9.282936   -8.648739
      9          6           0       -6.443373    6.523457   -8.927654
     10          6           0       -7.386764    8.744435   -8.928167
     11          6           0       -7.548258    7.366131   -9.067403
     12          1           0       -4.231398    9.587239   -4.880782
     13          1           0       -3.506626    7.834621   -6.343865
     14          1           0       -2.878690    8.456914   -8.671994
     15          1           0       -3.569793   10.058313   -8.435182
     16          1           0       -4.330181    6.399158   -8.546601
     17          1           0       -5.996930   10.356489   -8.551200
     18          1           0       -6.558780    5.449746   -9.043227
     19          1           0       -8.241234    9.405272   -9.046498
     20          1           0       -8.526078    6.949479   -9.289951
     21          1           0       -5.333582    9.342142   -6.099759
     22          7           0       -0.950839    8.790304   -6.798227
     23          6           0        0.424047    9.024350   -6.345009
     24          6           0        0.740432   10.527173   -6.305045
     25          8           0        1.434454   11.017386   -5.427925
     26          6           0        1.388426    8.256742   -7.262769
     27          6           0        2.882922    8.458258   -6.957571
     28          6           0        3.236118    8.095426   -5.509698
     29          6           0        3.718936    7.645376   -7.953517
     30          1           0       -1.105315    8.080907   -7.501337
     31          1           0        0.525812    8.686544   -5.310445
     32          1           0        1.150382    7.185533   -7.186138
     33          1           0        1.190686    8.555698   -8.301626
     34          1           0        3.115511    9.521433   -7.104137
     35          1           0        2.922753    7.069798   -5.273928
     36          1           0        4.318975    8.153171   -5.355667
     37          1           0        2.764206    8.780195   -4.799924
     38          1           0        3.482604    7.910582   -8.990911
     39          1           0        4.788531    7.819911   -7.796685
     40          1           0        3.536956    6.570037   -7.831949
     41          7           0        0.220329   11.251264   -7.346869
     42          6           0       -0.091097   12.650131   -7.124453
     43          6           0       -1.569060   12.818494   -7.518331
     44          8           0       -2.176313   11.918568   -8.111219
     45          6           0        0.876413   13.593123   -7.872090
     46          6           0        0.978941   14.976417   -7.238845
     47          7           0        2.150601   15.620886   -7.441514
     48          8           0        0.060258   15.499410   -6.600203
     49          1           0       -0.499182   10.786440   -7.894215
     50          1           0        0.006506   12.847811   -6.051924
     51          1           0        1.858056   13.110388   -7.872295
     52          1           0        0.578876   13.707088   -8.922626
     53          1           0        2.278938   16.530782   -7.019309
     54          1           0        2.949080   15.169916   -7.862150
     55          7           0       -2.163009   13.958240   -7.133167
     56          6           0       -3.591568   14.170745   -7.299632
     57          6           0       -4.325925   12.815208   -7.209599
     58          8           0       -5.112447   12.426766   -8.070961
     59          6           0       -3.959120   14.980899   -8.559027
     60          6           0       -5.142543   15.952786   -8.387226
     61          6           0       -6.552060   15.347160   -8.322572
     62          7           0       -6.769602   14.446420   -7.175622
     63          6           0       -6.788139   14.808215   -5.893619
     64          7           0       -7.224562   16.029258   -5.538809
     65          7           0       -6.379997   13.944663   -4.951098
     66          8           0       -4.172809   12.242536   -6.030128
     67          1           0       -4.319350   11.147332   -6.055523
     68          1           0       -1.561517   14.683440   -6.729085
     69          1           0       -3.903933   14.733761   -6.409358
     70          1           0       -4.136792   14.290430   -9.389286
     71          1           0       -3.083372   15.583449   -8.819428
     72          1           0       -4.978211   16.573255   -7.494987
     73          1           0       -5.148495   16.644119   -9.238464
     74          1           0       -7.306815   16.140607   -8.314353
     75          1           0       -6.749065   14.736358   -9.205847
     76          1           0       -6.506015   13.480615   -7.370642
     77          1           0       -7.122108   16.369835   -4.594494
     78          1           0       -7.766305   16.588566   -6.180886
     79          1           0       -6.560481   14.128004   -3.974279
     80          1           0       -5.696749   13.215758   -5.178945
 ---------------------------------------------------------------------

 SCF Done:  E(RB3LYP) =  -1866.80936016     A.U. after    1 cycles

 Alpha  occ. eigenvalues --  -19.25471 -19.22917 -19.21035 -19.20983 -19.20270
 Alpha  occ. eigenvalues --  -19.18214 -14.52253 -14.51001 -14.50334 -14.45373
 Alpha  occ. eigenvalues --  -14.44792 -14.44659 -14.44307 -14.41866 -10.47821
 Alpha  occ. eigenvalues --  -10.41517 -10.38446 -10.37535 -10.37415 -10.35215
 Alpha  occ. eigenvalues --  -10.35165 -10.33534 -10.32659 -10.31449 -10.30511
 Alpha  occ. eigenvalues --  -10.30206 -10.28555 -10.28514 -10.27481 -10.27041
 Alpha  occ. eigenvalues --  -10.26241 -10.26137 -10.26034 -10.25994 -10.25828
 Alpha  occ. eigenvalues --  -10.25638 -10.25027 -10.22910 -10.22262  -1.18060
 Alpha  occ. eigenvalues --   -1.16216  -1.13087  -1.12505  -1.12366  -1.10048
 Alpha  occ. eigenvalues --   -1.09268  -1.05342  -1.04484  -1.01669  -1.01390
 Alpha  occ. eigenvalues --   -1.01102  -0.99459  -0.99077  -0.92711  -0.90798
 Alpha  occ. eigenvalues --   -0.88324  -0.86906  -0.86214  -0.84956  -0.82319
 Alpha  occ. eigenvalues --   -0.81426  -0.80741  -0.79499  -0.77674  -0.75948
 Alpha  occ. eigenvalues --   -0.73712  -0.73646  -0.73570  -0.72718  -0.71803
 Alpha  occ. eigenvalues --   -0.69742  -0.68756  -0.67768  -0.67535  -0.67241
 Alpha  occ. eigenvalues --   -0.65708  -0.65685  -0.65261  -0.64864  -0.64418
 Alpha  occ. eigenvalues --   -0.63534  -0.62495  -0.62419  -0.61576  -0.60762
 Alpha  occ. eigenvalues --   -0.59999  -0.58943  -0.58794  -0.57829  -0.57642
 Alpha  occ. eigenvalues --   -0.57202  -0.56155  -0.55947  -0.55354  -0.55106
 Alpha  occ. eigenvalues --   -0.54188  -0.54039  -0.53455  -0.52971  -0.52480
 Alpha  occ. eigenvalues --   -0.52268  -0.52102  -0.51308  -0.50704  -0.50510
 Alpha  occ. eigenvalues --   -0.50379  -0.49589  -0.49297  -0.48839  -0.48799
 Alpha  occ. eigenvalues --   -0.48381  -0.47802  -0.47689  -0.47254  -0.46949
 Alpha  occ. eigenvalues --   -0.46613  -0.46387  -0.46046  -0.45068  -0.44792
 Alpha  occ. eigenvalues --   -0.44725  -0.44485  -0.44123  -0.43369  -0.43076
 Alpha  occ. eigenvalues --   -0.42717  -0.42651  -0.41698  -0.41311  -0.41040
 Alpha  occ. eigenvalues --   -0.40140  -0.39414  -0.39030  -0.38502  -0.38257
 Alpha  occ. eigenvalues --   -0.37753  -0.36785  -0.36085  -0.35559  -0.35023
 Alpha  occ. eigenvalues --   -0.34671  -0.34382  -0.33999  -0.32516  -0.32130
 Alpha  occ. eigenvalues --   -0.31510  -0.31216
 Alpha virt. eigenvalues --   -0.12619  -0.09766  -0.08009  -0.07850  -0.07282
 Alpha virt. eigenvalues --   -0.06807  -0.06395  -0.05623  -0.04631  -0.04619
 Alpha virt. eigenvalues --   -0.01810  -0.01602  -0.00382  -0.00318   0.00092

 Mulliken charges:
               1
     1  N   -0.798620
     2  C   -0.083070
     3  C    0.653749
     4  O   -0.522778
     5  C   -0.386280
     6  C    0.137792
     7  C   -0.180264
     8  C   -0.216607
     9  C   -0.127246
    10  C   -0.134763
    11  C   -0.127641
    12  H    0.356446
    13  H    0.171895
    14  H    0.146666
    15  H    0.224580
    16  H    0.123865
    17  H    0.172141
    18  H    0.146553
    19  H    0.133262
    20  H    0.145299
    21  H    0.351256
    22  N   -0.660705
    23  C   -0.010554
    24  C    0.620331
    25  O   -0.517183
    26  C   -0.306322
    27  C   -0.076911
    28  C   -0.461131
    29  C   -0.445216
    30  H    0.337857
    31  H    0.191821
    32  H    0.144071
    33  H    0.140873
    34  H    0.144188
    35  H    0.135565
    36  H    0.151932
    37  H    0.176785
    38  H    0.140184
    39  H    0.154948
    40  H    0.144750
    41  N   -0.609770
    42  C   -0.057173
    43  C    0.628048
    44  O   -0.558066
    45  C   -0.378783
    46  C    0.630931
    47  N   -0.735977
    48  O   -0.539188
    49  H    0.355789
    50  H    0.213276
    51  H    0.190154
    52  H    0.189776
    53  H    0.359163
    54  H    0.356378
    55  N   -0.627577
    56  C    0.014579
    57  C    0.587351
    58  O   -0.518654
    59  C   -0.275431
    60  C   -0.287633
    61  C   -0.167993
    62  N   -0.595141
    63  C    0.779889
    64  N   -0.753046
    65  N   -0.778800
    66  O   -0.622606
    67  H    0.489412
    68  H    0.392517
    69  H    0.143386
    70  H    0.188618
    71  H    0.167150
    72  H    0.147150
    73  H    0.175523
    74  H    0.164241
    75  H    0.206016
    76  H    0.391989
    77  H    0.379511
    78  H    0.385912
    79  H    0.369230
    80  H    0.408333
 Sum of Mulliken charges =   1.00000

 Dipole moment (field-independent basis, Debye):
    X=            -22.8118    Y=             65.2644    Z=            -32.7767  Tot=             76.5123
 Quadrupole moment (field-independent basis, Debye-Ang):
   XX=            -38.1515   YY=            743.0900   ZZ=              5.7324
   XY=           -325.6616   XZ=            122.3782   YZ=           -437.8514

 Normal termination of Gaussian 16 at Sat Jul 16 16:54:25 2022.
