 Gaussian 16, Revision C.01,
 Gaussian 16:  ES64L-G16RevC.01  3-Jul-2019

 ----------------------------------------------------------------------
 # B3LYP/6-31G* empiricaldispersion=gd3bj guess=read geom=check nosymm
 integral(ultrafinegrid)
 ----------------------------------------------------------------------

 ------------------------------------------------------
 Candidate Structure: Conf:399 Charge calc in gas phase
 ------------------------------------------------------
 Structure from the checkpoint file:  "conf-399.chk"
 Charge =  1 Multiplicity = 1

                          Input orientation:
 ---------------------------------------------------------------------
 Center     Atomic      Atomic             Coordinates (Angstroms)
 Number     Number       Type             X           Y           Z
 ---------------------------------------------------------------------
      1          7           0       -4.707707   10.010803   -5.501992
      2          6           0       -3.393787    9.819022   -4.805902
      3          6           0       -2.991501   11.224927   -4.322975
      4          8           0       -3.827036   12.125543   -4.337364
      5          6           0       -2.409785    9.086638   -5.733522
      6          6           0       -2.930976    7.709443   -6.086763
      7          6           0       -2.708031    6.632621   -5.218164
      8          6           0       -3.697214    7.502560   -7.241992
      9          6           0       -3.235183    5.372322   -5.494686
     10          6           0       -4.228461    6.239697   -7.515297
     11          6           0       -4.000495    5.173491   -6.645660
     12          1           0       -5.256150   10.689477   -4.959047
     13          1           0       -3.589195    9.199231   -3.922548
     14          1           0       -1.454633    8.987215   -5.205598
     15          1           0       -2.222624    9.703288   -6.617599
     16          1           0       -2.107317    6.779742   -4.322851
     17          1           0       -3.878677    8.318109   -7.937533
     18          1           0       -3.045461    4.546131   -4.815995
     19          1           0       -4.817245    6.091737   -8.416199
     20          1           0       -4.410918    4.192087   -6.863545
     21          1           0       -5.197904    9.120641   -5.611064
     22          7           0       -1.733961   11.386119   -3.858379
     23          6           0       -1.258514   12.703061   -3.408953
     24          6           0       -1.430921   13.744692   -4.531962
     25          8           0       -1.837090   14.876115   -4.310083
     26          6           0        0.197505   12.578001   -2.940163
     27          6           0        0.857720   13.905697   -2.528274
     28          6           0        0.066744   14.633518   -1.433910
     29          6           0        2.302476   13.640954   -2.088194
     30          1           0       -1.076979   10.618914   -3.890960
     31          1           0       -1.901235   13.045242   -2.595594
     32          1           0        0.225984   11.882051   -2.089671
     33          1           0        0.789076   12.123235   -3.747989
     34          1           0        0.884455   14.554615   -3.414138
     35          1           0        0.613184   15.520171   -1.095250
     36          1           0       -0.909170   14.966002   -1.798441
     37          1           0       -0.084218   13.984829   -0.561056
     38          1           0        2.813751   14.579262   -1.849318
     39          1           0        2.329153   13.010519   -1.190460
     40          1           0        2.877527   13.134139   -2.872248
     41          7           0       -1.077408   13.299553   -5.770623
     42          6           0       -1.723157   13.846574   -6.947680
     43          6           0       -1.856552   12.661543   -7.924247
     44          8           0       -1.365936   11.559212   -7.647700
     45          6           0       -0.985229   15.084029   -7.501222
     46          6           0       -1.910140   16.033300   -8.253560
     47          7           0       -1.552077   17.338353   -8.222453
     48          8           0       -2.906653   15.653126   -8.874616
     49          1           0       -0.869644   12.311871   -5.891387
     50          1           0       -2.739738   14.155543   -6.675065
     51          1           0       -0.540808   15.600961   -6.646801
     52          1           0       -0.164755   14.788214   -8.167018
     53          1           0       -2.158661   18.011284   -8.671733
     54          1           0       -0.832516   17.681791   -7.604228
     55          7           0       -2.563834   12.898955   -9.043848
     56          6           0       -3.136170   11.783956   -9.776172
     57          6           0       -4.064560   10.934170   -8.854961
     58          8           0       -4.599617    9.897935   -9.366899
     59          6           0       -2.043654   10.942830  -10.507944
     60          6           0       -2.113465   10.994190  -12.049083
     61          6           0       -2.978451    9.892442  -12.680528
     62          7           0       -4.273469    9.777699  -12.012012
     63          6           0       -5.457778   10.183468  -12.439845
     64          7           0       -5.743373   10.363985  -13.744704
     65          7           0       -6.418439   10.422284  -11.523258
     66          8           0       -4.247862   11.338151   -7.684039
     67          1           0       -4.576304   10.473546   -6.487434
     68          1           0       -2.970058   13.835513   -9.123569
     69          1           0       -3.797475   12.229142  -10.528708
     70          1           0       -2.070666    9.904449  -10.159610
     71          1           0       -1.078109   11.333409  -10.187640
     72          1           0       -2.478997   11.977970  -12.369820
     73          1           0       -1.106953   10.885141  -12.469077
     74          1           0       -3.114330   10.076055  -13.750414
     75          1           0       -2.479485    8.922512  -12.584492
     76          1           0       -4.241534    9.656894  -10.971669
     77          1           0       -6.547720   10.906644  -14.021251
     78          1           0       -5.070323   10.133401  -14.458528
     79          1           0       -7.390872   10.325629  -11.778557
     80          1           0       -6.156693   10.270965  -10.546051
 ---------------------------------------------------------------------

 SCF Done:  E(RB3LYP) =  -1866.81789369     A.U. after    3 cycles

 Alpha  occ. eigenvalues --  -19.22163 -19.20651 -19.20478 -19.20139 -19.19950
 Alpha  occ. eigenvalues --  -19.18385 -14.52084 -14.50139 -14.48395 -14.47833
 Alpha  occ. eigenvalues --  -14.46410 -14.43874 -14.42566 -14.41877 -10.45488
 Alpha  occ. eigenvalues --  -10.39416 -10.38159 -10.37592 -10.36539 -10.35812
 Alpha  occ. eigenvalues --  -10.35346 -10.34012 -10.31774 -10.31169 -10.30941
 Alpha  occ. eigenvalues --  -10.29396 -10.28840 -10.28398 -10.27743 -10.27625
 Alpha  occ. eigenvalues --  -10.27297 -10.27048 -10.27036 -10.26867 -10.26768
 Alpha  occ. eigenvalues --  -10.26726 -10.25455 -10.23223 -10.22604  -1.14670
 Alpha  occ. eigenvalues --   -1.14360  -1.13715  -1.11919  -1.11480  -1.10135
 Alpha  occ. eigenvalues --   -1.07527  -1.05046  -1.03279  -1.02805  -1.02128
 Alpha  occ. eigenvalues --   -1.00123  -0.99126  -0.98633  -0.94064  -0.89579
 Alpha  occ. eigenvalues --   -0.89402  -0.87965  -0.86051  -0.83662  -0.83177
 Alpha  occ. eigenvalues --   -0.82513  -0.80988  -0.78294  -0.76191  -0.75628
 Alpha  occ. eigenvalues --   -0.75100  -0.74030  -0.72300  -0.71165  -0.70647
 Alpha  occ. eigenvalues --   -0.69374  -0.68801  -0.68407  -0.67496  -0.67046
 Alpha  occ. eigenvalues --   -0.66976  -0.66206  -0.64903  -0.64100  -0.63348
 Alpha  occ. eigenvalues --   -0.62967  -0.62390  -0.62253  -0.61890  -0.61202
 Alpha  occ. eigenvalues --   -0.60180  -0.59549  -0.58908  -0.58598  -0.57091
 Alpha  occ. eigenvalues --   -0.56543  -0.56193  -0.55665  -0.54473  -0.54241
 Alpha  occ. eigenvalues --   -0.53896  -0.53640  -0.53575  -0.52918  -0.52727
 Alpha  occ. eigenvalues --   -0.52445  -0.51687  -0.51420  -0.51167  -0.50562
 Alpha  occ. eigenvalues --   -0.50368  -0.50253  -0.49463  -0.49204  -0.48956
 Alpha  occ. eigenvalues --   -0.48889  -0.48731  -0.48035  -0.47399  -0.46665
 Alpha  occ. eigenvalues --   -0.46302  -0.46157  -0.45351  -0.45157  -0.44842
 Alpha  occ. eigenvalues --   -0.44458  -0.44064  -0.43754  -0.43639  -0.43217
 Alpha  occ. eigenvalues --   -0.42946  -0.42423  -0.42015  -0.41811  -0.40795
 Alpha  occ. eigenvalues --   -0.39467  -0.38880  -0.38656  -0.37943  -0.36812
 Alpha  occ. eigenvalues --   -0.36716  -0.36518  -0.36139  -0.35232  -0.34623
 Alpha  occ. eigenvalues --   -0.34285  -0.33653  -0.33238  -0.33012  -0.32749
 Alpha  occ. eigenvalues --   -0.31796  -0.31409
 Alpha virt. eigenvalues --   -0.09885  -0.09220  -0.08508  -0.07928  -0.06596
 Alpha virt. eigenvalues --   -0.06185  -0.05688  -0.05481  -0.04838  -0.03126
 Alpha virt. eigenvalues --   -0.02415  -0.01900   0.00130   0.00468   0.00943

 Mulliken charges:
               1
     1  N   -0.765378
     2  C   -0.116096
     3  C    0.669721
     4  O   -0.519257
     5  C   -0.410407
     6  C    0.137669
     7  C   -0.182749
     8  C   -0.233377
     9  C   -0.126344
    10  C   -0.139373
    11  C   -0.126648
    12  H    0.402520
    13  H    0.203056
    14  H    0.157920
    15  H    0.239844
    16  H    0.129425
    17  H    0.190004
    18  H    0.151476
    19  H    0.138930
    20  H    0.149649
    21  H    0.388779
    22  N   -0.652250
    23  C   -0.021306
    24  C    0.625555
    25  O   -0.522948
    26  C   -0.306450
    27  C   -0.077987
    28  C   -0.463143
    29  C   -0.445561
    30  H    0.343714
    31  H    0.199605
    32  H    0.149630
    33  H    0.137911
    34  H    0.144395
    35  H    0.153438
    36  H    0.177807
    37  H    0.137504
    38  H    0.156420
    39  H    0.145751
    40  H    0.141237
    41  N   -0.617820
    42  C   -0.046714
    43  C    0.622906
    44  O   -0.570288
    45  C   -0.375200
    46  C    0.629946
    47  N   -0.737845
    48  O   -0.534609
    49  H    0.347449
    50  H    0.209335
    51  H    0.191691
    52  H    0.187470
    53  H    0.356747
    54  H    0.355438
    55  N   -0.614319
    56  C   -0.057968
    57  C    0.645144
    58  O   -0.620726
    59  C   -0.289046
    60  C   -0.276160
    61  C   -0.168558
    62  N   -0.611979
    63  C    0.774630
    64  N   -0.758832
    65  N   -0.778583
    66  O   -0.577875
    67  H    0.452583
    68  H    0.391016
    69  H    0.155316
    70  H    0.162180
    71  H    0.190425
    72  H    0.154359
    73  H    0.167889
    74  H    0.150622
    75  H    0.190993
    76  H    0.419852
    77  H    0.375815
    78  H    0.378190
    79  H    0.360913
    80  H    0.402922
 Sum of Mulliken charges =   1.00000

 Dipole moment (field-independent basis, Debye):
    X=            -17.9835    Y=             50.1645    Z=            -45.6815  Tot=             70.1903
 Quadrupole moment (field-independent basis, Debye-Ang):
   XX=           -116.2280   YY=            342.8950   ZZ=            309.2985
   XY=           -161.5846   XZ=            209.1951   YZ=           -493.7018

 Normal termination of Gaussian 16 at Sat Jul 16 16:55:07 2022.
