 Gaussian 16, Revision C.01,
 Gaussian 16:  ES64L-G16RevC.01  3-Jul-2019

 ----------------------------------------------------------------------
 # B3LYP/6-31G* empiricaldispersion=gd3bj guess=read geom=check nosymm
 integral(ultrafinegrid)
 ----------------------------------------------------------------------

 ------------------------------------------------------
 Candidate Structure: Conf:669 Charge calc in gas phase
 ------------------------------------------------------
 Structure from the checkpoint file:  "conf-669.chk"
 Charge =  1 Multiplicity = 1

                          Input orientation:
 ---------------------------------------------------------------------
 Center     Atomic      Atomic             Coordinates (Angstroms)
 Number     Number       Type             X           Y           Z
 ---------------------------------------------------------------------
      1          7           0       -2.407369   14.259222   -6.774828
      2          6           0       -2.399767   13.961916   -8.249723
      3          6           0       -3.867067   13.565667   -8.555021
      4          8           0       -4.748754   13.968343   -7.801006
      5          6           0       -1.269029   12.988958   -8.618704
      6          6           0        0.096338   13.644483   -8.527911
      7          6           0        0.719617   14.131977   -9.682804
      8          6           0        0.738420   13.811059   -7.291563
      9          6           0        1.958811   14.769369   -9.613577
     10          6           0        1.975696   14.455785   -7.223301
     11          6           0        2.591190   14.935380   -8.380965
     12          1           0       -3.406683   14.436631   -6.549076
     13          1           0       -2.227900   14.918217   -8.757229
     14          1           0       -1.422289   12.661518   -9.652992
     15          1           0       -1.337569   12.102644   -7.981323
     16          1           0        0.236073   14.005535  -10.648970
     17          1           0        0.272377   13.423265   -6.388670
     18          1           0        2.428828   15.135439  -10.521364
     19          1           0        2.453908   14.596741   -6.256345
     20          1           0        3.552412   15.437416   -8.324544
     21          1           0       -1.833100   15.071494   -6.545452
     22          7           0       -4.116433   12.850193   -9.671375
     23          6           0       -5.462289   12.332248   -9.952039
     24          6           0       -5.878452   11.279210   -8.903161
     25          8           0       -7.020292   11.204087   -8.485247
     26          6           0       -5.496882   11.769473  -11.380477
     27          6           0       -6.832708   11.128178  -11.795847
     28          6           0       -8.010620   12.100609  -11.655541
     29          6           0       -6.716938   10.599015  -13.230504
     30          1           0       -3.355981   12.564617  -10.271671
     31          1           0       -6.172052   13.152319   -9.839040
     32          1           0       -5.259544   12.589761  -12.071843
     33          1           0       -4.696972   11.020942  -11.482116
     34          1           0       -7.018805   10.274294  -11.130826
     35          1           0       -7.827235   13.023830  -12.220627
     36          1           0       -8.926461   11.648241  -12.050146
     37          1           0       -8.195474   12.359093  -10.609297
     38          1           0       -6.550359   11.420257  -13.938854
     39          1           0       -5.885903    9.891196  -13.335109
     40          1           0       -7.636134   10.084945  -13.529682
     41          7           0       -4.872288   10.410013   -8.538564
     42          6           0       -4.908457    9.787254   -7.224050
     43          6           0       -3.870726   10.542459   -6.360930
     44          8           0       -3.396737   11.607807   -6.784548
     45          6           0       -4.679376    8.258240   -7.329552
     46          6           0       -5.276909    7.470739   -6.169345
     47          7           0       -6.103915    6.457416   -6.507625
     48          8           0       -5.020266    7.726929   -4.989086
     49          1           0       -3.948855   10.764065   -8.757806
     50          1           0       -5.908210    9.977285   -6.817234
     51          1           0       -5.108610    7.933026   -8.280318
     52          1           0       -3.605270    8.039091   -7.365374
     53          1           0       -6.535772    5.919808   -5.767513
     54          1           0       -6.375771    6.270898   -7.460634
     55          7           0       -3.499730   10.012632   -5.193279
     56          6           0       -2.516500   10.695592   -4.361841
     57          6           0       -1.397247   11.316372   -5.237594
     58          8           0       -0.740140   10.526424   -5.979109
     59          6           0       -1.932774    9.694316   -3.350877
     60          6           0       -0.829293   10.301013   -2.446329
     61          6           0        0.553055    9.653737   -2.629713
     62          7           0        1.046926    9.809139   -4.005183
     63          6           0        1.959094   10.702473   -4.409502
     64          7           0        2.948188   11.099990   -3.577533
     65          7           0        1.872334   11.174117   -5.651943
     66          8           0       -1.163401   12.547688   -5.081800
     67          1           0       -2.061039   13.455717   -6.171745
     68          1           0       -3.953570    9.143157   -4.883965
     69          1           0       -2.993298   11.525270   -3.827231
     70          1           0       -1.550100    8.834682   -3.915740
     71          1           0       -2.751610    9.307968   -2.734715
     72          1           0       -0.737986   11.377824   -2.630708
     73          1           0       -1.101923   10.185498   -1.392030
     74          1           0        1.267751   10.105609   -1.937779
     75          1           0        0.508624    8.583072   -2.405023
     76          1           0        0.342907    9.633784   -4.731563
     77          1           0        3.649091   11.745031   -3.911237
     78          1           0        3.227273   10.496194   -2.818175
     79          1           0        2.560325   11.806955   -6.033218
     80          1           0        0.936516   11.103057   -6.098855
 ---------------------------------------------------------------------

 SCF Done:  E(RB3LYP) =  -1866.81703936     A.U. after    1 cycles

 Alpha  occ. eigenvalues --  -19.22649 -19.21170 -19.20779 -19.19839 -19.19522
 Alpha  occ. eigenvalues --  -19.19074 -14.52813 -14.49651 -14.47521 -14.47211
 Alpha  occ. eigenvalues --  -14.47051 -14.45195 -14.43729 -14.43618 -10.44793
 Alpha  occ. eigenvalues --  -10.40085 -10.38797 -10.37469 -10.37246 -10.36659
 Alpha  occ. eigenvalues --  -10.36388 -10.33535 -10.32549 -10.31972 -10.30879
 Alpha  occ. eigenvalues --  -10.30203 -10.29291 -10.29211 -10.28633 -10.28283
 Alpha  occ. eigenvalues --  -10.28247 -10.28190 -10.27991 -10.27936 -10.27483
 Alpha  occ. eigenvalues --  -10.27364 -10.25916 -10.23681 -10.22991  -1.15304
 Alpha  occ. eigenvalues --   -1.13820  -1.13291  -1.12807  -1.12090  -1.11430
 Alpha  occ. eigenvalues --   -1.07985  -1.03842  -1.03594  -1.02727  -1.01401
 Alpha  occ. eigenvalues --   -1.00886  -1.00432  -0.99829  -0.94958  -0.90173
 Alpha  occ. eigenvalues --   -0.89447  -0.88600  -0.87020  -0.84205  -0.83615
 Alpha  occ. eigenvalues --   -0.83410  -0.81763  -0.77995  -0.76464  -0.76226
 Alpha  occ. eigenvalues --   -0.74960  -0.74444  -0.72889  -0.70648  -0.70230
 Alpha  occ. eigenvalues --   -0.70077  -0.69793  -0.68972  -0.68356  -0.67971
 Alpha  occ. eigenvalues --   -0.67496  -0.66424  -0.65905  -0.65070  -0.63538
 Alpha  occ. eigenvalues --   -0.63307  -0.62627  -0.62245  -0.61897  -0.61547
 Alpha  occ. eigenvalues --   -0.60348  -0.59556  -0.58909  -0.58131  -0.57551
 Alpha  occ. eigenvalues --   -0.57169  -0.56921  -0.56621  -0.55155  -0.55062
 Alpha  occ. eigenvalues --   -0.54763  -0.54231  -0.53928  -0.53490  -0.53211
 Alpha  occ. eigenvalues --   -0.52775  -0.52092  -0.51637  -0.51445  -0.51374
 Alpha  occ. eigenvalues --   -0.51236  -0.50433  -0.49875  -0.49697  -0.49299
 Alpha  occ. eigenvalues --   -0.49252  -0.48823  -0.48553  -0.48283  -0.47758
 Alpha  occ. eigenvalues --   -0.46973  -0.46605  -0.46321  -0.45796  -0.45232
 Alpha  occ. eigenvalues --   -0.44808  -0.44600  -0.44411  -0.44170  -0.43931
 Alpha  occ. eigenvalues --   -0.43491  -0.43382  -0.42986  -0.42732  -0.40316
 Alpha  occ. eigenvalues --   -0.39975  -0.39313  -0.39157  -0.37654  -0.37396
 Alpha  occ. eigenvalues --   -0.37011  -0.36349  -0.35876  -0.35440  -0.35046
 Alpha  occ. eigenvalues --   -0.34563  -0.34293  -0.34156  -0.33701  -0.33359
 Alpha  occ. eigenvalues --   -0.32808  -0.32557
 Alpha virt. eigenvalues --   -0.09986  -0.09833  -0.09265  -0.08680  -0.07146
 Alpha virt. eigenvalues --   -0.06836  -0.06147  -0.05736  -0.05313  -0.04039
 Alpha virt. eigenvalues --   -0.02586  -0.01558  -0.01061   0.00591   0.00895

 Mulliken charges:
               1
     1  N   -0.786394
     2  C   -0.086230
     3  C    0.701350
     4  O   -0.529880
     5  C   -0.412136
     6  C    0.140901
     7  C   -0.180929
     8  C   -0.242254
     9  C   -0.125129
    10  C   -0.161957
    11  C   -0.124941
    12  H    0.414878
    13  H    0.206768
    14  H    0.148802
    15  H    0.231383
    16  H    0.133310
    17  H    0.191518
    18  H    0.154839
    19  H    0.129191
    20  H    0.150895
    21  H    0.389228
    22  N   -0.661159
    23  C   -0.032422
    24  C    0.614420
    25  O   -0.494730
    26  C   -0.299107
    27  C   -0.079252
    28  C   -0.461896
    29  C   -0.445635
    30  H    0.341468
    31  H    0.209032
    32  H    0.154461
    33  H    0.131035
    34  H    0.145508
    35  H    0.138732
    36  H    0.155782
    37  H    0.176817
    38  H    0.146888
    39  H    0.138878
    40  H    0.158237
    41  N   -0.583608
    42  C   -0.079347
    43  C    0.626615
    44  O   -0.584602
    45  C   -0.382347
    46  C    0.625397
    47  N   -0.731098
    48  O   -0.530059
    49  H    0.327314
    50  H    0.221913
    51  H    0.174160
    52  H    0.191592
    53  H    0.362762
    54  H    0.357352
    55  N   -0.651144
    56  C    0.037407
    57  C    0.638715
    58  O   -0.623612
    59  C   -0.335879
    60  C   -0.284258
    61  C   -0.173099
    62  N   -0.604087
    63  C    0.774849
    64  N   -0.750329
    65  N   -0.772034
    66  O   -0.619843
    67  H    0.478382
    68  H    0.402270
    69  H    0.162264
    70  H    0.159823
    71  H    0.177407
    72  H    0.179461
    73  H    0.169995
    74  H    0.160698
    75  H    0.186224
    76  H    0.395257
    77  H    0.367394
    78  H    0.374897
    79  H    0.353243
    80  H    0.419686
 Sum of Mulliken charges =   1.00000

 Dipole moment (field-independent basis, Debye):
    X=             -0.9969    Y=             53.6289    Z=            -31.5281  Tot=             62.2180
 Quadrupole moment (field-independent basis, Debye-Ang):
   XX=           -174.2173   YY=            422.9468   ZZ=             40.8604
   XY=             22.4247   XZ=             46.7001   YZ=           -365.7032

 Normal termination of Gaussian 16 at Sat Jul 16 16:54:25 2022.
