 Gaussian 16, Revision C.01,
 Gaussian 16:  ES64L-G16RevC.01  3-Jul-2019

 ----------------------------------------------------------------------
 # B3LYP/6-31G* empiricaldispersion=gd3bj guess=read geom=check nosymm
 integral(ultrafinegrid)
 ----------------------------------------------------------------------

 ------------------------------------------------------
 Candidate Structure: Conf:102 Charge calc in gas phase
 ------------------------------------------------------
 Structure from the checkpoint file:  "conf-102.chk"
 Charge =  1 Multiplicity = 1

                          Input orientation:
 ---------------------------------------------------------------------
 Center     Atomic      Atomic             Coordinates (Angstroms)
 Number     Number       Type             X           Y           Z
 ---------------------------------------------------------------------
      1          7           0       -5.602502    2.561579    2.048642
      2          1           0       -5.832615    3.054440    1.187234
      3          1           0       -6.080043    1.661218    1.979472
      4          6           0       -4.172881    2.283846    2.086896
      5          1           0       -3.630415    3.196770    1.810242
      6          6           0       -3.778831    1.150944    1.125888
      7          6           0       -3.743234    1.890934    3.526423
      8          1           0       -2.748991    1.430204    3.489675
      9          1           0       -4.438152    1.117024    3.874765
     10          8           0       -4.578127    0.288898    0.769524
     11          6           0       -3.716858    3.066503    4.472725
     12          6           0       -4.900615    3.631945    4.964804
     13          1           0       -5.852183    3.210252    4.661306
     14          6           0       -2.494249    3.633790    4.850786
     15          1           0       -1.567260    3.198592    4.481807
     16          6           0       -4.857202    4.736888    5.813759
     17          1           0       -5.783500    5.163014    6.189085
     18          6           0       -2.447770    4.739414    5.700739
     19          1           0       -1.488705    5.161485    5.988718
     20          6           0       -3.632009    5.294517    6.185093
     21          1           0       -3.601255    6.152361    6.850874
     22          7           0       -2.475003    1.135610    0.731210
     23          1           0       -1.830888    1.869896    0.995982
     24          6           0       -1.941027    0.071314   -0.095489
     25          1           0       -2.382809   -0.872127    0.237059
     26          6           0       -0.429034    0.061147    0.083663
     27          6           0       -2.292507    0.299731   -1.585838
     28          1           0       -3.386348    0.332631   -1.641384
     29          1           0       -1.924787    1.300653   -1.852066
     30          8           0        0.210427    1.117650    0.198708
     31          6           0       -1.750739   -0.735876   -2.585754
     32          1           0       -0.655493   -0.767915   -2.509426
     33          6           0       -2.286605   -2.149494   -2.319987
     34          1           0       -3.382874   -2.151964   -2.300076
     35          1           0       -1.961137   -2.841256   -3.104885
     36          1           0       -1.936431   -2.559701   -1.368501
     37          6           0       -2.113331   -0.299290   -4.011943
     38          1           0       -3.195521   -0.348103   -4.180068
     39          1           0       -1.820281    0.744795   -4.197371
     40          1           0       -1.635974   -0.946522   -4.758939
     41          7           0        0.151854   -1.149435    0.017152
     42          1           0       -0.395469   -2.005750    0.122842
     43          6           0        1.594569   -1.325695    0.072727
     44          1           0        1.982106   -0.902058    1.007889
     45          6           0        2.242158   -0.610580   -1.135179
     46          6           0        1.946219   -2.822725   -0.027856
     47          1           0        1.764641   -3.129134   -1.063321
     48          1           0        3.016002   -2.940858    0.168288
     49          8           0        2.163216   -1.079552   -2.268503
     50          6           0        1.097281   -3.719563    0.865236
     51          7           0        1.765536   -4.526156    1.720795
     52          1           0        1.232720   -5.177196    2.282709
     53          1           0        2.772317   -4.578731    1.747618
     54          8           0       -0.134085   -3.716910    0.793078
     55          7           0        2.908164    0.535770   -0.842159
     56          1           0        2.690371    0.980149    0.040918
     57          6           0        3.493220    1.337751   -1.895747
     58          1           0        3.673624    0.642112   -2.722969
     59          6           0        4.848415    1.931026   -1.522937
     60          6           0        2.574785    2.465903   -2.406881
     61          1           0        3.113409    2.951397   -3.227915
     62          1           0        2.447579    3.222444   -1.621596
     63          8           0        5.416383    2.745485   -2.215825
     64          6           0        1.199213    1.958418   -2.849921
     65          1           0        1.310682    1.028776   -3.420551
     66          1           0        0.604901    1.710677   -1.965484
     67          6           0        0.424775    2.998779   -3.658992
     68          1           0       -0.603503    2.679079   -3.853542
     69          1           0        0.360136    3.946581   -3.118276
     70          7           0        1.052221    3.313288   -4.959138
     71          1           0        1.747397    4.047897   -4.971102
     72          7           0        0.279912    1.411188   -6.055312
     73          1           0       -0.022917    0.983196   -6.918587
     74          1           0       -0.033250    0.978330   -5.196916
     75          7           0        1.475755    3.009755   -7.217011
     76          1           0        1.614967    2.383784   -7.997123
     77          1           0        1.829835    3.950862   -7.309929
     78          6           0        0.939416    2.575142   -6.062771
     79          8           0        5.340064    1.461778   -0.361581
     80          1           0        6.204338    1.898081   -0.229836
 ---------------------------------------------------------------------

 SCF Done:  E(RB3LYP) =  -1866.76966473     A.U. after    1 cycles

 Alpha  occ. eigenvalues --  -19.29389 -19.23410 -19.21709 -19.21181 -19.20821
 Alpha  occ. eigenvalues --  -19.17525 -14.54086 -14.54040 -14.53852 -14.46024
 Alpha  occ. eigenvalues --  -14.45126 -14.44736 -14.42502 -14.36411 -10.50436
 Alpha  occ. eigenvalues --  -10.41790 -10.38683 -10.38670 -10.37735 -10.37005
 Alpha  occ. eigenvalues --  -10.34161 -10.34138 -10.33770 -10.30987 -10.30329
 Alpha  occ. eigenvalues --  -10.30282 -10.29491 -10.27805 -10.27569 -10.27520
 Alpha  occ. eigenvalues --  -10.26681 -10.24797 -10.24012 -10.23336 -10.22744
 Alpha  occ. eigenvalues --  -10.22657 -10.22450 -10.22346 -10.21971  -1.20306
 Alpha  occ. eigenvalues --   -1.18894  -1.13913  -1.12784  -1.12478  -1.11220
 Alpha  occ. eigenvalues --   -1.09442  -1.08079  -1.06968  -1.02950  -1.01890
 Alpha  occ. eigenvalues --   -0.99809  -0.99129  -0.94123  -0.92422  -0.89818
 Alpha  occ. eigenvalues --   -0.89018  -0.88564  -0.86917  -0.83312  -0.82605
 Alpha  occ. eigenvalues --   -0.81674  -0.79918  -0.77869  -0.77494  -0.77106
 Alpha  occ. eigenvalues --   -0.76416  -0.76162  -0.74332  -0.73556  -0.71599
 Alpha  occ. eigenvalues --   -0.70781  -0.69619  -0.68817  -0.67610  -0.67347
 Alpha  occ. eigenvalues --   -0.67092  -0.66973  -0.65646  -0.64095  -0.64077
 Alpha  occ. eigenvalues --   -0.63150  -0.62555  -0.62362  -0.61877  -0.61001
 Alpha  occ. eigenvalues --   -0.60523  -0.59774  -0.58491  -0.57958  -0.57203
 Alpha  occ. eigenvalues --   -0.57012  -0.56482  -0.56156  -0.55704  -0.54924
 Alpha  occ. eigenvalues --   -0.54288  -0.54045  -0.53704  -0.53056  -0.52595
 Alpha  occ. eigenvalues --   -0.52279  -0.51417  -0.50938  -0.50569  -0.50268
 Alpha  occ. eigenvalues --   -0.49536  -0.49355  -0.49200  -0.49132  -0.48917
 Alpha  occ. eigenvalues --   -0.48186  -0.47853  -0.47510  -0.47104  -0.46851
 Alpha  occ. eigenvalues --   -0.46626  -0.46069  -0.45864  -0.45689  -0.45459
 Alpha  occ. eigenvalues --   -0.45376  -0.45011  -0.44860  -0.44061  -0.43286
 Alpha  occ. eigenvalues --   -0.42584  -0.42190  -0.41543  -0.41225  -0.41170
 Alpha  occ. eigenvalues --   -0.40972  -0.40511  -0.38699  -0.38179  -0.37820
 Alpha  occ. eigenvalues --   -0.37492  -0.36843  -0.36330  -0.35801  -0.34843
 Alpha  occ. eigenvalues --   -0.34726  -0.33474  -0.31814  -0.31746  -0.29369
 Alpha  occ. eigenvalues --   -0.28286  -0.27704
 Alpha virt. eigenvalues --   -0.14235  -0.10280  -0.08874  -0.08662  -0.07413
 Alpha virt. eigenvalues --   -0.06836  -0.06306  -0.05865  -0.04913  -0.04353
 Alpha virt. eigenvalues --   -0.03607  -0.02727  -0.02356  -0.01660  -0.01302

 Mulliken charges:
               1
     1  N   -0.690435
     2  H    0.300178
     3  H    0.317432
     4  C   -0.079069
     5  H    0.137759
     6  C    0.594170
     7  C   -0.346301
     8  H    0.137875
     9  H    0.163125
    10  O   -0.530737
    11  C    0.167998
    12  C   -0.154697
    13  H    0.147745
    14  C   -0.190403
    15  H    0.106312
    16  C   -0.133951
    17  H    0.134037
    18  C   -0.129022
    19  H    0.125597
    20  C   -0.129385
    21  H    0.131958
    22  N   -0.620549
    23  H    0.340259
    24  C   -0.027811
    25  H    0.188092
    26  C    0.607468
    27  C   -0.263552
    28  H    0.181255
    29  H    0.116144
    30  O   -0.579145
    31  C   -0.097685
    32  H    0.146790
    33  C   -0.459729
    34  H    0.164008
    35  H    0.149363
    36  H    0.162336
    37  C   -0.469874
    38  H    0.174754
    39  H    0.104069
    40  H    0.139833
    41  N   -0.627279
    42  H    0.409464
    43  C   -0.031310
    44  H    0.168709
    45  C    0.641178
    46  C   -0.404052
    47  H    0.222231
    48  H    0.163523
    49  O   -0.543555
    50  C    0.619179
    51  N   -0.738772
    52  H    0.363921
    53  H    0.353701
    54  O   -0.524335
    55  N   -0.575178
    56  H    0.355613
    57  C   -0.075259
    58  H    0.213284
    59  C    0.599077
    60  C   -0.270179
    61  H    0.150963
    62  H    0.164142
    63  O   -0.460502
    64  C   -0.320139
    65  H    0.166864
    66  H    0.221652
    67  C   -0.206280
    68  H    0.198615
    69  H    0.200438
    70  N   -0.583014
    71  H    0.369816
    72  N   -0.764383
    73  H    0.385472
    74  H    0.410807
    75  N   -0.763988
    76  H    0.387773
    77  H    0.387136
    78  C    0.829012
    79  O   -0.557169
    80  H    0.426612
 Sum of Mulliken charges =   1.00000

 Dipole moment (field-independent basis, Debye):
    X=              9.6775    Y=              7.1658    Z=            -21.3177  Tot=             24.4836
 Quadrupole moment (field-independent basis, Debye-Ang):
   XX=           -211.4815   YY=           -171.0387   ZZ=            -67.3809
   XY=             -1.8783   XZ=             -4.1645   YZ=            -70.2096

 Normal termination of Gaussian 16 at Tue Oct 18 19:30:19 2022.
