 Gaussian 16, Revision C.01,
 Gaussian 16:  ES64L-G16RevC.01  3-Jul-2019

 ----------------------------------------------------------------------
 # B3LYP/6-31G* empiricaldispersion=gd3bj guess=read geom=check nosymm
 integral(ultrafinegrid)
 ----------------------------------------------------------------------

 ------------------------------------------------------
 Candidate Structure: Conf:746 Charge calc in gas phase
 ------------------------------------------------------
 Structure from the checkpoint file:  "conf-746.chk"
 Charge =  1 Multiplicity = 1

                          Input orientation:
 ---------------------------------------------------------------------
 Center     Atomic      Atomic             Coordinates (Angstroms)
 Number     Number       Type             X           Y           Z
 ---------------------------------------------------------------------
      1          7           0       -2.156044   11.296174   -9.141622
      2          6           0       -2.668442   10.018663   -9.693998
      3          6           0       -4.202205   10.121718   -9.541875
      4          8           0       -4.785597   11.085318  -10.030025
      5          6           0       -1.989100    8.824514   -9.007675
      6          6           0       -0.488451    8.852430   -9.177550
      7          6           0        0.107121    8.422581  -10.368293
      8          6           0        0.323826    9.362817   -8.160316
      9          6           0        1.488552    8.506330  -10.541643
     10          6           0        1.704801    9.453024   -8.332562
     11          6           0        2.291889    9.024484   -9.523846
     12          1           0       -2.528189   11.348018   -8.191252
     13          1           0       -2.440707   10.000603  -10.764182
     14          1           0       -2.401858    7.898670   -9.428769
     15          1           0       -2.228928    8.839442   -7.936984
     16          1           0       -0.512797    8.016242  -11.164506
     17          1           0       -0.125314    9.696445   -7.230646
     18          1           0        1.938109    8.161750  -11.468440
     19          1           0        2.318403    9.851494   -7.529070
     20          1           0        3.368309    9.084007   -9.657498
     21          1           0       -2.638724   12.038107   -9.652962
     22          7           0       -4.845022    9.244424   -8.719025
     23          6           0       -6.200033    9.541003   -8.255861
     24          6           0       -6.221163   10.821669   -7.394649
     25          8           0       -7.178685   11.581483   -7.373366
     26          6           0       -6.785381    8.357351   -7.476165
     27          6           0       -6.904804    7.043601   -8.270651
     28          6           0       -7.488609    5.949601   -7.368030
     29          6           0       -7.741060    7.212030   -9.544265
     30          1           0       -4.366990    8.429689   -8.362467
     31          1           0       -6.824314    9.778043   -9.118851
     32          1           0       -6.180011    8.188038   -6.573778
     33          1           0       -7.780079    8.662178   -7.129193
     34          1           0       -5.894741    6.724082   -8.570226
     35          1           0       -8.508255    6.207258   -7.056256
     36          1           0       -7.533402    4.990128   -7.893893
     37          1           0       -6.886298    5.810776   -6.462561
     38          1           0       -8.744027    7.586617   -9.304678
     39          1           0       -7.280374    7.909833  -10.251178
     40          1           0       -7.857869    6.251932  -10.057840
     41          7           0       -5.108769   11.014093   -6.622622
     42          6           0       -4.779497   12.321549   -6.096989
     43          6           0       -3.245508   12.348118   -5.960539
     44          8           0       -2.574381   11.342416   -6.250042
     45          6           0       -5.556307   12.631553   -4.794082
     46          6           0       -5.729955   14.124222   -4.546992
     47          7           0       -6.932091   14.500963   -4.065495
     48          8           0       -4.828961   14.948718   -4.749540
     49          1           0       -4.308662   10.409192   -6.759571
     50          1           0       -5.062362   13.079751   -6.839590
     51          1           0       -6.530790   12.149786   -4.893980
     52          1           0       -5.052632   12.186876   -3.927048
     53          1           0       -7.103773   15.486394   -3.914240
     54          1           0       -7.714317   13.865174   -4.017292
     55          7           0       -2.676469   13.506047   -5.605552
     56          6           0       -1.227651   13.689819   -5.555733
     57          6           0       -0.525908   12.682453   -6.486634
     58          8           0        0.284941   11.858469   -6.107822
     59          6           0       -0.669913   13.662193   -4.120864
     60          6           0        0.571315   14.543365   -3.877736
     61          6           0        1.925007   14.039536   -4.401190
     62          7           0        2.032060   13.982357   -5.869852
     63          6           0        2.044393   15.025338   -6.699244
     64          7           0        2.529659   16.211483   -6.294425
     65          7           0        1.567712   14.885269   -7.943769
     66          8           0       -0.736889   12.989438   -7.785064
     67          1           0       -0.829014   12.164518   -8.385088
     68          1           0       -3.310737   14.264786   -5.310481
     69          1           0       -1.040895   14.678755   -5.996635
     70          1           0       -0.475452   12.623908   -3.833668
     71          1           0       -1.461873   14.035987   -3.463906
     72          1           0        0.387465   15.553435   -4.269758
     73          1           0        0.693998   14.659981   -2.794416
     74          1           0        2.734646   14.659523   -4.002048
     75          1           0        2.115075   13.020335   -4.059336
     76          1           0        1.768995   13.086048   -6.272198
     77          1           0        2.427568   17.039325   -6.862772
     78          1           0        3.132156   16.272375   -5.486780
     79          1           0        1.766788   15.569631   -8.659464
     80          1           0        0.876630   14.161025   -8.148595
 ---------------------------------------------------------------------

 SCF Done:  E(RB3LYP) =  -1866.78959250     A.U. after    2 cycles

 Alpha  occ. eigenvalues --  -19.28588 -19.24990 -19.23303 -19.21953 -19.19102
 Alpha  occ. eigenvalues --  -19.18766 -14.52917 -14.51732 -14.51334 -14.46349
 Alpha  occ. eigenvalues --  -14.45519 -14.44375 -14.43205 -14.41539 -10.48587
 Alpha  occ. eigenvalues --  -10.43682 -10.39846 -10.39345 -10.36288 -10.36091
 Alpha  occ. eigenvalues --  -10.35797 -10.35257 -10.33481 -10.31237 -10.30860
 Alpha  occ. eigenvalues --  -10.30337 -10.29910 -10.29403 -10.27257 -10.26261
 Alpha  occ. eigenvalues --  -10.26124 -10.25828 -10.25358 -10.25296 -10.25247
 Alpha  occ. eigenvalues --  -10.25201 -10.24931 -10.23362 -10.23210  -1.20281
 Alpha  occ. eigenvalues --   -1.17036  -1.15191  -1.13412  -1.12003  -1.11634
 Alpha  occ. eigenvalues --   -1.10538  -1.06165  -1.05231  -1.03486  -1.01227
 Alpha  occ. eigenvalues --   -1.00346  -0.99702  -0.98446  -0.92023  -0.91947
 Alpha  occ. eigenvalues --   -0.88550  -0.87947  -0.86217  -0.85338  -0.82155
 Alpha  occ. eigenvalues --   -0.81911  -0.80700  -0.78954  -0.78568  -0.77432
 Alpha  occ. eigenvalues --   -0.74545  -0.74348  -0.74161  -0.72757  -0.72283
 Alpha  occ. eigenvalues --   -0.70735  -0.69796  -0.68682  -0.67735  -0.67143
 Alpha  occ. eigenvalues --   -0.66678  -0.66536  -0.65803  -0.65731  -0.64872
 Alpha  occ. eigenvalues --   -0.64398  -0.63385  -0.62997  -0.61843  -0.61160
 Alpha  occ. eigenvalues --   -0.60267  -0.59163  -0.58663  -0.58511  -0.57595
 Alpha  occ. eigenvalues --   -0.57388  -0.56691  -0.56607  -0.55956  -0.55624
 Alpha  occ. eigenvalues --   -0.55566  -0.54838  -0.54168  -0.53481  -0.52976
 Alpha  occ. eigenvalues --   -0.52729  -0.52073  -0.51871  -0.51671  -0.50658
 Alpha  occ. eigenvalues --   -0.50380  -0.50145  -0.49785  -0.49079  -0.48667
 Alpha  occ. eigenvalues --   -0.48295  -0.48192  -0.47582  -0.47369  -0.47235
 Alpha  occ. eigenvalues --   -0.47010  -0.46510  -0.46496  -0.46184  -0.45938
 Alpha  occ. eigenvalues --   -0.45491  -0.44930  -0.44369  -0.44189  -0.43734
 Alpha  occ. eigenvalues --   -0.43072  -0.42326  -0.42041  -0.41841  -0.40757
 Alpha  occ. eigenvalues --   -0.40529  -0.40330  -0.39400  -0.39216  -0.38979
 Alpha  occ. eigenvalues --   -0.38682  -0.37301  -0.37088  -0.36555  -0.36361
 Alpha  occ. eigenvalues --   -0.35900  -0.34823  -0.33289  -0.32544  -0.31386
 Alpha  occ. eigenvalues --   -0.31232  -0.30592
 Alpha virt. eigenvalues --   -0.13326  -0.12077  -0.08921  -0.08319  -0.07441
 Alpha virt. eigenvalues --   -0.06798  -0.06458  -0.06262  -0.05194  -0.04705
 Alpha virt. eigenvalues --   -0.02441  -0.01685  -0.01147  -0.00899  -0.00509

 Mulliken charges:
               1
     1  N   -0.801937
     2  C   -0.042821
     3  C    0.584359
     4  O   -0.512911
     5  C   -0.404115
     6  C    0.192234
     7  C   -0.179961
     8  C   -0.195208
     9  C   -0.130283
    10  C   -0.143022
    11  C   -0.129931
    12  H    0.359995
    13  H    0.181337
    14  H    0.159800
    15  H    0.153689
    16  H    0.130274
    17  H    0.155109
    18  H    0.142013
    19  H    0.121332
    20  H    0.134359
    21  H    0.336662
    22  N   -0.647933
    23  C   -0.021867
    24  C    0.613545
    25  O   -0.522963
    26  C   -0.302012
    27  C   -0.073986
    28  C   -0.443286
    29  C   -0.453414
    30  H    0.345857
    31  H    0.204372
    32  H    0.133482
    33  H    0.170822
    34  H    0.115418
    35  H    0.151202
    36  H    0.155845
    37  H    0.141712
    38  H    0.152957
    39  H    0.155162
    40  H    0.155768
    41  N   -0.629304
    42  C   -0.029402
    43  C    0.604002
    44  O   -0.559810
    45  C   -0.378613
    46  C    0.632378
    47  N   -0.729425
    48  O   -0.546312
    49  H    0.349851
    50  H    0.206111
    51  H    0.200491
    52  H    0.189483
    53  H    0.361961
    54  H    0.364505
    55  N   -0.627965
    56  C    0.012811
    57  C    0.595335
    58  O   -0.486406
    59  C   -0.278695
    60  C   -0.287924
    61  C   -0.167064
    62  N   -0.599709
    63  C    0.785477
    64  N   -0.751316
    65  N   -0.774783
    66  O   -0.633163
    67  H    0.458444
    68  H    0.403141
    69  H    0.158061
    70  H    0.188457
    71  H    0.171389
    72  H    0.150209
    73  H    0.179631
    74  H    0.167708
    75  H    0.209331
    76  H    0.394931
    77  H    0.381351
    78  H    0.386949
    79  H    0.373698
    80  H    0.412533
 Sum of Mulliken charges =   1.00000

 Dipole moment (field-independent basis, Debye):
    X=             -0.7377    Y=             67.2811    Z=            -28.1647  Tot=             72.9420
 Quadrupole moment (field-independent basis, Debye-Ang):
   XX=           -155.2971   YY=            769.8944   ZZ=            -40.3269
   XY=             33.7215   XZ=            -21.4750   YZ=           -381.4041

 Normal termination of Gaussian 16 at Sat Jul 16 16:54:42 2022.
