 Gaussian 16, Revision C.01,
 Gaussian 16:  ES64L-G16RevC.01  3-Jul-2019

 ----------------------------------------------------------------------
 # B3LYP/6-31G* empiricaldispersion=gd3bj guess=read geom=check nosymm
 integral(ultrafinegrid)
 ----------------------------------------------------------------------

 ------------------------------------------------------
 Candidate Structure: Conf:123 Charge calc in gas phase
 ------------------------------------------------------
 Structure from the checkpoint file:  "conf-123.chk"
 Charge =  1 Multiplicity = 1

                          Input orientation:
 ---------------------------------------------------------------------
 Center     Atomic      Atomic             Coordinates (Angstroms)
 Number     Number       Type             X           Y           Z
 ---------------------------------------------------------------------
      1          7           0       -4.308081    0.289629    4.001345
      2          1           0       -4.510555    0.701592    4.909644
      3          1           0       -5.197376    0.092647    3.548131
      4          6           0       -3.519435    1.225144    3.218926
      5          1           0       -4.016003    2.199609    3.045667
      6          6           0       -3.173455    0.610558    1.863279
      7          6           0       -2.179845    1.507501    3.948887
      8          1           0       -1.559387    2.144378    3.306057
      9          1           0       -1.672604    0.544676    4.065026
     10          8           0       -2.782297   -0.550571    1.733452
     11          6           0       -2.392076    2.168761    5.288179
     12          6           0       -2.532015    3.559281    5.382127
     13          1           0       -2.438314    4.167785    4.485111
     14          6           0       -2.504086    1.400957    6.454804
     15          1           0       -2.394713    0.321586    6.392163
     16          6           0       -2.777835    4.170265    6.610721
     17          1           0       -2.876476    5.250598    6.667442
     18          6           0       -2.752090    2.009672    7.685983
     19          1           0       -2.832241    1.400760    8.581916
     20          6           0       -2.889841    3.395582    7.766943
     21          1           0       -3.077982    3.870495    8.725316
     22          7           0       -3.255610    1.465197    0.805576
     23          1           0       -3.503358    2.431307    0.971531
     24          6           0       -2.853870    1.079295   -0.547563
     25          1           0       -3.119195    0.022647   -0.647743
     26          6           0       -1.320477    1.189526   -0.676593
     27          6           0       -3.578703    1.916863   -1.597154
     28          1           0       -3.229764    2.954413   -1.524471
     29          1           0       -3.251369    1.565226   -2.583875
     30          8           0       -0.770406    2.052371   -1.370645
     31          6           0       -5.113954    1.864520   -1.517729
     32          1           0       -5.422443    2.279165   -0.547475
     33          6           0       -5.718864    2.747031   -2.616240
     34          1           0       -5.461274    2.360854   -3.611127
     35          1           0       -6.811325    2.774272   -2.543405
     36          1           0       -5.349866    3.777238   -2.551641
     37          6           0       -5.654253    0.431848   -1.604593
     38          1           0       -5.317904   -0.057174   -2.528474
     39          1           0       -5.328812   -0.183614   -0.759387
     40          1           0       -6.749498    0.430528   -1.609499
     41          7           0       -0.649363    0.276210    0.060929
     42          1           0       -1.213946   -0.351524    0.636003
     43          6           0        0.771717    0.414492    0.367370
     44          1           0        1.007885    1.482164    0.438346
     45          6           0        1.679590   -0.144871   -0.739425
     46          6           0        1.111854   -0.236962    1.700975
     47          1           0        0.408762    0.116402    2.464792
     48          1           0        1.020187   -1.325087    1.635140
     49          8           0        2.503839   -1.026954   -0.542063
     50          6           0        2.521678    0.180699    2.124171
     51          7           0        3.198067   -0.736141    2.872174
     52          1           0        4.164806   -0.525795    3.082820
     53          1           0        2.938387   -1.711263    2.840510
     54          8           0        2.968745    1.291005    1.864716
     55          7           0        1.531266    0.474067   -1.951586
     56          1           0        0.930460    1.300551   -1.953727
     57          6           0        2.620820    0.384554   -2.893351
     58          1           0        2.901203   -0.668933   -2.991107
     59          6           0        3.895518    1.093556   -2.407168
     60          6           0        2.191799    0.934678   -4.265270
     61          1           0        2.082164    2.026329   -4.204553
     62          1           0        1.190810    0.533585   -4.468272
     63          8           0        4.960967    0.987632   -2.956218
     64          6           0        3.171861    0.569737   -5.386035
     65          1           0        4.183512    0.868552   -5.099164
     66          1           0        3.208050   -0.520456   -5.518930
     67          6           0        2.847033    1.234639   -6.719703
     68          1           0        2.804763    2.322979   -6.597851
     69          1           0        3.616989    0.991126   -7.462121
     70          7           0        1.531324    0.785361   -7.217890
     71          1           0        1.175299   -0.085466   -6.843789
     72          7           0        1.350003    2.386269   -8.882376
     73          1           0        0.771321    2.994467   -9.443807
     74          1           0        2.338693    2.586845   -8.844892
     75          7           0       -0.446995    1.007128   -8.409462
     76          1           0       -0.917574    1.266138   -9.264776
     77          1           0       -0.940945    0.395038   -7.775943
     78          6           0        0.819155    1.386217   -8.166128
     79          8           0        3.679347    1.858772   -1.331768
     80          1           0        4.537369    2.215844   -1.034183
 ---------------------------------------------------------------------

 SCF Done:  E(RB3LYP) =  -1866.75711259     A.U. after    1 cycles

 Alpha  occ. eigenvalues --  -19.26909 -19.21455 -19.19505 -19.18766 -19.18414
 Alpha  occ. eigenvalues --  -19.16381 -14.54941 -14.54758 -14.54717 -14.43970
 Alpha  occ. eigenvalues --  -14.42605 -14.41833 -14.40638 -14.37117 -10.51163
 Alpha  occ. eigenvalues --  -10.39441 -10.37696 -10.35938 -10.35635 -10.34971
 Alpha  occ. eigenvalues --  -10.34292 -10.32129 -10.31033 -10.30561 -10.30414
 Alpha  occ. eigenvalues --  -10.29606 -10.28923 -10.25926 -10.25711 -10.25698
 Alpha  occ. eigenvalues --  -10.24950 -10.24678 -10.23996 -10.23864 -10.23842
 Alpha  occ. eigenvalues --  -10.23760 -10.23678 -10.23575 -10.23550  -1.19677
 Alpha  occ. eigenvalues --   -1.18375  -1.11397  -1.10560  -1.10128  -1.09439
 Alpha  occ. eigenvalues --   -1.08790  -1.08184  -1.07837  -1.00290  -0.99860
 Alpha  occ. eigenvalues --   -0.99073  -0.95446  -0.95063  -0.92809  -0.90214
 Alpha  occ. eigenvalues --   -0.88211  -0.86890  -0.84935  -0.83195  -0.82142
 Alpha  occ. eigenvalues --   -0.81739  -0.79350  -0.79153  -0.77260  -0.76951
 Alpha  occ. eigenvalues --   -0.74943  -0.74695  -0.74338  -0.72264  -0.71862
 Alpha  occ. eigenvalues --   -0.70138  -0.68500  -0.68245  -0.67854  -0.66101
 Alpha  occ. eigenvalues --   -0.65773  -0.65305  -0.64376  -0.63317  -0.63291
 Alpha  occ. eigenvalues --   -0.62669  -0.62509  -0.61731  -0.60664  -0.59558
 Alpha  occ. eigenvalues --   -0.58615  -0.57734  -0.57642  -0.56867  -0.56360
 Alpha  occ. eigenvalues --   -0.55959  -0.55874  -0.55435  -0.54785  -0.54452
 Alpha  occ. eigenvalues --   -0.53964  -0.52998  -0.51838  -0.51755  -0.50945
 Alpha  occ. eigenvalues --   -0.50649  -0.50320  -0.49865  -0.49404  -0.49403
 Alpha  occ. eigenvalues --   -0.48784  -0.48179  -0.47871  -0.47774  -0.47220
 Alpha  occ. eigenvalues --   -0.46733  -0.46452  -0.46293  -0.46053  -0.45852
 Alpha  occ. eigenvalues --   -0.45453  -0.45249  -0.44924  -0.44869  -0.44718
 Alpha  occ. eigenvalues --   -0.44400  -0.44036  -0.43481  -0.43286  -0.42987
 Alpha  occ. eigenvalues --   -0.42716  -0.41831  -0.41574  -0.40124  -0.39538
 Alpha  occ. eigenvalues --   -0.39413  -0.39287  -0.39164  -0.38728  -0.38667
 Alpha  occ. eigenvalues --   -0.36469  -0.35368  -0.34573  -0.32435  -0.32140
 Alpha  occ. eigenvalues --   -0.31970  -0.31673  -0.30609  -0.30096  -0.29947
 Alpha  occ. eigenvalues --   -0.29732  -0.28807
 Alpha virt. eigenvalues --   -0.14903  -0.10888  -0.07387  -0.06895  -0.06765
 Alpha virt. eigenvalues --   -0.05888  -0.05445  -0.05354  -0.04956  -0.04483
 Alpha virt. eigenvalues --   -0.03782  -0.02544  -0.02220  -0.00658  -0.00095

 Mulliken charges:
               1
     1  N   -0.712394
     2  H    0.319144
     3  H    0.306097
     4  C   -0.046843
     5  H    0.112185
     6  C    0.625894
     7  C   -0.358861
     8  H    0.144828
     9  H    0.180785
    10  O   -0.538842
    11  C    0.150876
    12  C   -0.177736
    13  H    0.118194
    14  C   -0.190130
    15  H    0.147402
    16  C   -0.127880
    17  H    0.137656
    18  C   -0.128586
    19  H    0.141459
    20  C   -0.128407
    21  H    0.140670
    22  N   -0.602349
    23  H    0.336829
    24  C   -0.071552
    25  H    0.187882
    26  C    0.631037
    27  C   -0.274642
    28  H    0.153480
    29  H    0.134276
    30  O   -0.560189
    31  C   -0.069675
    32  H    0.123815
    33  C   -0.441330
    34  H    0.131636
    35  H    0.154336
    36  H    0.144322
    37  C   -0.455101
    38  H    0.133749
    39  H    0.160184
    40  H    0.154915
    41  N   -0.635509
    42  H    0.389519
    43  C   -0.061981
    44  H    0.211955
    45  C    0.654530
    46  C   -0.398783
    47  H    0.188866
    48  H    0.167366
    49  O   -0.528629
    50  C    0.621863
    51  N   -0.741137
    52  H    0.344163
    53  H    0.342922
    54  O   -0.518600
    55  N   -0.644596
    56  H    0.373293
    57  C   -0.024264
    58  H    0.201423
    59  C    0.596849
    60  C   -0.297747
    61  H    0.161171
    62  H    0.142397
    63  O   -0.464198
    64  C   -0.329085
    65  H    0.229266
    66  H    0.163072
    67  C   -0.161183
    68  H    0.187596
    69  H    0.193669
    70  N   -0.596249
    71  H    0.369761
    72  N   -0.754580
    73  H    0.389672
    74  H    0.398436
    75  N   -0.762528
    76  H    0.388693
    77  H    0.388431
    78  C    0.838975
    79  O   -0.540848
    80  H    0.428894
 Sum of Mulliken charges =   1.00000

 Dipole moment (field-independent basis, Debye):
    X=             -1.6440    Y=              8.2276    Z=            -31.4002  Tot=             32.5018
 Quadrupole moment (field-independent basis, Debye-Ang):
   XX=           -194.6401   YY=           -205.9230   ZZ=             94.2559
   XY=             -9.6211   XZ=            -28.9046   YZ=            -49.4288

 Normal termination of Gaussian 16 at Tue Oct 18 19:30:26 2022.
