 Gaussian 16, Revision C.01,
 Gaussian 16:  ES64L-G16RevC.01  3-Jul-2019

 ----------------------------------------------------------------------
 # B3LYP/6-31G* empiricaldispersion=gd3bj guess=read geom=check nosymm
 integral(ultrafinegrid)
 ----------------------------------------------------------------------

 ------------------------------------------------------
 Candidate Structure: Conf:549 Charge calc in gas phase
 ------------------------------------------------------
 Structure from the checkpoint file:  "conf-549.chk"
 Charge =  1 Multiplicity = 1

                          Input orientation:
 ---------------------------------------------------------------------
 Center     Atomic      Atomic             Coordinates (Angstroms)
 Number     Number       Type             X           Y           Z
 ---------------------------------------------------------------------
      1          7           0       -3.953401   10.371764   -8.070075
      2          6           0       -3.218686    9.148236   -8.447502
      3          6           0       -2.007868    9.031418   -7.501154
      4          8           0       -2.178381    8.958934   -6.291999
      5          6           0       -2.911833    9.085872   -9.960709
      6          6           0       -4.173495    9.169939  -10.788402
      7          6           0       -5.005631    8.051484  -10.929383
      8          6           0       -4.565411   10.378085  -11.378595
      9          6           0       -6.197690    8.136818  -11.646369
     10          6           0       -5.758566   10.466518  -12.098784
     11          6           0       -6.577840    9.345919  -12.233374
     12          1           0       -4.733227   10.506669   -8.713547
     13          1           0       -3.864857    8.301411   -8.192079
     14          1           0       -2.387588    8.146788  -10.178093
     15          1           0       -2.242983    9.913267  -10.231337
     16          1           0       -4.712073    7.105017  -10.481504
     17          1           0       -3.920291   11.249507  -11.290516
     18          1           0       -6.826110    7.257836  -11.754515
     19          1           0       -6.037861   11.406431  -12.566913
     20          1           0       -7.501283    9.408630  -12.801375
     21          1           0       -3.344147   11.188728   -8.163708
     22          7           0       -0.765652    9.068629   -8.066100
     23          6           0        0.447116    8.855533   -7.270706
     24          6           0        0.499657    9.805348   -6.068179
     25          8           0        0.969878    9.453455   -4.995537
     26          6           0        1.672630    9.015971   -8.185056
     27          6           0        3.037066    8.872360   -7.488791
     28          6           0        3.181998    7.529720   -6.761596
     29          6           0        4.155834    9.069383   -8.519001
     30          1           0       -0.670966    9.031527   -9.070606
     31          1           0        0.423859    7.853485   -6.833394
     32          1           0        1.601269    8.262416   -8.983734
     33          1           0        1.616733   10.001081   -8.668744
     34          1           0        3.117786    9.670819   -6.739402
     35          1           0        2.999709    6.690336   -7.445636
     36          1           0        4.197259    7.418111   -6.365987
     37          1           0        2.488741    7.455316   -5.919544
     38          1           0        4.067991   10.034669   -9.031835
     39          1           0        5.138678    9.032098   -8.037584
     40          1           0        4.129915    8.280401   -9.281331
     41          7           0        0.028945   11.071612   -6.288406
     42          6           0       -0.512703   11.784459   -5.147514
     43          6           0       -1.802903   12.466232   -5.626696
     44          8           0       -2.119757   12.485550   -6.825835
     45          6           0        0.526381   12.731194   -4.504715
     46          6           0        0.281349   12.956804   -3.017503
     47          7           0        1.389628   13.144638   -2.265558
     48          8           0       -0.848078   12.997183   -2.519394
     49          1           0       -0.503335   11.229393   -7.138094
     50          1           0       -0.797559   11.042873   -4.392498
     51          1           0        1.507544   12.274670   -4.656796
     52          1           0        0.540349   13.704843   -5.010923
     53          1           0        1.275747   13.252054   -1.266232
     54          1           0        2.316053   12.967912   -2.623917
     55          7           0       -2.582881   12.967198   -4.655440
     56          6           0       -3.941546   13.416862   -4.912029
     57          6           0       -4.577793   12.479982   -5.959456
     58          8           0       -5.165180   12.898193   -6.970004
     59          6           0       -4.005491   14.908710   -5.287510
     60          6           0       -5.398752   15.559270   -5.083036
     61          6           0       -5.918229   16.326620   -6.305996
     62          7           0       -6.133602   15.374015   -7.405074
     63          6           0       -7.309778   15.056469   -7.938747
     64          7           0       -8.286712   15.971306   -8.077257
     65          7           0       -7.513549   13.794636   -8.346151
     66          8           0       -4.443396   11.220196   -5.672856
     67          1           0       -4.398726   10.676990   -6.574656
     68          1           0       -2.205339   12.947365   -3.700446
     69          1           0       -4.495094   13.255564   -3.978515
     70          1           0       -3.648372   15.015566   -6.318199
     71          1           0       -3.271475   15.424278   -4.662694
     72          1           0       -6.144402   14.797343   -4.823193
     73          1           0       -5.363446   16.254636   -4.238097
     74          1           0       -6.862002   16.827274   -6.071086
     75          1           0       -5.200053   17.089117   -6.625270
     76          1           0       -5.491851   14.567733   -7.369039
     77          1           0       -9.225585   15.701361   -8.329694
     78          1           0       -8.080987   16.956764   -8.011954
     79          1           0       -8.223688   13.564477   -9.025119
     80          1           0       -6.845992   13.081597   -8.054990
 ---------------------------------------------------------------------

 SCF Done:  E(RB3LYP) =  -1866.80667097     A.U. after    1 cycles

 Alpha  occ. eigenvalues --  -19.25309 -19.24240 -19.21134 -19.20468 -19.19462
 Alpha  occ. eigenvalues --  -19.18036 -14.51549 -14.50326 -14.49158 -14.44672
 Alpha  occ. eigenvalues --  -14.44134 -14.44012 -14.43474 -14.41752 -10.46968
 Alpha  occ. eigenvalues --  -10.41907 -10.37901 -10.37617 -10.36905 -10.35032
 Alpha  occ. eigenvalues --  -10.35014 -10.33589 -10.31980 -10.31164 -10.30346
 Alpha  occ. eigenvalues --  -10.30274 -10.29177 -10.28629 -10.28314 -10.28094
 Alpha  occ. eigenvalues --  -10.27447 -10.27356 -10.27146 -10.27074 -10.27015
 Alpha  occ. eigenvalues --  -10.26175 -10.24953 -10.22888 -10.22164  -1.18791
 Alpha  occ. eigenvalues --   -1.15567  -1.12841  -1.11963  -1.11808  -1.09922
 Alpha  occ. eigenvalues --   -1.09798  -1.04762  -1.03789  -1.01536  -1.01002
 Alpha  occ. eigenvalues --   -0.99946  -0.98983  -0.98816  -0.93848  -0.90883
 Alpha  occ. eigenvalues --   -0.88145  -0.86790  -0.86628  -0.84680  -0.82701
 Alpha  occ. eigenvalues --   -0.82308  -0.79836  -0.79501  -0.77663  -0.75799
 Alpha  occ. eigenvalues --   -0.74108  -0.73609  -0.72735  -0.72423  -0.71880
 Alpha  occ. eigenvalues --   -0.69715  -0.68878  -0.68754  -0.67650  -0.67078
 Alpha  occ. eigenvalues --   -0.66448  -0.65399  -0.64761  -0.64531  -0.64194
 Alpha  occ. eigenvalues --   -0.63229  -0.62543  -0.62013  -0.61283  -0.60840
 Alpha  occ. eigenvalues --   -0.59520  -0.59104  -0.58505  -0.57967  -0.57821
 Alpha  occ. eigenvalues --   -0.56574  -0.55917  -0.55417  -0.54960  -0.54555
 Alpha  occ. eigenvalues --   -0.54219  -0.53964  -0.53775  -0.53131  -0.52929
 Alpha  occ. eigenvalues --   -0.52301  -0.51861  -0.51289  -0.51082  -0.50771
 Alpha  occ. eigenvalues --   -0.50299  -0.50069  -0.49703  -0.49083  -0.48877
 Alpha  occ. eigenvalues --   -0.48694  -0.47876  -0.47717  -0.47185  -0.46945
 Alpha  occ. eigenvalues --   -0.46663  -0.45836  -0.45658  -0.45460  -0.45113
 Alpha  occ. eigenvalues --   -0.44663  -0.44372  -0.44092  -0.43984  -0.43209
 Alpha  occ. eigenvalues --   -0.42580  -0.42446  -0.42296  -0.42215  -0.41459
 Alpha  occ. eigenvalues --   -0.39701  -0.39523  -0.38955  -0.38433  -0.38213
 Alpha  occ. eigenvalues --   -0.38125  -0.36398  -0.35646  -0.35362  -0.34601
 Alpha  occ. eigenvalues --   -0.34523  -0.34191  -0.33615  -0.33328  -0.32475
 Alpha  occ. eigenvalues --   -0.32040  -0.31129
 Alpha virt. eigenvalues --   -0.11605  -0.09397  -0.08705  -0.08471  -0.07084
 Alpha virt. eigenvalues --   -0.06898  -0.06290  -0.05837  -0.04410  -0.03316
 Alpha virt. eigenvalues --   -0.01211  -0.00650  -0.00424   0.00258   0.00724

 Mulliken charges:
               1
     1  N   -0.804524
     2  C   -0.047193
     3  C    0.618186
     4  O   -0.502505
     5  C   -0.394864
     6  C    0.153555
     7  C   -0.175432
     8  C   -0.199272
     9  C   -0.127898
    10  C   -0.133740
    11  C   -0.129983
    12  H    0.334473
    13  H    0.186953
    14  H    0.167938
    15  H    0.150828
    16  H    0.141803
    17  H    0.129481
    18  H    0.152413
    19  H    0.135684
    20  H    0.145818
    21  H    0.363248
    22  N   -0.663344
    23  C   -0.008021
    24  C    0.628786
    25  O   -0.525503
    26  C   -0.306260
    27  C   -0.075674
    28  C   -0.461041
    29  C   -0.445031
    30  H    0.345223
    31  H    0.194308
    32  H    0.142047
    33  H    0.140210
    34  H    0.143098
    35  H    0.135571
    36  H    0.151302
    37  H    0.177886
    38  H    0.139083
    39  H    0.154733
    40  H    0.144401
    41  N   -0.612253
    42  C   -0.047670
    43  C    0.622934
    44  O   -0.584224
    45  C   -0.374524
    46  C    0.630799
    47  N   -0.734810
    48  O   -0.536131
    49  H    0.346231
    50  H    0.218687
    51  H    0.190027
    52  H    0.184998
    53  H    0.359520
    54  H    0.356452
    55  N   -0.619433
    56  C   -0.027532
    57  C    0.630607
    58  O   -0.579360
    59  C   -0.291311
    60  C   -0.288171
    61  C   -0.173189
    62  N   -0.600623
    63  C    0.778018
    64  N   -0.749384
    65  N   -0.773811
    66  O   -0.562723
    67  H    0.480487
    68  H    0.400490
    69  H    0.187639
    70  H    0.171831
    71  H    0.175727
    72  H    0.159532
    73  H    0.178614
    74  H    0.165462
    75  H    0.189693
    76  H    0.413184
    77  H    0.377940
    78  H    0.383230
    79  H    0.367447
    80  H    0.408858
 Sum of Mulliken charges =   1.00000

 Dipole moment (field-independent basis, Debye):
    X=            -24.4862    Y=             67.8353    Z=            -38.7528  Tot=             81.8718
 Quadrupole moment (field-independent basis, Debye-Ang):
   XX=             -3.5938   YY=            769.7993   ZZ=            113.0797
   XY=           -369.1449   XZ=            223.8507   YZ=           -509.8120

 Normal termination of Gaussian 16 at Sat Jul 16 16:54:25 2022.
