 Gaussian 16, Revision C.01,
 Gaussian 16:  ES64L-G16RevC.01  3-Jul-2019

 ----------------------------------------------------------------------
 # B3LYP/6-31G* empiricaldispersion=gd3bj guess=read geom=check nosymm
 integral(ultrafinegrid)
 ----------------------------------------------------------------------

 ------------------------------------------------------
 Candidate Structure: Conf:797 Charge calc in gas phase
 ------------------------------------------------------
 Structure from the checkpoint file:  "conf-797.chk"
 Charge =  1 Multiplicity = 1

                          Input orientation:
 ---------------------------------------------------------------------
 Center     Atomic      Atomic             Coordinates (Angstroms)
 Number     Number       Type             X           Y           Z
 ---------------------------------------------------------------------
      1          7           0       -4.794046    3.348250    2.494985
      2          1           0       -5.334220    4.074771    2.958007
      3          1           0       -5.353454    2.975053    1.730286
      4          6           0       -3.579158    3.925625    1.926558
      5          1           0       -3.762222    4.859570    1.359287
      6          6           0       -3.077944    2.923486    0.877157
      7          6           0       -2.575231    4.261339    3.047860
      8          1           0       -1.664941    4.687136    2.605637
      9          1           0       -2.307187    3.331856    3.561988
     10          8           0       -3.862842    2.399911    0.087443
     11          6           0       -3.144942    5.256296    4.032459
     12          6           0       -3.001436    6.632163    3.816310
     13          1           0       -2.438629    6.981233    2.952996
     14          6           0       -3.868738    4.823908    5.151118
     15          1           0       -3.994125    3.758440    5.320391
     16          6           0       -3.565048    7.556817    4.695180
     17          1           0       -3.439719    8.620807    4.514621
     18          6           0       -4.434253    5.746106    6.031914
     19          1           0       -4.990501    5.394412    6.896255
     20          6           0       -4.283752    7.115279    5.807011
     21          1           0       -4.720859    7.833216    6.494875
     22          7           0       -1.745516    2.664482    0.832876
     23          1           0       -1.091171    3.067869    1.488823
     24          6           0       -1.203839    1.721875   -0.126633
     25          1           0       -1.894728    0.877039   -0.198084
     26          6           0        0.151222    1.268484    0.409024
     27          6           0       -1.070387    2.384923   -1.517974
     28          1           0       -2.058789    2.801195   -1.741603
     29          1           0       -0.373468    3.228105   -1.418069
     30          8           0        0.862856    2.045320    1.063446
     31          6           0       -0.633781    1.479631   -2.681784
     32          1           0        0.384545    1.115678   -2.485601
     33          6           0       -1.552425    0.263476   -2.866815
     34          1           0       -2.600077    0.578062   -2.940058
     35          1           0       -1.296342   -0.281975   -3.782172
     36          1           0       -1.478922   -0.449290   -2.040590
     37          6           0       -0.607308    2.313365   -3.974402
     38          1           0       -1.621404    2.615703   -4.260378
     39          1           0       -0.021741    3.233296   -3.835726
     40          1           0       -0.188210    1.730439   -4.807054
     41          7           0        0.511302    0.011617    0.080421
     42          1           0       -0.204077   -0.641866   -0.247930
     43          6           0        1.715649   -0.637966    0.605583
     44          1           0        1.820676   -0.372338    1.664113
     45          6           0        2.927105   -0.096988   -0.189981
     46          6           0        1.635014   -2.162938    0.421661
     47          1           0        1.881268   -2.379973   -0.623061
     48          1           0        2.415311   -2.623257    1.034307
     49          8           0        3.390764   -0.685539   -1.161049
     50          6           0        0.262591   -2.760043    0.697830
     51          7           0        0.208010   -3.755693    1.611012
     52          1           0       -0.680289   -4.211210    1.774152
     53          1           0        1.028564   -4.118819    2.071311
     54          8           0       -0.743460   -2.367163    0.098940
     55          7           0        3.368722    1.117962    0.235352
     56          1           0        2.737771    1.617920    0.863790
     57          6           0        4.157518    1.915147   -0.686752
     58          1           0        4.900309    1.242297   -1.132437
     59          6           0        4.923299    3.027061    0.014233
     60          6           0        3.249915    2.462315   -1.807003
     61          1           0        2.582236    3.221574   -1.381758
     62          1           0        2.625420    1.618973   -2.118522
     63          8           0        5.345557    4.011346   -0.556914
     64          6           0        3.967206    3.014865   -3.040885
     65          1           0        4.516409    3.924075   -2.784117
     66          1           0        4.688170    2.272867   -3.409759
     67          6           0        2.924668    3.289941   -4.118396
     68          1           0        2.393402    2.360695   -4.357785
     69          1           0        2.192808    4.020057   -3.754042
     70          7           0        3.535710    3.822257   -5.346562
     71          1           0        4.545875    3.864814   -5.387631
     72          7           0        1.519491    3.964686   -6.472617
     73          1           0        0.950659    4.380429   -7.195873
     74          1           0        1.038889    3.447783   -5.746917
     75          7           0        3.450712    4.773209   -7.463769
     76          1           0        2.989017    4.873062   -8.356220
     77          1           0        4.418424    5.056798   -7.412226
     78          6           0        2.840386    4.181256   -6.422771
     79          8           0        5.101929    2.800822    1.325846
     80          1           0        5.616035    3.555636    1.672879
 ---------------------------------------------------------------------

 SCF Done:  E(RB3LYP) =  -1866.76574326     A.U. after    2 cycles

 Alpha  occ. eigenvalues --  -19.28590 -19.22959 -19.21007 -19.20382 -19.20146
 Alpha  occ. eigenvalues --  -19.16781 -14.54190 -14.54091 -14.54060 -14.44432
 Alpha  occ. eigenvalues --  -14.44369 -14.43759 -14.41989 -14.35344 -10.50515
 Alpha  occ. eigenvalues --  -10.41261 -10.37967 -10.37497 -10.37067 -10.37005
 Alpha  occ. eigenvalues --  -10.34008 -10.33157 -10.32739 -10.30775 -10.30573
 Alpha  occ. eigenvalues --  -10.29470 -10.28383 -10.28085 -10.27925 -10.27400
 Alpha  occ. eigenvalues --  -10.26397 -10.24860 -10.24225 -10.24045 -10.23275
 Alpha  occ. eigenvalues --  -10.23215 -10.23094 -10.23002 -10.22871  -1.19691
 Alpha  occ. eigenvalues --   -1.19044  -1.13006  -1.11974  -1.11873  -1.10553
 Alpha  occ. eigenvalues --   -1.08933  -1.08194  -1.07139  -1.01604  -1.01131
 Alpha  occ. eigenvalues --   -0.99104  -0.98630  -0.93404  -0.92586  -0.89778
 Alpha  occ. eigenvalues --   -0.89545  -0.87776  -0.86077  -0.83098  -0.82143
 Alpha  occ. eigenvalues --   -0.81730  -0.79747  -0.78554  -0.77462  -0.76849
 Alpha  occ. eigenvalues --   -0.76489  -0.76252  -0.73737  -0.73153  -0.72030
 Alpha  occ. eigenvalues --   -0.69896  -0.68834  -0.68172  -0.67402  -0.66923
 Alpha  occ. eigenvalues --   -0.66827  -0.65901  -0.65384  -0.64721  -0.63905
 Alpha  occ. eigenvalues --   -0.63405  -0.62424  -0.62148  -0.62077  -0.61366
 Alpha  occ. eigenvalues --   -0.59663  -0.58875  -0.58707  -0.57513  -0.56797
 Alpha  occ. eigenvalues --   -0.56458  -0.56157  -0.55302  -0.55010  -0.54648
 Alpha  occ. eigenvalues --   -0.53957  -0.53486  -0.53276  -0.52885  -0.52124
 Alpha  occ. eigenvalues --   -0.51475  -0.51092  -0.50521  -0.50150  -0.49903
 Alpha  occ. eigenvalues --   -0.49589  -0.49415  -0.49172  -0.48373  -0.48099
 Alpha  occ. eigenvalues --   -0.47657  -0.47464  -0.46988  -0.46842  -0.46344
 Alpha  occ. eigenvalues --   -0.46117  -0.45944  -0.45730  -0.45485  -0.45222
 Alpha  occ. eigenvalues --   -0.45118  -0.44249  -0.43920  -0.43629  -0.43568
 Alpha  occ. eigenvalues --   -0.42788  -0.42664  -0.42208  -0.41254  -0.41000
 Alpha  occ. eigenvalues --   -0.40641  -0.40201  -0.39565  -0.38424  -0.38093
 Alpha  occ. eigenvalues --   -0.36875  -0.36414  -0.35760  -0.35117  -0.34121
 Alpha  occ. eigenvalues --   -0.34003  -0.32533  -0.31317  -0.31106  -0.29204
 Alpha  occ. eigenvalues --   -0.28459  -0.27794
 Alpha virt. eigenvalues --   -0.13951  -0.10299  -0.08424  -0.07350  -0.06631
 Alpha virt. eigenvalues --   -0.06356  -0.05716  -0.05564  -0.04996  -0.04464
 Alpha virt. eigenvalues --   -0.04339  -0.03024  -0.02851  -0.01604  -0.00817

 Mulliken charges:
               1
     1  N   -0.732262
     2  H    0.311029
     3  H    0.324211
     4  C   -0.046667
     5  H    0.139043
     6  C    0.634987
     7  C   -0.360782
     8  H    0.130287
     9  H    0.159321
    10  O   -0.544559
    11  C    0.145408
    12  C   -0.178592
    13  H    0.115215
    14  C   -0.177203
    15  H    0.145283
    16  C   -0.128935
    17  H    0.132949
    18  C   -0.131599
    19  H    0.138017
    20  C   -0.128937
    21  H    0.136920
    22  N   -0.642550
    23  H    0.358639
    24  C   -0.028551
    25  H    0.193712
    26  C    0.609207
    27  C   -0.264057
    28  H    0.180435
    29  H    0.127098
    30  O   -0.570775
    31  C   -0.092272
    32  H    0.135473
    33  C   -0.467098
    34  H    0.170429
    35  H    0.145145
    36  H    0.173220
    37  C   -0.478262
    38  H    0.174321
    39  H    0.118408
    40  H    0.133369
    41  N   -0.641639
    42  H    0.411172
    43  C   -0.059632
    44  H    0.185187
    45  C    0.627668
    46  C   -0.399869
    47  H    0.222748
    48  H    0.165864
    49  O   -0.528032
    50  C    0.620099
    51  N   -0.738994
    52  H    0.362191
    53  H    0.354150
    54  O   -0.532382
    55  N   -0.602629
    56  H    0.378711
    57  C   -0.059845
    58  H    0.211498
    59  C    0.590108
    60  C   -0.294529
    61  H    0.164496
    62  H    0.182565
    63  O   -0.468151
    64  C   -0.323150
    65  H    0.204876
    66  H    0.164087
    67  C   -0.151840
    68  H    0.189253
    69  H    0.193479
    70  N   -0.614592
    71  H    0.370518
    72  N   -0.775168
    73  H    0.385260
    74  H    0.409704
    75  N   -0.768313
    76  H    0.387412
    77  H    0.387590
    78  C    0.848468
    79  O   -0.542879
    80  H    0.425515
 Sum of Mulliken charges =   1.00000

 Dipole moment (field-independent basis, Debye):
    X=             13.7955    Y=             15.2309    Z=            -21.7487  Tot=             29.9216
 Quadrupole moment (field-independent basis, Debye-Ang):
   XX=           -185.7455   YY=           -123.3024   ZZ=            -32.3606
   XY=             42.0333   XZ=            -70.1259   YZ=           -118.5404

 Normal termination of Gaussian 16 at Tue Oct 18 19:30:55 2022.
