 Gaussian 16, Revision C.01,
 Gaussian 16:  ES64L-G16RevC.01  3-Jul-2019

 ----------------------------------------------------------------------
 # B3LYP/6-31G* empiricaldispersion=gd3bj guess=read geom=check nosymm
 integral(ultrafinegrid)
 ----------------------------------------------------------------------

 ------------------------------------------------------
 Candidate Structure: Conf:746 Charge calc in gas phase
 ------------------------------------------------------
 Structure from the checkpoint file:  "conf-746.chk"
 Charge =  1 Multiplicity = 1

                          Input orientation:
 ---------------------------------------------------------------------
 Center     Atomic      Atomic             Coordinates (Angstroms)
 Number     Number       Type             X           Y           Z
 ---------------------------------------------------------------------
      1          7           0       -4.551084    0.014206    3.838262
      2          1           0       -5.452130   -0.006586    3.363768
      3          1           0       -4.307852   -0.962616    4.000221
      4          6           0       -3.553234    0.592707    2.960225
      5          1           0       -3.852065    1.626650    2.736368
      6          6           0       -3.412633   -0.151029    1.618452
      7          6           0       -2.182558    0.657242    3.690896
      8          1           0       -2.305295    1.343412    4.533590
      9          1           0       -1.434375    1.093274    3.016945
     10          8           0       -3.855656   -1.274387    1.427739
     11          6           0       -1.716926   -0.690897    4.189070
     12          6           0       -1.928616   -1.064722    5.521151
     13          1           0       -2.402870   -0.362235    6.200728
     14          6           0       -1.122427   -1.614893    3.320130
     15          1           0       -0.964693   -1.345911    2.281334
     16          6           0       -1.547417   -2.327973    5.975961
     17          1           0       -1.716288   -2.600257    7.013823
     18          6           0       -0.751094   -2.882092    3.765812
     19          1           0       -0.324815   -3.589833    3.062743
     20          6           0       -0.959162   -3.239714    5.099288
     21          1           0       -0.671927   -4.226482    5.450823
     22          7           0       -2.733285    0.542851    0.643314
     23          1           0       -2.403404    1.477626    0.844165
     24          6           0       -2.431250   -0.026371   -0.661378
     25          1           0       -2.707104   -1.081134   -0.587979
     26          6           0       -0.917438    0.090526   -0.884163
     27          6           0       -3.221686    0.650558   -1.783721
     28          1           0       -2.931160    1.711761   -1.782540
     29          1           0       -2.896730    0.211681   -2.740535
     30          8           0       -0.413656    1.032245   -1.525873
     31          6           0       -4.749940    0.537372   -1.666354
     32          1           0       -5.037508    0.948278   -0.689838
     33          6           0       -5.415918    1.392880   -2.752333
     34          1           0       -5.150468    1.032942   -3.756371
     35          1           0       -6.506701    1.351837   -2.673533
     36          1           0       -5.123690    2.449240   -2.669536
     37          6           0       -5.230464   -0.917478   -1.735183
     38          1           0       -4.887336   -1.401119   -2.659263
     39          1           0       -4.873524   -1.498670   -0.880789
     40          1           0       -6.324735   -0.958721   -1.726969
     41          7           0       -0.184346   -0.835934   -0.247598
     42          1           0       -0.618227   -1.696180    0.096910
     43          6           0        1.265289   -0.853203   -0.275075
     44          1           0        1.626966    0.143272    0.001761
     45          6           0        1.774212   -1.198482   -1.687800
     46          6           0        1.802036   -1.878404    0.747620
     47          1           0        2.895104   -1.881492    0.702184
     48          1           0        1.505288   -1.566291    1.754647
     49          8           0        1.147484   -1.929287   -2.439758
     50          6           0        1.209924   -3.266007    0.515130
     51          7           0        2.083960   -4.269172    0.285205
     52          1           0        1.717025   -5.194298    0.103558
     53          1           0        3.078135   -4.120115    0.205539
     54          8           0       -0.008642   -3.443694    0.560858
     55          7           0        2.976790   -0.636595   -2.010414
     56          1           0        3.402599    0.018931   -1.369009
     57          6           0        3.468147   -0.666873   -3.376833
     58          1           0        3.013296   -1.553530   -3.832853
     59          6           0        4.977909   -0.841248   -3.467035
     60          6           0        3.030177    0.583160   -4.177924
     61          1           0        3.373474    0.464748   -5.209664
     62          1           0        3.545500    1.464232   -3.770208
     63          8           0        5.604342   -0.663943   -4.484783
     64          6           0        1.518227    0.772067   -4.079692
     65          1           0        0.991993   -0.063297   -4.553254
     66          1           0        1.235916    0.757117   -3.026583
     67          6           0        0.996617    2.091774   -4.639824
     68          1           0        1.619018    2.931207   -4.302599
     69          1           0        0.988495    2.088135   -5.735120
     70          7           0       -0.381816    2.274339   -4.153348
     71          1           0       -0.591378    1.864905   -3.231684
     72          7           0       -1.053778    3.715955   -5.851857
     73          1           0       -1.778695    3.992999   -6.497361
     74          1           0       -0.101278    3.938819   -6.096219
     75          7           0       -2.617972    2.823341   -4.406456
     76          1           0       -3.297082    3.528562   -4.652712
     77          1           0       -2.877464    2.165714   -3.683139
     78          6           0       -1.334954    2.935750   -4.792235
     79          8           0        5.541811   -1.212939   -2.296135
     80          1           0        6.498358   -1.304997   -2.473261
 ---------------------------------------------------------------------

 SCF Done:  E(RB3LYP) =  -1866.78827349     A.U. after    3 cycles

 Alpha  occ. eigenvalues --  -19.29315 -19.23497 -19.23218 -19.21634 -19.21053
 Alpha  occ. eigenvalues --  -19.19463 -14.52349 -14.51490 -14.51121 -14.46638
 Alpha  occ. eigenvalues --  -14.45983 -14.45451 -14.44815 -14.37270 -10.48111
 Alpha  occ. eigenvalues --  -10.41609 -10.39639 -10.38966 -10.38837 -10.36016
 Alpha  occ. eigenvalues --  -10.35722 -10.34601 -10.34026 -10.32750 -10.30575
 Alpha  occ. eigenvalues --  -10.29598 -10.29461 -10.29252 -10.28908 -10.27845
 Alpha  occ. eigenvalues --  -10.26840 -10.25987 -10.25199 -10.24425 -10.24332
 Alpha  occ. eigenvalues --  -10.24177 -10.24132 -10.24089 -10.24072  -1.20110
 Alpha  occ. eigenvalues --   -1.16673  -1.14841  -1.13654  -1.12888  -1.11416
 Alpha  occ. eigenvalues --   -1.11066  -1.05774  -1.04957  -1.03305  -1.03206
 Alpha  occ. eigenvalues --   -1.01135  -1.00178  -0.95451  -0.91579  -0.90769
 Alpha  occ. eigenvalues --   -0.90442  -0.89377  -0.86439  -0.84625  -0.83212
 Alpha  occ. eigenvalues --   -0.81112  -0.79698  -0.78790  -0.77878  -0.77785
 Alpha  occ. eigenvalues --   -0.76614  -0.74838  -0.74553  -0.72195  -0.71487
 Alpha  occ. eigenvalues --   -0.70395  -0.70043  -0.69847  -0.68274  -0.68271
 Alpha  occ. eigenvalues --   -0.67063  -0.65979  -0.65869  -0.65526  -0.64562
 Alpha  occ. eigenvalues --   -0.63979  -0.63579  -0.63087  -0.61322  -0.60931
 Alpha  occ. eigenvalues --   -0.60096  -0.59133  -0.58854  -0.57773  -0.57584
 Alpha  occ. eigenvalues --   -0.57363  -0.57138  -0.56615  -0.56006  -0.55970
 Alpha  occ. eigenvalues --   -0.55736  -0.55090  -0.54534  -0.53509  -0.52617
 Alpha  occ. eigenvalues --   -0.52332  -0.51950  -0.51496  -0.51333  -0.50880
 Alpha  occ. eigenvalues --   -0.50360  -0.49980  -0.49749  -0.49511  -0.49436
 Alpha  occ. eigenvalues --   -0.49130  -0.48642  -0.47941  -0.47811  -0.47465
 Alpha  occ. eigenvalues --   -0.47170  -0.46966  -0.46772  -0.46642  -0.45751
 Alpha  occ. eigenvalues --   -0.45457  -0.45366  -0.44811  -0.44533  -0.44183
 Alpha  occ. eigenvalues --   -0.43317  -0.43228  -0.41694  -0.41254  -0.41197
 Alpha  occ. eigenvalues --   -0.41140  -0.40764  -0.40527  -0.39337  -0.38920
 Alpha  occ. eigenvalues --   -0.37965  -0.37896  -0.37300  -0.36274  -0.35709
 Alpha  occ. eigenvalues --   -0.34853  -0.34595  -0.33541  -0.33320  -0.30592
 Alpha  occ. eigenvalues --   -0.30232  -0.29459
 Alpha virt. eigenvalues --   -0.12221  -0.09741  -0.08693  -0.08154  -0.07764
 Alpha virt. eigenvalues --   -0.07391  -0.06165  -0.05552  -0.04776  -0.04441
 Alpha virt. eigenvalues --   -0.02911  -0.02656  -0.01633  -0.01173  -0.00788

 Mulliken charges:
               1
     1  N   -0.691860
     2  H    0.307015
     3  H    0.326624
     4  C   -0.080582
     5  H    0.140758
     6  C    0.599620
     7  C   -0.345005
     8  H    0.172343
     9  H    0.127627
    10  O   -0.506163
    11  C    0.141812
    12  C   -0.179756
    13  H    0.143670
    14  C   -0.175230
    15  H    0.105312
    16  C   -0.126682
    17  H    0.141725
    18  C   -0.144332
    19  H    0.146531
    20  C   -0.130123
    21  H    0.137195
    22  N   -0.607616
    23  H    0.330861
    24  C   -0.071331
    25  H    0.215279
    26  C    0.643195
    27  C   -0.283299
    28  H    0.120782
    29  H    0.136954
    30  O   -0.580115
    31  C   -0.063279
    32  H    0.143821
    33  C   -0.467274
    34  H    0.137189
    35  H    0.176445
    36  H    0.118585
    37  C   -0.473478
    38  H    0.138243
    39  H    0.197205
    40  H    0.157773
    41  N   -0.600360
    42  H    0.411263
    43  C   -0.071653
    44  H    0.165173
    45  C    0.637065
    46  C   -0.390081
    47  H    0.164853
    48  H    0.216906
    49  O   -0.512157
    50  C    0.635083
    51  N   -0.733410
    52  H    0.365705
    53  H    0.354497
    54  O   -0.519532
    55  N   -0.604664
    56  H    0.336899
    57  C   -0.068709
    58  H    0.227080
    59  C    0.593795
    60  C   -0.271525
    61  H    0.187404
    62  H    0.142723
    63  O   -0.446050
    64  C   -0.324883
    65  H    0.180090
    66  H    0.194962
    67  C   -0.150105
    68  H    0.177873
    69  H    0.171536
    70  N   -0.631761
    71  H    0.416462
    72  N   -0.760794
    73  H    0.381793
    74  H    0.387381
    75  N   -0.791969
    76  H    0.374600
    77  H    0.406121
    78  C    0.812113
    79  O   -0.570317
    80  H    0.426154
 Sum of Mulliken charges =   1.00000

 Dipole moment (field-independent basis, Debye):
    X=              1.1510    Y=              9.2311    Z=            -15.0936  Tot=             17.7300
 Quadrupole moment (field-independent basis, Debye-Ang):
   XX=           -178.0665   YY=           -174.2278   ZZ=           -140.5822
   XY=            -39.9368   XZ=             28.8444   YZ=            -63.2981

 Normal termination of Gaussian 16 at Tue Oct 18 19:31:18 2022.
