 Gaussian 16, Revision C.01,
 Gaussian 16:  ES64L-G16RevC.01  3-Jul-2019

 ----------------------------------------------------------------------
 # B3LYP/6-31G* empiricaldispersion=gd3bj guess=read geom=check nosymm
 integral(ultrafinegrid)
 ----------------------------------------------------------------------

 ------------------------------------------------------
 Candidate Structure: Conf:684 Charge calc in gas phase
 ------------------------------------------------------
 Structure from the checkpoint file:  "conf-684.chk"
 Charge =  1 Multiplicity = 1

                          Input orientation:
 ---------------------------------------------------------------------
 Center     Atomic      Atomic             Coordinates (Angstroms)
 Number     Number       Type             X           Y           Z
 ---------------------------------------------------------------------
      1          7           0       -1.690593   12.532961   -8.363389
      2          6           0       -1.727626   11.714499   -9.590852
      3          6           0       -2.973528   10.812311   -9.503721
      4          8           0       -4.086098   11.307789   -9.390980
      5          6           0       -0.387058   10.997467   -9.867786
      6          6           0        0.757083   11.978355   -9.977900
      7          6           0        0.942018   12.724155  -11.149557
      8          6           0        1.615462   12.204526   -8.894617
      9          6           0        1.962419   13.669302  -11.238437
     10          6           0        2.639514   13.149960   -8.980817
     11          6           0        2.814608   13.885120  -10.153014
     12          1           0       -0.853919   13.116128   -8.373644
     13          1           0       -1.928288   12.400968  -10.420698
     14          1           0       -0.476607   10.426010  -10.800282
     15          1           0       -0.180798   10.285749   -9.057804
     16          1           0        0.286838   12.555848  -12.001044
     17          1           0        1.492812   11.620614   -7.985061
     18          1           0        2.098209   14.231637  -12.157450
     19          1           0        3.308424   13.299287   -8.137723
     20          1           0        3.616331   14.613881  -10.226831
     21          1           0       -1.622456   11.927147   -7.541362
     22          7           0       -2.771273    9.461974   -9.511343
     23          6           0       -3.898995    8.531452   -9.558927
     24          6           0       -4.856360    8.732680   -8.376884
     25          8           0       -6.051500    8.504210   -8.487399
     26          6           0       -3.401417    7.080621   -9.608513
     27          6           0       -2.506526    6.722825  -10.810500
     28          6           0       -2.119537    5.240333  -10.736948
     29          6           0       -3.172624    7.053128  -12.151129
     30          1           0       -1.851777    9.093994   -9.703248
     31          1           0       -4.512466    8.749253  -10.438026
     32          1           0       -2.869699    6.853885   -8.674231
     33          1           0       -4.293665    6.443769   -9.624411
     34          1           0       -1.571521    7.304053  -10.744575
     35          1           0       -3.008962    4.604753  -10.824862
     36          1           0       -1.435445    4.971879  -11.548836
     37          1           0       -1.628741    5.000271   -9.786754
     38          1           0       -4.134707    6.534829  -12.244381
     39          1           0       -3.358146    8.126348  -12.267504
     40          1           0       -2.539682    6.734428  -12.986047
     41          7           0       -4.282998    9.143358   -7.203770
     42          6           0       -5.099870    9.925642   -6.296521
     43          6           0       -4.215043   11.078923   -5.798415
     44          8           0       -2.991534   11.091821   -6.001962
     45          6           0       -5.724615    9.060324   -5.179645
     46          6           0       -7.022401    9.642873   -4.631705
     47          7           0       -7.912693    8.738737   -4.162277
     48          8           0       -7.252551   10.855140   -4.585108
     49          1           0       -3.320506    9.461433   -7.241220
     50          1           0       -5.921676   10.362808   -6.874323
     51          1           0       -5.913846    8.074433   -5.612306
     52          1           0       -5.020993    8.918877   -4.349240
     53          1           0       -8.807666    9.076589   -3.833717
     54          1           0       -7.807878    7.748881   -4.327337
     55          7           0       -4.867436   12.086434   -5.197111
     56          6           0       -4.215933   13.342334   -4.862847
     57          6           0       -3.208065   13.683720   -5.979306
     58          8           0       -2.028682   13.996348   -5.750215
     59          6           0       -3.603636   13.327877   -3.450142
     60          6           0       -3.351123   14.735614   -2.849541
     61          6           0       -1.930991   14.940324   -2.305849
     62          7           0       -0.980022   14.860880   -3.424437
     63          6           0       -0.236544   15.863827   -3.883637
     64          7           0        0.279521   16.789963   -3.055015
     65          7           0       -0.001557   15.941475   -5.201977
     66          8           0       -3.720021   13.622682   -7.171504
     67          1           0       -2.959966   13.350686   -7.846498
     68          1           0       -5.864931   11.941994   -5.004130
     69          1           0       -4.997489   14.111088   -4.909782
     70          1           0       -2.689647   12.723736   -3.481700
     71          1           0       -4.300149   12.781747   -2.808454
     72          1           0       -3.538382   15.513191   -3.600799
     73          1           0       -4.055604   14.922516   -2.032545
     74          1           0       -1.842849   15.918828   -1.824998
     75          1           0       -1.680118   14.174384   -1.564589
     76          1           0       -1.299785   14.235878   -4.179675
     77          1           0        0.707078   17.631659   -3.411135
     78          1           0        0.329456   16.619950   -2.061869
     79          1           0        0.781365   16.459594   -5.571898
     80          1           0       -0.557818   15.356752   -5.824697
 ---------------------------------------------------------------------

 SCF Done:  E(RB3LYP) =  -1866.80597077     A.U. after    3 cycles

 Alpha  occ. eigenvalues --  -19.25284 -19.24195 -19.21066 -19.20431 -19.19359
 Alpha  occ. eigenvalues --  -19.17711 -14.51529 -14.50301 -14.49135 -14.44488
 Alpha  occ. eigenvalues --  -14.44071 -14.44028 -14.43371 -14.41575 -10.46946
 Alpha  occ. eigenvalues --  -10.41886 -10.37861 -10.37562 -10.36777 -10.34995
 Alpha  occ. eigenvalues --  -10.34770 -10.33568 -10.31893 -10.31079 -10.30260
 Alpha  occ. eigenvalues --  -10.30126 -10.29177 -10.28557 -10.28244 -10.28018
 Alpha  occ. eigenvalues --  -10.27376 -10.27285 -10.27087 -10.27014 -10.26951
 Alpha  occ. eigenvalues --  -10.26316 -10.26015 -10.23703 -10.23636  -1.18759
 Alpha  occ. eigenvalues --   -1.15545  -1.12778  -1.11912  -1.11700  -1.09832
 Alpha  occ. eigenvalues --   -1.09610  -1.04739  -1.03768  -1.01518  -1.00906
 Alpha  occ. eigenvalues --   -0.99846  -0.98905  -0.98678  -0.93782  -0.90862
 Alpha  occ. eigenvalues --   -0.88433  -0.86808  -0.86665  -0.84709  -0.82657
 Alpha  occ. eigenvalues --   -0.82508  -0.79978  -0.79543  -0.77644  -0.75705
 Alpha  occ. eigenvalues --   -0.74753  -0.74100  -0.72724  -0.72410  -0.71897
 Alpha  occ. eigenvalues --   -0.69709  -0.68821  -0.68722  -0.67464  -0.67040
 Alpha  occ. eigenvalues --   -0.66378  -0.65355  -0.64728  -0.64510  -0.64116
 Alpha  occ. eigenvalues --   -0.63286  -0.63164  -0.61910  -0.61678  -0.60880
 Alpha  occ. eigenvalues --   -0.59452  -0.59036  -0.58353  -0.57916  -0.57754
 Alpha  occ. eigenvalues --   -0.56559  -0.55870  -0.55321  -0.54837  -0.54531
 Alpha  occ. eigenvalues --   -0.54250  -0.53899  -0.53717  -0.53168  -0.52912
 Alpha  occ. eigenvalues --   -0.52471  -0.51883  -0.51263  -0.51064  -0.50718
 Alpha  occ. eigenvalues --   -0.50707  -0.50185  -0.49814  -0.49592  -0.48946
 Alpha  occ. eigenvalues --   -0.48229  -0.47887  -0.47713  -0.47249  -0.46895
 Alpha  occ. eigenvalues --   -0.46255  -0.45899  -0.45506  -0.45364  -0.45059
 Alpha  occ. eigenvalues --   -0.44854  -0.44717  -0.44531  -0.43933  -0.43611
 Alpha  occ. eigenvalues --   -0.43295  -0.42448  -0.42280  -0.42162  -0.41765
 Alpha  occ. eigenvalues --   -0.39674  -0.39543  -0.39497  -0.39425  -0.39068
 Alpha  occ. eigenvalues --   -0.38099  -0.36322  -0.35641  -0.35251  -0.34593
 Alpha  occ. eigenvalues --   -0.34455  -0.34145  -0.33583  -0.33263  -0.32341
 Alpha  occ. eigenvalues --   -0.31870  -0.30855
 Alpha virt. eigenvalues --   -0.11591  -0.09335  -0.08641  -0.08407  -0.07072
 Alpha virt. eigenvalues --   -0.06862  -0.06242  -0.05764  -0.04018  -0.03293
 Alpha virt. eigenvalues --   -0.01458  -0.01091  -0.00460   0.00362   0.00394

 Mulliken charges:
               1
     1  N   -0.803741
     2  C   -0.047835
     3  C    0.615066
     4  O   -0.502198
     5  C   -0.397273
     6  C    0.154660
     7  C   -0.175586
     8  C   -0.199083
     9  C   -0.128063
    10  C   -0.133559
    11  C   -0.129991
    12  H    0.333872
    13  H    0.186324
    14  H    0.167546
    15  H    0.151359
    16  H    0.141104
    17  H    0.129351
    18  H    0.152003
    19  H    0.135952
    20  H    0.145701
    21  H    0.363508
    22  N   -0.662837
    23  C   -0.015388
    24  C    0.613994
    25  O   -0.520546
    26  C   -0.301484
    27  C   -0.085934
    28  C   -0.442747
    29  C   -0.450457
    30  H    0.352171
    31  H    0.193807
    32  H    0.141308
    33  H    0.174736
    34  H    0.108190
    35  H    0.154726
    36  H    0.154500
    37  H    0.144593
    38  H    0.158884
    39  H    0.146473
    40  H    0.155466
    41  N   -0.613290
    42  C   -0.045341
    43  C    0.623260
    44  O   -0.583449
    45  C   -0.375722
    46  C    0.629492
    47  N   -0.735380
    48  O   -0.536313
    49  H    0.345356
    50  H    0.215752
    51  H    0.192914
    52  H    0.184611
    53  H    0.359127
    54  H    0.355931
    55  N   -0.617662
    56  C   -0.027106
    57  C    0.630736
    58  O   -0.579443
    59  C   -0.291693
    60  C   -0.287913
    61  C   -0.173363
    62  N   -0.600540
    63  C    0.777801
    64  N   -0.749255
    65  N   -0.773703
    66  O   -0.561436
    67  H    0.480340
    68  H    0.399107
    69  H    0.187601
    70  H    0.171407
    71  H    0.175856
    72  H    0.159514
    73  H    0.178644
    74  H    0.165513
    75  H    0.189621
    76  H    0.413068
    77  H    0.377854
    78  H    0.383166
    79  H    0.367393
    80  H    0.408975
 Sum of Mulliken charges =   1.00000

 Dipole moment (field-independent basis, Debye):
    X=             -3.3831    Y=             65.4147    Z=            -22.8899  Tot=             69.3864
 Quadrupole moment (field-independent basis, Debye-Ang):
   XX=           -195.8803   YY=            748.5706   ZZ=            -63.2820
   XY=             -4.6729   XZ=            -16.2088   YZ=           -283.7677

 Normal termination of Gaussian 16 at Sat Jul 16 16:54:57 2022.
