 Gaussian 16, Revision C.01,
 Gaussian 16:  ES64L-G16RevC.01  3-Jul-2019

 ----------------------------------------------------------------------
 # B3LYP/6-31G* empiricaldispersion=gd3bj guess=read geom=check nosymm
 integral(ultrafinegrid)
 ----------------------------------------------------------------------

 -----------------------------------------------------
 Candidate Structure: Conf:95 Charge calc in gas phase
 -----------------------------------------------------
 Structure from the checkpoint file:  "conf-95.chk"
 Charge =  1 Multiplicity = 1

                          Input orientation:
 ---------------------------------------------------------------------
 Center     Atomic      Atomic             Coordinates (Angstroms)
 Number     Number       Type             X           Y           Z
 ---------------------------------------------------------------------
      1          7           0       -2.408283    1.424246    3.248929
      2          1           0       -2.570381    1.729792    4.206704
      3          1           0       -2.428673    0.405049    3.232344
      4          6           0       -3.507850    1.906123    2.398675
      5          1           0       -4.492303    1.701627    2.852597
      6          6           0       -3.454053    1.075492    1.106098
      7          6           0       -3.381539    3.428326    2.186859
      8          1           0       -4.266801    3.789502    1.646693
      9          1           0       -2.502186    3.629028    1.564834
     10          8           0       -3.052522   -0.091498    1.142833
     11          6           0       -3.261430    4.177149    3.495352
     12          6           0       -4.336696    4.222507    4.392709
     13          1           0       -5.279340    3.748092    4.128623
     14          6           0       -2.063667    4.806608    3.849707
     15          1           0       -1.228994    4.786475    3.153848
     16          6           0       -4.214302    4.877228    5.617426
     17          1           0       -5.058237    4.906604    6.300404
     18          6           0       -1.938450    5.466346    5.073141
     19          1           0       -1.003391    5.955833    5.330142
     20          6           0       -3.012927    5.500305    5.961740
     21          1           0       -2.918152    6.012891    6.914256
     22          7           0       -3.868996    1.670313   -0.039762
     23          1           0       -4.017590    2.670402   -0.034320
     24          6           0       -3.602449    1.078081   -1.362752
     25          1           0       -3.730999    0.000102   -1.252828
     26          6           0       -2.124945    1.416230   -1.644488
     27          6           0       -4.545143    1.641288   -2.419152
     28          1           0       -4.296638    2.697993   -2.576213
     29          1           0       -4.314894    1.136088   -3.366405
     30          8           0       -1.784049    2.453358   -2.202542
     31          6           0       -6.041689    1.482409   -2.103228
     32          1           0       -6.255623    2.038221   -1.178798
     33          6           0       -6.876966    2.102380   -3.229810
     34          1           0       -6.714400    1.568127   -4.174336
     35          1           0       -7.946723    2.053157   -2.999531
     36          1           0       -6.613518    3.154061   -3.391622
     37          6           0       -6.434694    0.018325   -1.869924
     38          1           0       -6.180044   -0.597813   -2.741934
     39          1           0       -5.932022   -0.409096   -0.995558
     40          1           0       -7.513806   -0.071450   -1.704829
     41          7           0       -1.251491    0.541250   -1.070986
     42          1           0       -1.658305   -0.212854   -0.529589
     43          6           0        0.079057    0.972832   -0.706964
     44          1           0        0.111386    2.049632   -0.906270
     45          6           0        1.170757    0.343749   -1.584586
     46          6           0        0.337147    0.714914    0.807111
     47          1           0       -0.604928    0.462582    1.295789
     48          1           0        1.016737   -0.134144    0.940784
     49          8           0        0.945902   -0.465282   -2.477090
     50          6           0        0.982305    1.923939    1.466051
     51          7           0        0.325226    2.420020    2.530943
     52          1           0        0.728843    3.218069    3.003392
     53          1           0       -0.595970    2.064880    2.829743
     54          8           0        2.033871    2.408802    1.025157
     55          7           0        2.417904    0.803323   -1.278051
     56          1           0        2.519686    1.426526   -0.465287
     57          6           0        3.574731    0.239184   -1.929358
     58          1           0        3.245420   -0.722652   -2.348033
     59          6           0        4.703265   -0.076661   -0.955591
     60          6           0        4.098652    1.110725   -3.081751
     61          1           0        4.977110    0.612212   -3.506181
     62          1           0        4.450523    2.069970   -2.680611
     63          8           0        5.875724   -0.090966   -1.263059
     64          6           0        3.020362    1.356916   -4.140144
     65          1           0        2.567131    0.411842   -4.464818
     66          1           0        2.199857    1.935955   -3.706378
     67          6           0        3.538703    2.129307   -5.349879
     68          1           0        2.719318    2.361701   -6.040511
     69          1           0        4.009906    3.065612   -5.030333
     70          7           0        4.560878    1.331125   -6.056947
     71          1           0        4.521164    0.327845   -5.924250
     72          7           0        5.465074    3.078305   -7.281051
     73          1           0        6.279039    3.527424   -7.675330
     74          1           0        4.633018    3.637479   -7.162587
     75          7           0        6.532439    1.025006   -7.237481
     76          1           0        7.117805    1.271604   -8.022533
     77          1           0        6.727268    0.152505   -6.767276
     78          6           0        5.510010    1.808520   -6.853643
     79          8           0        4.253280   -0.377151    0.277292
     80          1           0        5.039641   -0.580066    0.819247
 ---------------------------------------------------------------------

 SCF Done:  E(RB3LYP) =  -1866.77980214     A.U. after    1 cycles

 Alpha  occ. eigenvalues --  -19.27407 -19.21715 -19.19741 -19.18190 -19.18090
 Alpha  occ. eigenvalues --  -19.17852 -14.54009 -14.53772 -14.53688 -14.44194
 Alpha  occ. eigenvalues --  -14.41791 -14.41732 -14.41245 -14.40261 -10.50158
 Alpha  occ. eigenvalues --  -10.39900 -10.36717 -10.36539 -10.35624 -10.34918
 Alpha  occ. eigenvalues --  -10.34734 -10.31694 -10.30604 -10.30044 -10.29817
 Alpha  occ. eigenvalues --  -10.29704 -10.28465 -10.26920 -10.26365 -10.26288
 Alpha  occ. eigenvalues --  -10.25237 -10.25232 -10.25138 -10.25121 -10.24911
 Alpha  occ. eigenvalues --  -10.24583 -10.24362 -10.22521 -10.22425  -1.18681
 Alpha  occ. eigenvalues --   -1.18396  -1.11763  -1.10273  -1.09554  -1.09419
 Alpha  occ. eigenvalues --   -1.09338  -1.07779  -1.06862  -1.00473  -0.99413
 Alpha  occ. eigenvalues --   -0.98849  -0.97381  -0.96262  -0.91776  -0.91572
 Alpha  occ. eigenvalues --   -0.87341  -0.86509  -0.84879  -0.84033  -0.81517
 Alpha  occ. eigenvalues --   -0.81183  -0.80635  -0.78942  -0.78260  -0.76093
 Alpha  occ. eigenvalues --   -0.74954  -0.73509  -0.73438  -0.72510  -0.70846
 Alpha  occ. eigenvalues --   -0.70470  -0.67748  -0.67387  -0.66950  -0.66883
 Alpha  occ. eigenvalues --   -0.66320  -0.65991  -0.64623  -0.64318  -0.63930
 Alpha  occ. eigenvalues --   -0.62301  -0.62194  -0.60553  -0.60277  -0.59718
 Alpha  occ. eigenvalues --   -0.59548  -0.57693  -0.57264  -0.57006  -0.56606
 Alpha  occ. eigenvalues --   -0.56345  -0.55963  -0.55332  -0.54870  -0.54371
 Alpha  occ. eigenvalues --   -0.53531  -0.52951  -0.51985  -0.51958  -0.51485
 Alpha  occ. eigenvalues --   -0.51375  -0.51054  -0.50002  -0.49302  -0.49132
 Alpha  occ. eigenvalues --   -0.48707  -0.48242  -0.48140  -0.47849  -0.47441
 Alpha  occ. eigenvalues --   -0.46940  -0.46804  -0.46665  -0.46242  -0.45860
 Alpha  occ. eigenvalues --   -0.45475  -0.45322  -0.45070  -0.44898  -0.44690
 Alpha  occ. eigenvalues --   -0.43873  -0.43726  -0.43433  -0.43140  -0.42698
 Alpha  occ. eigenvalues --   -0.42145  -0.41839  -0.41780  -0.41381  -0.40516
 Alpha  occ. eigenvalues --   -0.40228  -0.39454  -0.38158  -0.38060  -0.37956
 Alpha  occ. eigenvalues --   -0.35933  -0.35028  -0.34570  -0.33303  -0.32960
 Alpha  occ. eigenvalues --   -0.32682  -0.32254  -0.31903  -0.31263  -0.30831
 Alpha  occ. eigenvalues --   -0.30569  -0.30525
 Alpha virt. eigenvalues --   -0.13996  -0.09891  -0.07370  -0.06986  -0.06380
 Alpha virt. eigenvalues --   -0.06194  -0.06111  -0.05311  -0.04471  -0.04335
 Alpha virt. eigenvalues --   -0.03870  -0.03134  -0.01111   0.00090   0.00581

 Mulliken charges:
               1
     1  N   -0.762006
     2  H    0.331258
     3  H    0.342052
     4  C   -0.061627
     5  H    0.167746
     6  C    0.643265
     7  C   -0.380250
     8  H    0.154506
     9  H    0.163653
    10  O   -0.553980
    11  C    0.155412
    12  C   -0.186442
    13  H    0.131805
    14  C   -0.189468
    15  H    0.127836
    16  C   -0.128134
    17  H    0.146231
    18  C   -0.129176
    19  H    0.140571
    20  C   -0.127834
    21  H    0.146038
    22  N   -0.600686
    23  H    0.350069
    24  C   -0.077027
    25  H    0.184729
    26  C    0.604371
    27  C   -0.281874
    28  H    0.158001
    29  H    0.151558
    30  O   -0.528943
    31  C   -0.069815
    32  H    0.119960
    33  C   -0.442960
    34  H    0.145110
    35  H    0.150495
    36  H    0.143171
    37  C   -0.455290
    38  H    0.144219
    39  H    0.152226
    40  H    0.152521
    41  N   -0.582264
    42  H    0.362790
    43  C   -0.065850
    44  H    0.204121
    45  C    0.600117
    46  C   -0.428473
    47  H    0.189597
    48  H    0.195906
    49  O   -0.529451
    50  C    0.613589
    51  N   -0.788827
    52  H    0.336776
    53  H    0.425117
    54  O   -0.544783
    55  N   -0.634569
    56  H    0.392058
    57  C   -0.047318
    58  H    0.203268
    59  C    0.588928
    60  C   -0.256306
    61  H    0.140037
    62  H    0.157301
    63  O   -0.471165
    64  C   -0.321555
    65  H    0.183658
    66  H    0.201748
    67  C   -0.159184
    68  H    0.194192
    69  H    0.181416
    70  N   -0.591167
    71  H    0.369992
    72  N   -0.753501
    73  H    0.387899
    74  H    0.396526
    75  N   -0.761864
    76  H    0.387033
    77  H    0.389822
    78  C    0.832860
    79  O   -0.552681
    80  H    0.422917
 Sum of Mulliken charges =   1.00000

 Dipole moment (field-independent basis, Debye):
    X=             15.9261    Y=             10.7179    Z=            -20.7518  Tot=             28.2692
 Quadrupole moment (field-independent basis, Debye-Ang):
   XX=            -70.9389   YY=           -195.3870   ZZ=             -3.2837
   XY=             22.4841   XZ=           -171.8631   YZ=            -37.6660

 Normal termination of Gaussian 16 at Tue Oct 18 19:30:27 2022.
