 Gaussian 16, Revision C.01,
 Gaussian 16:  ES64L-G16RevC.01  3-Jul-2019

 ----------------------------------------------------------------------
 # B3LYP/6-31G* empiricaldispersion=gd3bj guess=read geom=check nosymm
 integral(ultrafinegrid)
 ----------------------------------------------------------------------

 ------------------------------------------------------
 Candidate Structure: Conf:242 Charge calc in gas phase
 ------------------------------------------------------
 Structure from the checkpoint file:  "conf-242.chk"
 Charge =  1 Multiplicity = 1

                          Input orientation:
 ---------------------------------------------------------------------
 Center     Atomic      Atomic             Coordinates (Angstroms)
 Number     Number       Type             X           Y           Z
 ---------------------------------------------------------------------
      1          7           0       -2.711853    5.623387    1.301260
      2          1           0       -3.640750    5.296128    1.027015
      3          1           0       -2.846233    6.348688    2.004766
      4          6           0       -1.996052    4.472776    1.877772
      5          1           0       -0.959333    4.777190    2.061995
      6          6           0       -2.019894    3.366118    0.820165
      7          6           0       -2.584085    3.904125    3.202841
      8          1           0       -3.658214    3.743067    3.058885
      9          1           0       -2.459522    4.657080    3.990548
     10          8           0       -3.032786    3.162730    0.144687
     11          6           0       -1.895261    2.603532    3.552460
     12          6           0       -2.476710    1.382202    3.191076
     13          1           0       -3.491111    1.369313    2.800524
     14          6           0       -0.585955    2.602954    4.051021
     15          1           0       -0.125110    3.541705    4.352529
     16          6           0       -1.750145    0.193772    3.283315
     17          1           0       -2.214671   -0.744750    2.993021
     18          6           0        0.143555    1.416170    4.135103
     19          1           0        1.165812    1.435660    4.500236
     20          6           0       -0.428699    0.206300    3.734925
     21          1           0        0.151208   -0.710879    3.761039
     22          7           0       -0.872992    2.674396    0.697512
     23          1           0       -0.109374    2.846303    1.345117
     24          6           0       -0.763830    1.401841    0.006170
     25          1           0       -1.579462    0.743781    0.325467
     26          6           0        0.587592    0.832199    0.449924
     27          6           0       -0.827805    1.619085   -1.526550
     28          1           0       -1.784396    2.123802   -1.707486
     29          1           0       -0.024627    2.319846   -1.782390
     30          8           0        1.437711    1.569073    0.962193
     31          6           0       -0.742688    0.397747   -2.456243
     32          1           0        0.226546   -0.096679   -2.323872
     33          6           0       -1.864391   -0.614602   -2.186442
     34          1           0       -2.848650   -0.145632   -2.304281
     35          1           0       -1.805473   -1.454527   -2.885875
     36          1           0       -1.832480   -1.031425   -1.171300
     37          6           0       -0.795358    0.881097   -3.911857
     38          1           0       -1.743072    1.391498   -4.126109
     39          1           0        0.026022    1.577521   -4.127422
     40          1           0       -0.702525    0.042245   -4.608420
     41          7           0        0.813046   -0.470353    0.187668
     42          1           0        0.108916   -0.991898   -0.317395
     43          6           0        2.180125   -1.009004    0.183764
     44          1           0        2.669570   -0.632713    1.082758
     45          6           0        2.817222   -0.450663   -1.103786
     46          6           0        2.151060   -2.526812    0.222742
     47          1           0        1.623585   -2.921788   -0.652674
     48          1           0        3.180201   -2.899571    0.152066
     49          8           0        2.657451   -0.989227   -2.192764
     50          6           0        1.542680   -3.019197    1.538080
     51          7           0        0.992887   -4.264248    1.486877
     52          1           0        0.709548   -4.688553    2.360441
     53          1           0        1.133051   -4.873898    0.694073
     54          8           0        1.545188   -2.333846    2.552055
     55          7           0        3.425726    0.758464   -0.928388
     56          1           0        3.301522    1.184711   -0.015750
     57          6           0        3.615430    1.673443   -2.046000
     58          1           0        3.185149    1.167693   -2.920509
     59          6           0        5.098059    1.893369   -2.354080
     60          6           0        2.900644    3.007166   -1.766601
     61          1           0        3.494762    3.575571   -1.040520
     62          1           0        1.947692    2.782065   -1.281911
     63          8           0        5.602220    2.978632   -2.553282
     64          6           0        2.673878    3.875533   -3.006954
     65          1           0        3.637985    4.131856   -3.453502
     66          1           0        2.107314    3.322183   -3.770362
     67          6           0        1.948535    5.185183   -2.683694
     68          1           0        2.443863    5.656158   -1.829576
     69          1           0        1.999626    5.876434   -3.532743
     70          7           0        0.537284    4.951872   -2.334561
     71          1           0        0.046193    4.270900   -2.900008
     72          7           0        0.348882    6.582286   -0.675249
     73          1           0       -0.258865    7.120308   -0.073463
     74          1           0        1.223536    7.012791   -0.932075
     75          7           0       -1.503031    5.360281   -1.286502
     76          1           0       -1.980781    5.689947   -0.418463
     77          1           0       -1.879942    4.489405   -1.641413
     78          6           0       -0.203898    5.622149   -1.444207
     79          8           0        5.775709    0.736326   -2.402196
     80          1           0        6.700651    0.956871   -2.624154
 ---------------------------------------------------------------------

 SCF Done:  E(RB3LYP) =  -1866.80259493     A.U. after    1 cycles

 Alpha  occ. eigenvalues --  -19.28091 -19.22835 -19.22823 -19.21870 -19.20844
 Alpha  occ. eigenvalues --  -19.19736 -14.51906 -14.51614 -14.49064 -14.46991
 Alpha  occ. eigenvalues --  -14.45698 -14.45089 -14.44846 -14.44050 -10.47496
 Alpha  occ. eigenvalues --  -10.40796 -10.39597 -10.38745 -10.37825 -10.37609
 Alpha  occ. eigenvalues --  -10.36223 -10.33724 -10.33383 -10.33342 -10.33019
 Alpha  occ. eigenvalues --  -10.30439 -10.29392 -10.29189 -10.28993 -10.28773
 Alpha  occ. eigenvalues --  -10.28635 -10.27698 -10.26819 -10.26793 -10.26699
 Alpha  occ. eigenvalues --  -10.26554 -10.26492 -10.26424 -10.25834  -1.19298
 Alpha  occ. eigenvalues --   -1.16087  -1.15116  -1.13690  -1.12649  -1.11599
 Alpha  occ. eigenvalues --   -1.10300  -1.05855  -1.03580  -1.03569  -1.02815
 Alpha  occ. eigenvalues --   -1.02073  -1.00895  -0.98790  -0.93462  -0.91764
 Alpha  occ. eigenvalues --   -0.91339  -0.88457  -0.87276  -0.85994  -0.84615
 Alpha  occ. eigenvalues --   -0.82007  -0.80448  -0.80187  -0.78426  -0.77777
 Alpha  occ. eigenvalues --   -0.77148  -0.76047  -0.74137  -0.73489  -0.72768
 Alpha  occ. eigenvalues --   -0.70307  -0.69035  -0.68468  -0.68244  -0.68130
 Alpha  occ. eigenvalues --   -0.67531  -0.67043  -0.66075  -0.65676  -0.64548
 Alpha  occ. eigenvalues --   -0.63945  -0.63322  -0.62379  -0.62074  -0.60707
 Alpha  occ. eigenvalues --   -0.60530  -0.60382  -0.60035  -0.59019  -0.58569
 Alpha  occ. eigenvalues --   -0.58304  -0.57269  -0.56763  -0.56331  -0.55975
 Alpha  occ. eigenvalues --   -0.55344  -0.55175  -0.54588  -0.54080  -0.53601
 Alpha  occ. eigenvalues --   -0.53370  -0.53326  -0.52945  -0.52145  -0.52002
 Alpha  occ. eigenvalues --   -0.51663  -0.51164  -0.50721  -0.49825  -0.49600
 Alpha  occ. eigenvalues --   -0.49365  -0.49013  -0.48580  -0.48283  -0.47964
 Alpha  occ. eigenvalues --   -0.47919  -0.47752  -0.47210  -0.46743  -0.46451
 Alpha  occ. eigenvalues --   -0.46210  -0.46101  -0.45918  -0.45308  -0.45074
 Alpha  occ. eigenvalues --   -0.44742  -0.43831  -0.42936  -0.42658  -0.42293
 Alpha  occ. eigenvalues --   -0.41995  -0.41762  -0.41510  -0.40397  -0.40146
 Alpha  occ. eigenvalues --   -0.38086  -0.37908  -0.37484  -0.36808  -0.35798
 Alpha  occ. eigenvalues --   -0.35444  -0.35230  -0.34346  -0.33622  -0.33382
 Alpha  occ. eigenvalues --   -0.32656  -0.31746
 Alpha virt. eigenvalues --   -0.11551  -0.10032  -0.08599  -0.08353  -0.08037
 Alpha virt. eigenvalues --   -0.07690  -0.07300  -0.06550  -0.05986  -0.05687
 Alpha virt. eigenvalues --   -0.03323  -0.02675  -0.02278  -0.01190  -0.00398

 Mulliken charges:
               1
     1  N   -0.777358
     2  H    0.347029
     3  H    0.330400
     4  C   -0.057173
     5  H    0.146465
     6  C    0.611703
     7  C   -0.357226
     8  H    0.167732
     9  H    0.161132
    10  O   -0.568437
    11  C    0.148929
    12  C   -0.180103
    13  H    0.142881
    14  C   -0.205436
    15  H    0.126463
    16  C   -0.149176
    17  H    0.139713
    18  C   -0.119388
    19  H    0.148427
    20  C   -0.146632
    21  H    0.190411
    22  N   -0.610879
    23  H    0.371792
    24  C   -0.038389
    25  H    0.187916
    26  C    0.642620
    27  C   -0.290140
    28  H    0.169049
    29  H    0.118811
    30  O   -0.562514
    31  C   -0.112516
    32  H    0.158793
    33  C   -0.463906
    34  H    0.165565
    35  H    0.169603
    36  H    0.135005
    37  C   -0.452166
    38  H    0.146159
    39  H    0.125497
    40  H    0.174623
    41  N   -0.596674
    42  H    0.354452
    43  C   -0.059859
    44  H    0.207010
    45  C    0.621512
    46  C   -0.410401
    47  H    0.177601
    48  H    0.206876
    49  O   -0.522290
    50  C    0.610102
    51  N   -0.746200
    52  H    0.355267
    53  H    0.348195
    54  O   -0.497653
    55  N   -0.592876
    56  H    0.366779
    57  C   -0.057583
    58  H    0.206388
    59  C    0.601617
    60  C   -0.296790
    61  H    0.163590
    62  H    0.171614
    63  O   -0.464810
    64  C   -0.312820
    65  H    0.210423
    66  H    0.153176
    67  C   -0.155963
    68  H    0.171454
    69  H    0.195918
    70  N   -0.603026
    71  H    0.362293
    72  N   -0.758753
    73  H    0.383204
    74  H    0.379887
    75  N   -0.780736
    76  H    0.414760
    77  H    0.376424
    78  C    0.799907
    79  O   -0.542284
    80  H    0.424994
 Sum of Mulliken charges =   1.00000

 Dipole moment (field-independent basis, Debye):
    X=              0.9373    Y=             15.9506    Z=             -3.2495  Tot=             16.3052
 Quadrupole moment (field-independent basis, Debye-Ang):
   XX=           -205.1990   YY=            -74.6330   ZZ=           -211.9799
   XY=             -7.6432   XZ=            -10.9130   YZ=            -12.2891

 Normal termination of Gaussian 16 at Tue Oct 18 19:39:04 2022.
