 Gaussian 16, Revision C.01,
 Gaussian 16:  ES64L-G16RevC.01  3-Jul-2019

 ----------------------------------------------------------------------
 # B3LYP/6-31G* empiricaldispersion=gd3bj guess=read geom=check nosymm
 integral(ultrafinegrid)
 ----------------------------------------------------------------------

 ------------------------------------------------------
 Candidate Structure: Conf:156 Charge calc in gas phase
 ------------------------------------------------------
 Structure from the checkpoint file:  "conf-156.chk"
 Charge =  1 Multiplicity = 1

                          Input orientation:
 ---------------------------------------------------------------------
 Center     Atomic      Atomic             Coordinates (Angstroms)
 Number     Number       Type             X           Y           Z
 ---------------------------------------------------------------------
      1          7           0       -3.047404    9.551310   -7.443653
      2          6           0       -2.913859    8.622629   -6.307150
      3          6           0       -3.309974    9.223713   -4.953925
      4          8           0       -3.596683    8.469748   -4.033054
      5          6           0       -1.476183    8.049239   -6.173954
      6          6           0       -0.887019    7.613277   -7.496704
      7          6           0       -1.498252    6.612974   -8.270425
      8          6           0        0.267930    8.226350   -7.996782
      9          6           0       -0.965245    6.232981   -9.501150
     10          6           0        0.821402    7.832440   -9.218828
     11          6           0        0.203357    6.836327   -9.978259
     12          1           0       -2.842485    9.032137   -8.297272
     13          1           0       -3.616816    7.804619   -6.481397
     14          1           0       -1.513630    7.219971   -5.459879
     15          1           0       -0.834939    8.820259   -5.729541
     16          1           0       -2.390612    6.116276   -7.897434
     17          1           0        0.757481    8.998252   -7.408415
     18          1           0       -1.446548    5.448875  -10.077959
     19          1           0        1.747781    8.288061   -9.560279
     20          1           0        0.642564    6.505286  -10.915768
     21          1           0       -2.319724   10.268757   -7.410418
     22          7           0       -3.210121   10.575934   -4.831653
     23          6           0       -3.582376   11.269005   -3.587290
     24          6           0       -4.467100   12.441260   -4.027870
     25          8           0       -5.683381   12.393623   -4.000799
     26          6           0       -2.357417   11.666589   -2.750028
     27          6           0       -1.556666   10.484701   -2.174026
     28          6           0       -0.256617   11.002866   -1.545852
     29          6           0       -2.370830    9.672766   -1.159740
     30          1           0       -3.078349   11.156863   -5.653804
     31          1           0       -4.224380   10.590384   -3.026303
     32          1           0       -1.679575   12.276836   -3.364366
     33          1           0       -2.695691   12.309776   -1.925843
     34          1           0       -1.291614    9.819257   -3.007387
     35          1           0       -0.469603   11.677227   -0.706825
     36          1           0        0.347993   10.175470   -1.159180
     37          1           0        0.352155   11.555328   -2.272315
     38          1           0       -2.723883   10.313185   -0.341159
     39          1           0       -3.231099    9.189468   -1.628830
     40          1           0       -1.751950    8.883485   -0.719092
     41          7           0       -3.776309   13.526784   -4.552630
     42          6           0       -4.402487   14.261080   -5.634619
     43          6           0       -3.856543   13.680589   -6.957296
     44          8           0       -2.892685   12.895816   -6.962000
     45          6           0       -4.209457   15.785796   -5.494771
     46          6           0       -5.319360   16.590015   -6.166994
     47          7           0       -5.558945   17.808473   -5.633249
     48          8           0       -5.948491   16.178777   -7.145772
     49          1           0       -2.786076   13.370373   -4.701741
     50          1           0       -5.470983   14.035149   -5.577677
     51          1           0       -4.172248   16.014206   -4.425355
     52          1           0       -3.247620   16.103536   -5.918902
     53          1           0       -6.300595   18.370061   -6.030446
     54          1           0       -5.130944   18.117787   -4.773511
     55          7           0       -4.515114   14.022384   -8.075054
     56          6           0       -4.213168   13.400096   -9.355567
     57          6           0       -3.900558   11.913078   -9.111571
     58          8           0       -2.918303   11.345493   -9.607998
     59          6           0       -3.093362   14.141866  -10.112051
     60          6           0       -2.958721   13.764851  -11.612279
     61          6           0       -1.518506   13.446459  -12.045478
     62          7           0       -1.065858   12.261837  -11.303043
     63          6           0       -0.563445   11.138630  -11.805454
     64          7           0        0.204887   11.141910  -12.908632
     65          7           0       -0.839782    9.977992  -11.188227
     66          8           0       -4.772337   11.302725   -8.358184
     67          1           0       -4.297429   10.468953   -7.957332
     68          1           0       -5.257347   14.724884   -7.981901
     69          1           0       -5.138494   13.433775   -9.943950
     70          1           0       -2.158269   13.977208   -9.564600
     71          1           0       -3.305944   15.210919  -10.023938
     72          1           0       -3.581111   12.893766  -11.847762
     73          1           0       -3.325040   14.585845  -12.236499
     74          1           0       -1.477332   13.240700  -13.120100
     75          1           0       -0.853596   14.291538  -11.834058
     76          1           0       -1.619408   12.095220  -10.452028
     77          1           0        0.414938   10.285170  -13.398715
     78          1           0        0.580171   12.003701  -13.274987
     79          1           0       -0.204905    9.189327  -11.192528
     80          1           0       -1.541383    9.993348  -10.454650
 ---------------------------------------------------------------------

 SCF Done:  E(RB3LYP) =  -1866.80500437     A.U. after    2 cycles

 Alpha  occ. eigenvalues --  -19.27259 -19.25413 -19.22534 -19.21796 -19.19455
 Alpha  occ. eigenvalues --  -19.18576 -14.51745 -14.50045 -14.49481 -14.45588
 Alpha  occ. eigenvalues --  -14.45475 -14.44679 -14.43643 -14.43561 -10.47087
 Alpha  occ. eigenvalues --  -10.43318 -10.39342 -10.38908 -10.36278 -10.36239
 Alpha  occ. eigenvalues --  -10.35571 -10.34888 -10.32599 -10.31971 -10.30977
 Alpha  occ. eigenvalues --  -10.30241 -10.30006 -10.29859 -10.29702 -10.29334
 Alpha  occ. eigenvalues --  -10.29127 -10.28972 -10.28881 -10.28722 -10.28353
 Alpha  occ. eigenvalues --  -10.25488 -10.24733 -10.22918 -10.21727  -1.20522
 Alpha  occ. eigenvalues --   -1.15709  -1.14188  -1.13323  -1.11510  -1.11398
 Alpha  occ. eigenvalues --   -1.10659  -1.05063  -1.03792  -1.02897  -1.01561
 Alpha  occ. eigenvalues --   -1.00862  -1.00281  -0.99215  -0.95413  -0.91647
 Alpha  occ. eigenvalues --   -0.88349  -0.87679  -0.87055  -0.85833  -0.84360
 Alpha  occ. eigenvalues --   -0.82702  -0.80933  -0.80248  -0.78109  -0.76561
 Alpha  occ. eigenvalues --   -0.74600  -0.73445  -0.73313  -0.72734  -0.72155
 Alpha  occ. eigenvalues --   -0.70792  -0.70413  -0.69034  -0.68320  -0.67784
 Alpha  occ. eigenvalues --   -0.66570  -0.66397  -0.66012  -0.65162  -0.64650
 Alpha  occ. eigenvalues --   -0.64517  -0.63707  -0.62596  -0.61725  -0.61639
 Alpha  occ. eigenvalues --   -0.60707  -0.60298  -0.59218  -0.58600  -0.57971
 Alpha  occ. eigenvalues --   -0.57553  -0.57014  -0.56129  -0.55832  -0.55135
 Alpha  occ. eigenvalues --   -0.55029  -0.54877  -0.54775  -0.53947  -0.53407
 Alpha  occ. eigenvalues --   -0.53279  -0.53079  -0.52281  -0.52029  -0.51803
 Alpha  occ. eigenvalues --   -0.51449  -0.50932  -0.50715  -0.50491  -0.49800
 Alpha  occ. eigenvalues --   -0.48836  -0.48700  -0.48464  -0.47601  -0.47344
 Alpha  occ. eigenvalues --   -0.46962  -0.46718  -0.46204  -0.45969  -0.45940
 Alpha  occ. eigenvalues --   -0.45581  -0.45158  -0.44716  -0.44668  -0.43668
 Alpha  occ. eigenvalues --   -0.43489  -0.43265  -0.42770  -0.42376  -0.41945
 Alpha  occ. eigenvalues --   -0.41293  -0.40239  -0.39169  -0.38964  -0.38199
 Alpha  occ. eigenvalues --   -0.38092  -0.37707  -0.36968  -0.36533  -0.35850
 Alpha  occ. eigenvalues --   -0.35739  -0.35132  -0.34665  -0.34405  -0.33919
 Alpha  occ. eigenvalues --   -0.32210  -0.31259
 Alpha virt. eigenvalues --   -0.11995  -0.10669  -0.10493  -0.10284  -0.08084
 Alpha virt. eigenvalues --   -0.07357  -0.06921  -0.06760  -0.04065  -0.03553
 Alpha virt. eigenvalues --   -0.02359  -0.01318  -0.01004  -0.00501  -0.00144

 Mulliken charges:
               1
     1  N   -0.800531
     2  C   -0.070500
     3  C    0.641145
     4  O   -0.512300
     5  C   -0.372104
     6  C    0.155905
     7  C   -0.191850
     8  C   -0.193027
     9  C   -0.124720
    10  C   -0.157137
    11  C   -0.161247
    12  H    0.339513
    13  H    0.186394
    14  H    0.203899
    15  H    0.157812
    16  H    0.156274
    17  H    0.143426
    18  H    0.158905
    19  H    0.143873
    20  H    0.146619
    21  H    0.337531
    22  N   -0.657191
    23  C   -0.059043
    24  C    0.565678
    25  O   -0.474842
    26  C   -0.257445
    27  C   -0.071648
    28  C   -0.445178
    29  C   -0.462714
    30  H    0.363392
    31  H    0.211981
    32  H    0.113470
    33  H    0.152769
    34  H    0.127841
    35  H    0.147053
    36  H    0.152241
    37  H    0.130360
    38  H    0.137731
    39  H    0.184875
    40  H    0.147805
    41  N   -0.587878
    42  C   -0.081594
    43  C    0.620231
    44  O   -0.580446
    45  C   -0.386394
    46  C    0.631957
    47  N   -0.736147
    48  O   -0.532433
    49  H    0.333026
    50  H    0.228471
    51  H    0.191320
    52  H    0.186802
    53  H    0.363754
    54  H    0.357275
    55  N   -0.609509
    56  C   -0.032629
    57  C    0.644923
    58  O   -0.578322
    59  C   -0.293872
    60  C   -0.296480
    61  C   -0.166097
    62  N   -0.603831
    63  C    0.771339
    64  N   -0.749073
    65  N   -0.777173
    66  O   -0.568296
    67  H    0.468010
    68  H    0.400952
    69  H    0.193958
    70  H    0.173085
    71  H    0.175158
    72  H    0.167078
    73  H    0.179668
    74  H    0.170346
    75  H    0.185974
    76  H    0.412604
    77  H    0.380206
    78  H    0.382504
    79  H    0.366209
    80  H    0.400304
 Sum of Mulliken charges =   1.00000

 Dipole moment (field-independent basis, Debye):
    X=             -4.4295    Y=             61.2566    Z=            -50.5973  Tot=             79.5744
 Quadrupole moment (field-independent basis, Debye-Ang):
   XX=           -222.8892   YY=            622.6798   ZZ=            347.2407
   XY=            -94.7169   XZ=             41.7010   YZ=           -596.1457

 Normal termination of Gaussian 16 at Sat Jul 16 16:54:49 2022.
