 Gaussian 16, Revision C.01,
 Gaussian 16:  ES64L-G16RevC.01  3-Jul-2019

 ----------------------------------------------------------------------
 # B3LYP/6-31G* empiricaldispersion=gd3bj guess=read geom=check nosymm
 integral(ultrafinegrid)
 ----------------------------------------------------------------------

 ------------------------------------------------------
 Candidate Structure: Conf:962 Charge calc in gas phase
 ------------------------------------------------------
 Structure from the checkpoint file:  "conf-962.chk"
 Charge =  1 Multiplicity = 1

                          Input orientation:
 ---------------------------------------------------------------------
 Center     Atomic      Atomic             Coordinates (Angstroms)
 Number     Number       Type             X           Y           Z
 ---------------------------------------------------------------------
      1          7           0       -1.661306   12.015994   -4.128395
      2          6           0       -1.947849   10.557547   -4.040174
      3          6           0       -0.724313    9.757026   -4.552942
      4          8           0       -0.075091    9.046506   -3.801526
      5          6           0       -3.219532   10.207807   -4.836677
      6          6           0       -4.445489   11.042177   -4.526143
      7          6           0       -4.811867   11.380982   -3.215989
      8          6           0       -5.264072   11.459301   -5.583662
      9          6           0       -5.971395   12.115043   -2.964333
     10          6           0       -6.442143   12.164143   -5.332759
     11          6           0       -6.798714   12.499694   -4.022258
     12          1           0       -2.480205   12.541074   -3.816670
     13          1           0       -2.061547   10.257274   -2.994100
     14          1           0       -3.433826    9.149694   -4.635560
     15          1           0       -3.026003   10.279714   -5.909394
     16          1           0       -4.199636   11.053585   -2.379180
     17          1           0       -4.977643   11.214732   -6.601918
     18          1           0       -6.243835   12.361041   -1.942404
     19          1           0       -7.093755   12.425657   -6.163484
     20          1           0       -7.730672   13.021668   -3.817368
     21          1           0       -0.889141   12.256071   -3.506137
     22          7           0       -0.501533    9.913792   -5.889547
     23          6           0        0.639801    9.404791   -6.667398
     24          6           0        0.288999    9.781908   -8.116267
     25          8           0        0.944582   10.568879   -8.784888
     26          6           0        0.871882    7.897696   -6.475167
     27          6           0        1.890834    7.294230   -7.457691
     28          6           0        3.247094    8.011452   -7.406725
     29          6           0        2.050727    5.796409   -7.171214
     30          1           0       -0.974265   10.696447   -6.325504
     31          1           0        1.546299    9.962032   -6.414662
     32          1           0        1.198382    7.737166   -5.444143
     33          1           0       -0.088973    7.375564   -6.578157
     34          1           0        1.487981    7.401994   -8.475663
     35          1           0        3.175567    9.048368   -7.750529
     36          1           0        3.649383    8.013113   -6.385674
     37          1           0        3.973929    7.502812   -8.049132
     38          1           0        2.467058    5.634500   -6.169386
     39          1           0        1.088889    5.272560   -7.221916
     40          1           0        2.728230    5.329469   -7.894126
     41          7           0       -0.877233    9.208676   -8.568873
     42          6           0       -1.620798    9.849567   -9.649997
     43          6           0       -2.352201   11.047536   -9.031954
     44          8           0       -3.347583   10.889566   -8.318286
     45          6           0       -2.619045    8.882112  -10.276504
     46          6           0       -3.353886    9.560423  -11.429143
     47          7           0       -3.967821    8.722834  -12.303150
     48          8           0       -3.398505   10.782240  -11.537191
     49          1           0       -1.446879    8.758051   -7.861352
     50          1           0       -0.894352   10.182720  -10.391558
     51          1           0       -2.100889    7.974985  -10.604382
     52          1           0       -3.361834    8.593524   -9.521909
     53          1           0       -4.467622    9.122232  -13.085510
     54          1           0       -3.881558    7.719265  -12.247749
     55          7           0       -1.778838   12.257153   -9.214699
     56          6           0       -2.367553   13.434500   -8.596243
     57          6           0       -2.357640   13.302054   -7.061733
     58          8           0       -3.210000   13.800608   -6.324733
     59          6           0       -3.770923   13.735530   -9.179146
     60          6           0       -4.079270   15.218098   -9.436730
     61          6           0       -4.114129   16.105805   -8.186009
     62          7           0       -5.012956   15.582049   -7.155513
     63          6           0       -6.260149   15.934608   -6.914292
     64          7           0       -6.920865   16.816810   -7.693425
     65          7           0       -6.908174   15.421156   -5.846810
     66          8           0       -1.314999   12.660880   -6.597406
     67          1           0       -1.424053   12.505486   -5.540434
     68          1           0       -0.847376   12.298836   -9.606393
     69          1           0       -1.687950   14.265314   -8.825451
     70          1           0       -4.531375   13.292931   -8.532135
     71          1           0       -3.836719   13.204180  -10.132151
     72          1           0       -3.338050   15.643735  -10.125458
     73          1           0       -5.049160   15.281048   -9.946376
     74          1           0       -3.127755   16.155521   -7.716634
     75          1           0       -4.389102   17.136105   -8.433553
     76          1           0       -4.583606   14.792454   -6.648530
     77          1           0       -7.727276   17.302372   -7.327308
     78          1           0       -6.455188   17.250154   -8.476016
     79          1           0       -7.918852   15.423294   -5.845370
     80          1           0       -6.478326   14.660602   -5.326610
 ---------------------------------------------------------------------

 SCF Done:  E(RB3LYP) =  -1866.80923613     A.U. after    3 cycles

 Alpha  occ. eigenvalues --  -19.26619 -19.24233 -19.20906 -19.20335 -19.19619
 Alpha  occ. eigenvalues --  -19.19553 -14.51744 -14.50743 -14.50186 -14.45623
 Alpha  occ. eigenvalues --  -14.45183 -14.44500 -14.43896 -14.43864 -10.47517
 Alpha  occ. eigenvalues --  -10.42059 -10.37657 -10.37445 -10.36962 -10.36860
 Alpha  occ. eigenvalues --  -10.35467 -10.34089 -10.32415 -10.32111 -10.30741
 Alpha  occ. eigenvalues --  -10.30271 -10.29140 -10.28818 -10.28759 -10.28513
 Alpha  occ. eigenvalues --  -10.28491 -10.28458 -10.28324 -10.28310 -10.27748
 Alpha  occ. eigenvalues --  -10.24834 -10.24734 -10.22524 -10.22372  -1.19381
 Alpha  occ. eigenvalues --   -1.16067  -1.13126  -1.12031  -1.11340  -1.11313
 Alpha  occ. eigenvalues --   -1.10313  -1.05307  -1.04306  -1.02167  -1.01972
 Alpha  occ. eigenvalues --   -1.01322  -0.99724  -0.98628  -0.94930  -0.91125
 Alpha  occ. eigenvalues --   -0.88447  -0.87536  -0.86698  -0.85395  -0.83822
 Alpha  occ. eigenvalues --   -0.82899  -0.80921  -0.80244  -0.77821  -0.76038
 Alpha  occ. eigenvalues --   -0.74396  -0.73898  -0.73542  -0.72469  -0.72252
 Alpha  occ. eigenvalues --   -0.70238  -0.69903  -0.69179  -0.67406  -0.67292
 Alpha  occ. eigenvalues --   -0.66403  -0.66029  -0.65281  -0.64920  -0.63848
 Alpha  occ. eigenvalues --   -0.63641  -0.62722  -0.61849  -0.61430  -0.61152
 Alpha  occ. eigenvalues --   -0.60665  -0.59901  -0.59550  -0.58808  -0.58475
 Alpha  occ. eigenvalues --   -0.58114  -0.57723  -0.56640  -0.55467  -0.55310
 Alpha  occ. eigenvalues --   -0.54815  -0.54502  -0.53458  -0.53379  -0.53241
 Alpha  occ. eigenvalues --   -0.52752  -0.52553  -0.52022  -0.51366  -0.51020
 Alpha  occ. eigenvalues --   -0.50640  -0.50153  -0.49762  -0.49415  -0.48983
 Alpha  occ. eigenvalues --   -0.48814  -0.48394  -0.47943  -0.47296  -0.47009
 Alpha  occ. eigenvalues --   -0.46833  -0.46713  -0.46115  -0.45480  -0.45408
 Alpha  occ. eigenvalues --   -0.45065  -0.44676  -0.44506  -0.44317  -0.44001
 Alpha  occ. eigenvalues --   -0.43303  -0.42992  -0.42873  -0.42608  -0.42190
 Alpha  occ. eigenvalues --   -0.40865  -0.39912  -0.39010  -0.38723  -0.38472
 Alpha  occ. eigenvalues --   -0.38074  -0.37872  -0.36471  -0.35064  -0.34601
 Alpha  occ. eigenvalues --   -0.34481  -0.34251  -0.33869  -0.33795  -0.33489
 Alpha  occ. eigenvalues --   -0.32390  -0.32118
 Alpha virt. eigenvalues --   -0.11596  -0.10120  -0.09990  -0.09165  -0.07817
 Alpha virt. eigenvalues --   -0.07710  -0.06742  -0.06022  -0.05308  -0.04745
 Alpha virt. eigenvalues --   -0.01809  -0.01619  -0.00727  -0.00179   0.00094

 Mulliken charges:
               1
     1  N   -0.805942
     2  C   -0.089215
     3  C    0.609471
     4  O   -0.491691
     5  C   -0.382557
     6  C    0.146690
     7  C   -0.195164
     8  C   -0.181048
     9  C   -0.125236
    10  C   -0.176199
    11  C   -0.158249
    12  H    0.355826
    13  H    0.178428
    14  H    0.187682
    15  H    0.184365
    16  H    0.147238
    17  H    0.193246
    18  H    0.154632
    19  H    0.132791
    20  H    0.135850
    21  H    0.354603
    22  N   -0.689175
    23  C   -0.010614
    24  C    0.563518
    25  O   -0.514447
    26  C   -0.270603
    27  C   -0.083834
    28  C   -0.461215
    29  C   -0.444101
    30  H    0.388313
    31  H    0.184924
    32  H    0.189676
    33  H    0.123225
    34  H    0.130922
    35  H    0.161847
    36  H    0.146801
    37  H    0.152616
    38  H    0.151423
    39  H    0.138711
    40  H    0.151215
    41  N   -0.585244
    42  C   -0.049836
    43  C    0.673910
    44  O   -0.571027
    45  C   -0.394843
    46  C    0.634708
    47  N   -0.755037
    48  O   -0.519100
    49  H    0.342197
    50  H    0.191583
    51  H    0.177621
    52  H    0.193110
    53  H    0.354392
    54  H    0.349667
    55  N   -0.590246
    56  C   -0.043000
    57  C    0.642810
    58  O   -0.551450
    59  C   -0.290973
    60  C   -0.283101
    61  C   -0.187239
    62  N   -0.597677
    63  C    0.788323
    64  N   -0.756718
    65  N   -0.765771
    66  O   -0.611221
    67  H    0.478867
    68  H    0.363662
    69  H    0.178545
    70  H    0.167164
    71  H    0.213351
    72  H    0.168832
    73  H    0.152954
    74  H    0.194113
    75  H    0.163492
    76  H    0.421820
    77  H    0.378533
    78  H    0.381963
    79  H    0.367166
    80  H    0.388977
 Sum of Mulliken charges =   1.00000

 Dipole moment (field-independent basis, Debye):
    X=            -25.6451    Y=             67.0325    Z=            -35.9914  Tot=             80.2895
 Quadrupole moment (field-independent basis, Debye-Ang):
   XX=            -68.9476   YY=            779.0654   ZZ=             81.5434
   XY=           -381.9031   XZ=            185.6808   YZ=           -478.1537

 Normal termination of Gaussian 16 at Sat Jul 16 16:55:02 2022.
