 Gaussian 16, Revision C.01,
 Gaussian 16:  ES64L-G16RevC.01  3-Jul-2019

 ----------------------------------------------------------------------
 # B3LYP/6-31G* empiricaldispersion=gd3bj guess=read geom=check nosymm
 integral(ultrafinegrid)
 ----------------------------------------------------------------------

 ------------------------------------------------------
 Candidate Structure: Conf:197 Charge calc in gas phase
 ------------------------------------------------------
 Structure from the checkpoint file:  "conf-197.chk"
 Charge =  1 Multiplicity = 1

                          Input orientation:
 ---------------------------------------------------------------------
 Center     Atomic      Atomic             Coordinates (Angstroms)
 Number     Number       Type             X           Y           Z
 ---------------------------------------------------------------------
      1          7           0       -4.181332    2.782246    2.979086
      2          1           0       -5.107293    2.593213    2.594369
      3          1           0       -4.343501    3.174703    3.903944
      4          6           0       -3.438006    1.522196    3.104725
      5          1           0       -2.627562    1.702210    3.823444
      6          6           0       -2.745507    1.180298    1.780359
      7          6           0       -4.261348    0.316565    3.611487
      8          1           0       -3.616326   -0.566440    3.602665
      9          1           0       -5.073015    0.123777    2.897736
     10          8           0       -2.268847    0.057329    1.560878
     11          6           0       -4.820285    0.574398    4.988969
     12          6           0       -6.121856    1.059800    5.161802
     13          1           0       -6.763440    1.191600    4.293246
     14          6           0       -4.017585    0.392404    6.122760
     15          1           0       -3.006477    0.008447    6.004993
     16          6           0       -6.612438    1.355439    6.434644
     17          1           0       -7.627815    1.723488    6.550322
     18          6           0       -4.502612    0.686862    7.395999
     19          1           0       -3.869153    0.532560    8.264781
     20          6           0       -5.802564    1.171316    7.555198
     21          1           0       -6.183098    1.397040    8.546857
     22          7           0       -2.675149    2.201804    0.901447
     23          1           0       -3.084945    3.075336    1.224276
     24          6           0       -2.189307    2.053337   -0.465319
     25          1           0       -2.504016    1.058468   -0.802553
     26          6           0       -0.649288    2.055009   -0.504026
     27          6           0       -2.775428    3.130554   -1.375470
     28          1           0       -2.370158    4.104728   -1.076675
     29          1           0       -2.396639    2.947058   -2.388764
     30          8           0        0.006800    2.935495   -1.081712
     31          6           0       -4.312730    3.184629   -1.405025
     32          1           0       -4.669026    3.446211   -0.398409
     33          6           0       -4.769587    4.292957   -2.361243
     34          1           0       -4.460807    4.070674   -3.390868
     35          1           0       -5.860016    4.393093   -2.356210
     36          1           0       -4.340283    5.262634   -2.084482
     37          6           0       -4.937256    1.837213   -1.787699
     38          1           0       -4.563568    1.495429   -2.761962
     39          1           0       -4.720247    1.056402   -1.050667
     40          1           0       -6.026303    1.922749   -1.864444
     41          7           0       -0.078151    1.015811    0.128302
     42          1           0       -0.697479    0.358515    0.613007
     43          6           0        1.361504    0.913097    0.211414
     44          1           0        1.760847    1.791391    0.727187
     45          6           0        1.953971    0.889515   -1.207741
     46          6           0        1.777604   -0.334909    0.996741
     47          1           0        1.158020   -0.412216    1.899710
     48          1           0        1.599736   -1.240518    0.405419
     49          8           0        1.347564    0.399125   -2.166883
     50          6           0        3.245011   -0.247754    1.429005
     51          7           0        3.760243   -1.381600    1.951670
     52          1           0        4.735133   -1.386548    2.219694
     53          1           0        3.253145   -2.254026    1.963199
     54          8           0        3.894141    0.795034    1.345603
     55          7           0        3.165240    1.469168   -1.305216
     56          1           0        3.670958    1.587906   -0.425273
     57          6           0        3.900524    1.510698   -2.546465
     58          1           0        3.182447    1.311164   -3.345562
     59          6           0        4.921148    0.372889   -2.582786
     60          6           0        4.556042    2.891946   -2.752177
     61          1           0        5.038202    2.902614   -3.735006
     62          1           0        5.357781    3.011684   -2.012735
     63          8           0        5.063692   -0.457429   -1.717490
     64          6           0        3.600902    4.087511   -2.610764
     65          1           0        3.123414    4.077181   -1.624233
     66          1           0        4.201789    5.002659   -2.652345
     67          6           0        2.516850    4.218683   -3.688123
     68          1           0        2.123108    5.243293   -3.683599
     69          1           0        2.950688    4.028102   -4.676057
     70          7           0        1.419230    3.271575   -3.477685
     71          1           0        1.083681    3.111763   -2.517785
     72          7           0        0.787634    3.132792   -5.714252
     73          1           0        0.358017    2.613392   -6.465118
     74          1           0        1.089568    4.073352   -5.919378
     75          7           0       -0.093138    1.666336   -4.128724
     76          1           0       -0.699282    1.266174   -4.829495
     77          1           0        0.190068    1.085428   -3.328550
     78          6           0        0.702600    2.698861   -4.439430
     79          8           0        5.642016    0.406322   -3.724125
     80          1           0        6.267286   -0.342820   -3.688209
 ---------------------------------------------------------------------

 SCF Done:  E(RB3LYP) =  -1866.82185718     A.U. after    2 cycles

 Alpha  occ. eigenvalues --  -19.28690 -19.23014 -19.22094 -19.21964 -19.20981
 Alpha  occ. eigenvalues --  -19.20425 -14.50801 -14.48752 -14.48481 -14.45367
 Alpha  occ. eigenvalues --  -14.44871 -14.44808 -14.44468 -14.40713 -10.45841
 Alpha  occ. eigenvalues --  -10.41007 -10.38912 -10.38825 -10.38243 -10.37015
 Alpha  occ. eigenvalues --  -10.34576 -10.33407 -10.33033 -10.32177 -10.30588
 Alpha  occ. eigenvalues --  -10.30055 -10.29644 -10.29353 -10.27009 -10.26915
 Alpha  occ. eigenvalues --  -10.25845 -10.25757 -10.25030 -10.24923 -10.24839
 Alpha  occ. eigenvalues --  -10.24789 -10.24785 -10.24767 -10.24565  -1.19578
 Alpha  occ. eigenvalues --   -1.14823  -1.14130  -1.13039  -1.12675  -1.11923
 Alpha  occ. eigenvalues --   -1.10694  -1.03916  -1.03021  -1.02363  -1.02175
 Alpha  occ. eigenvalues --   -1.01407  -0.99761  -0.97500  -0.91398  -0.90998
 Alpha  occ. eigenvalues --   -0.89363  -0.88430  -0.85713  -0.84371  -0.83502
 Alpha  occ. eigenvalues --   -0.80266  -0.79986  -0.78681  -0.77779  -0.76345
 Alpha  occ. eigenvalues --   -0.75947  -0.73999  -0.72413  -0.72335  -0.70979
 Alpha  occ. eigenvalues --   -0.70361  -0.68777  -0.68054  -0.67497  -0.67076
 Alpha  occ. eigenvalues --   -0.66527  -0.66181  -0.64465  -0.64276  -0.64013
 Alpha  occ. eigenvalues --   -0.63273  -0.62730  -0.61927  -0.60769  -0.60588
 Alpha  occ. eigenvalues --   -0.60228  -0.59022  -0.58474  -0.58031  -0.57471
 Alpha  occ. eigenvalues --   -0.57201  -0.56326  -0.56042  -0.55700  -0.55477
 Alpha  occ. eigenvalues --   -0.54282  -0.53822  -0.53589  -0.53066  -0.52380
 Alpha  occ. eigenvalues --   -0.52303  -0.51736  -0.51437  -0.51069  -0.50771
 Alpha  occ. eigenvalues --   -0.50616  -0.50331  -0.49949  -0.49885  -0.49198
 Alpha  occ. eigenvalues --   -0.49008  -0.48605  -0.48325  -0.47844  -0.47178
 Alpha  occ. eigenvalues --   -0.46767  -0.46351  -0.46183  -0.45596  -0.45515
 Alpha  occ. eigenvalues --   -0.45229  -0.45138  -0.44738  -0.44687  -0.44141
 Alpha  occ. eigenvalues --   -0.42823  -0.41543  -0.41494  -0.40801  -0.40649
 Alpha  occ. eigenvalues --   -0.40491  -0.40332  -0.39901  -0.39767  -0.38248
 Alpha  occ. eigenvalues --   -0.37262  -0.36974  -0.36714  -0.36247  -0.35703
 Alpha  occ. eigenvalues --   -0.35360  -0.35255  -0.34377  -0.33408  -0.32846
 Alpha  occ. eigenvalues --   -0.30867  -0.30117
 Alpha virt. eigenvalues --   -0.10579  -0.08949  -0.08035  -0.07868  -0.06992
 Alpha virt. eigenvalues --   -0.06600  -0.06269  -0.06004  -0.05497  -0.02913
 Alpha virt. eigenvalues --   -0.01068  -0.00589  -0.00565  -0.00345   0.00018

 Mulliken charges:
               1
     1  N   -0.752567
     2  H    0.312775
     3  H    0.334224
     4  C   -0.072390
     5  H    0.179808
     6  C    0.630921
     7  C   -0.366100
     8  H    0.181313
     9  H    0.145503
    10  O   -0.571303
    11  C    0.170761
    12  C   -0.195938
    13  H    0.120104
    14  C   -0.183697
    15  H    0.126257
    16  C   -0.127327
    17  H    0.141881
    18  C   -0.126792
    19  H    0.141553
    20  C   -0.129311
    21  H    0.144002
    22  N   -0.604230
    23  H    0.374553
    24  C   -0.070399
    25  H    0.182869
    26  C    0.651609
    27  C   -0.279402
    28  H    0.156720
    29  H    0.136290
    30  O   -0.584818
    31  C   -0.077602
    32  H    0.127545
    33  C   -0.442127
    34  H    0.135146
    35  H    0.157138
    36  H    0.148003
    37  C   -0.453780
    38  H    0.134774
    39  H    0.152176
    40  H    0.158842
    41  N   -0.640924
    42  H    0.395185
    43  C   -0.002108
    44  H    0.194494
    45  C    0.619484
    46  C   -0.426144
    47  H    0.204685
    48  H    0.194107
    49  O   -0.580784
    50  C    0.642347
    51  N   -0.738737
    52  H    0.364211
    53  H    0.354489
    54  O   -0.529096
    55  N   -0.589519
    56  H    0.388800
    57  C   -0.059315
    58  H    0.193514
    59  C    0.594708
    60  C   -0.287852
    61  H    0.176006
    62  H    0.169179
    63  O   -0.449688
    64  C   -0.292948
    65  H    0.178793
    66  H    0.173650
    67  C   -0.157776
    68  H    0.181722
    69  H    0.167686
    70  N   -0.623870
    71  H    0.441327
    72  N   -0.759452
    73  H    0.372801
    74  H    0.379999
    75  N   -0.780342
    76  H    0.355403
    77  H    0.434709
    78  C    0.772847
    79  O   -0.564757
    80  H    0.426184
 Sum of Mulliken charges =   1.00000

 Dipole moment (field-independent basis, Debye):
    X=              1.7006    Y=              9.8647    Z=            -10.3630  Tot=             14.4082
 Quadrupole moment (field-independent basis, Debye-Ang):
   XX=           -158.9982   YY=           -184.2483   ZZ=           -111.5519
   XY=            -11.2524   XZ=            -32.7660   YZ=            -43.2402

 Normal termination of Gaussian 16 at Tue Oct 18 19:30:47 2022.
