 Gaussian 16, Revision C.01,
 Gaussian 16:  ES64L-G16RevC.01  3-Jul-2019

 ----------------------------------------------------------------------
 # B3LYP/6-31G* empiricaldispersion=gd3bj guess=read geom=check nosymm
 integral(ultrafinegrid)
 ----------------------------------------------------------------------

 ------------------------------------------------------
 Candidate Structure: Conf:112 Charge calc in gas phase
 ------------------------------------------------------
 Structure from the checkpoint file:  "conf-112.chk"
 Charge =  1 Multiplicity = 1

                          Input orientation:
 ---------------------------------------------------------------------
 Center     Atomic      Atomic             Coordinates (Angstroms)
 Number     Number       Type             X           Y           Z
 ---------------------------------------------------------------------
      1          7           0       -0.987991   10.643112   -7.623077
      2          6           0       -0.322781   10.802447   -6.310717
      3          6           0       -0.988365    9.844705   -5.306125
      4          8           0       -0.493660    8.758337   -5.045938
      5          6           0       -0.331137   12.276511   -5.878008
      6          6           0        0.214936   13.244166   -6.905309
      7          6           0       -0.556897   14.341976   -7.310435
      8          6           0        1.503903   13.102522   -7.437504
      9          6           0       -0.042960   15.295293   -8.195537
     10          6           0        2.012632   14.039472   -8.337098
     11          6           0        1.245065   15.145131   -8.712882
     12          1           0       -1.908801   11.087080   -7.585423
     13          1           0        0.706024   10.446871   -6.409593
     14          1           0        0.245568   12.356180   -4.948208
     15          1           0       -1.351479   12.588706   -5.632363
     16          1           0       -1.560786   14.461109   -6.910562
     17          1           0        2.120405   12.259187   -7.138587
     18          1           0       -0.645685   16.156314   -8.471350
     19          1           0        3.014235   13.912785   -8.736471
     20          1           0        1.648681   15.882107   -9.400224
     21          1           0       -1.182802    9.653759   -7.789262
     22          7           0       -2.207719   10.256564   -4.826633
     23          6           0       -3.214601    9.274430   -4.393734
     24          6           0       -4.292903    9.417138   -5.468971
     25          8           0       -4.197224    8.843327   -6.556837
     26          6           0       -3.656813    9.479731   -2.943497
     27          6           0       -2.530563    9.277787   -1.912758
     28          6           0       -3.048116    9.622982   -0.511098
     29          6           0       -1.952544    7.857167   -1.953698
     30          1           0       -2.599599   11.088270   -5.256982
     31          1           0       -2.767277    8.288344   -4.520863
     32          1           0       -4.052368   10.499253   -2.814240
     33          1           0       -4.481992    8.787364   -2.726804
     34          1           0       -1.726192    9.981832   -2.165904
     35          1           0       -3.852354    8.939516   -0.210779
     36          1           0       -2.247718    9.538005    0.231137
     37          1           0       -3.441499   10.645846   -0.464855
     38          1           0       -2.742131    7.107929   -1.810671
     39          1           0       -1.439907    7.652651   -2.897746
     40          1           0       -1.221921    7.723024   -1.148925
     41          7           0       -5.259387   10.351692   -5.249446
     42          6           0       -5.947457   10.893668   -6.404974
     43          6           0       -4.869678   11.369135   -7.416043
     44          8           0       -3.773543   11.798079   -7.033767
     45          6           0       -6.918370   12.004204   -6.000674
     46          6           0       -7.942583   12.275795   -7.107317
     47          7           0       -8.859074   13.228410   -6.822331
     48          8           0       -7.932402   11.671871   -8.179052
     49          1           0       -5.209258   10.905911   -4.405748
     50          1           0       -6.515961   10.089179   -6.875354
     51          1           0       -7.456496   11.694087   -5.095775
     52          1           0       -6.380165   12.928649   -5.755446
     53          1           0       -9.594763   13.403577   -7.494033
     54          1           0       -8.928351   13.662694   -5.913633
     55          7           0       -5.211439   11.192976   -8.706946
     56          6           0       -4.322705   11.379480   -9.844281
     57          6           0       -3.317182   10.214438  -10.011468
     58          8           0       -2.574850   10.187166  -10.974666
     59          6           0       -3.590338   12.747151   -9.842631
     60          6           0       -3.039413   13.160479  -11.222480
     61          6           0       -1.666409   13.841919  -11.127076
     62          7           0       -0.653057   12.998141  -10.486144
     63          6           0       -0.217330   11.819394  -10.941291
     64          7           0       -0.269067   11.521274  -12.259111
     65          7           0        0.343648   10.970116  -10.082677
     66          8           0       -3.254750    9.249375   -9.097469
     67          1           0       -3.885687    9.308974   -8.342620
     68          1           0       -6.201177   11.013625   -8.872876
     69          1           0       -4.961513   11.335734  -10.732051
     70          1           0       -2.788134   12.710099   -9.104307
     71          1           0       -4.303731   13.493770   -9.479990
     72          1           0       -2.951255   12.280378  -11.861848
     73          1           0       -3.728743   13.851785  -11.720627
     74          1           0       -1.319826   14.163718  -12.116382
     75          1           0       -1.716658   14.745072  -10.514499
     76          1           0       -0.384581   13.238675   -9.538316
     77          1           0       -0.496063   10.562722  -12.492299
     78          1           0       -0.662621   12.205920  -12.888166
     79          1           0        0.729395   10.112635  -10.455293
     80          1           0       -0.040449   10.938828   -9.104050
 ---------------------------------------------------------------------

 SCF Done:  E(RB3LYP) =  -1866.81820812     A.U. after    1 cycles

 Alpha  occ. eigenvalues --  -19.28710 -19.24252 -19.23521 -19.23298 -19.22924
 Alpha  occ. eigenvalues --  -19.20280 -14.48869 -14.48675 -14.47586 -14.47389
 Alpha  occ. eigenvalues --  -14.46947 -14.46635 -14.44686 -14.43319 -10.44538
 Alpha  occ. eigenvalues --  -10.42377 -10.41045 -10.40912 -10.39580 -10.37137
 Alpha  occ. eigenvalues --  -10.35537 -10.35144 -10.34594 -10.32383 -10.32134
 Alpha  occ. eigenvalues --  -10.32019 -10.30049 -10.29780 -10.29641 -10.29146
 Alpha  occ. eigenvalues --  -10.28999 -10.28883 -10.28696 -10.28630 -10.28585
 Alpha  occ. eigenvalues --  -10.27194 -10.25853 -10.23734 -10.22895  -1.19949
 Alpha  occ. eigenvalues --   -1.16301  -1.14971  -1.14375  -1.13459  -1.12142
 Alpha  occ. eigenvalues --   -1.11395  -1.04587  -1.04055  -1.03138  -1.01871
 Alpha  occ. eigenvalues --   -1.01730  -1.01177  -0.99578  -0.95421  -0.91655
 Alpha  occ. eigenvalues --   -0.90139  -0.88572  -0.87733  -0.86174  -0.84254
 Alpha  occ. eigenvalues --   -0.83621  -0.81304  -0.80334  -0.78084  -0.75518
 Alpha  occ. eigenvalues --   -0.74965  -0.74337  -0.73816  -0.72205  -0.71960
 Alpha  occ. eigenvalues --   -0.71111  -0.70294  -0.69923  -0.69416  -0.68866
 Alpha  occ. eigenvalues --   -0.68013  -0.67064  -0.66612  -0.65384  -0.65035
 Alpha  occ. eigenvalues --   -0.63869  -0.63244  -0.63195  -0.62006  -0.61294
 Alpha  occ. eigenvalues --   -0.60839  -0.60674  -0.60040  -0.59378  -0.59185
 Alpha  occ. eigenvalues --   -0.57606  -0.57294  -0.56744  -0.56106  -0.55972
 Alpha  occ. eigenvalues --   -0.55430  -0.55280  -0.55091  -0.54809  -0.54311
 Alpha  occ. eigenvalues --   -0.53495  -0.53270  -0.52986  -0.52749  -0.52119
 Alpha  occ. eigenvalues --   -0.51929  -0.51513  -0.51195  -0.50874  -0.50181
 Alpha  occ. eigenvalues --   -0.49699  -0.49576  -0.49169  -0.48909  -0.48547
 Alpha  occ. eigenvalues --   -0.47708  -0.47570  -0.47295  -0.46568  -0.46253
 Alpha  occ. eigenvalues --   -0.45580  -0.45395  -0.45295  -0.45021  -0.44905
 Alpha  occ. eigenvalues --   -0.44517  -0.43772  -0.43343  -0.43121  -0.41296
 Alpha  occ. eigenvalues --   -0.40456  -0.40325  -0.39611  -0.39357  -0.39203
 Alpha  occ. eigenvalues --   -0.38699  -0.38401  -0.38265  -0.38104  -0.37485
 Alpha  occ. eigenvalues --   -0.37140  -0.36692  -0.35664  -0.35082  -0.34076
 Alpha  occ. eigenvalues --   -0.33757  -0.32779
 Alpha virt. eigenvalues --   -0.11603  -0.10905  -0.10391  -0.09842  -0.09556
 Alpha virt. eigenvalues --   -0.08974  -0.08740  -0.05681  -0.04523  -0.03261
 Alpha virt. eigenvalues --   -0.02619  -0.02166  -0.01354  -0.00918   0.00168

 Mulliken charges:
               1
     1  N   -0.832693
     2  C   -0.052567
     3  C    0.594474
     4  O   -0.493657
     5  C   -0.386482
     6  C    0.180235
     7  C   -0.222385
     8  C   -0.182381
     9  C   -0.158985
    10  C   -0.133787
    11  C   -0.135605
    12  H    0.363575
    13  H    0.174332
    14  H    0.190614
    15  H    0.154017
    16  H    0.143369
    17  H    0.150228
    18  H    0.148561
    19  H    0.158252
    20  H    0.154914
    21  H    0.353363
    22  N   -0.615951
    23  C   -0.064876
    24  C    0.607978
    25  O   -0.544796
    26  C   -0.267835
    27  C   -0.069905
    28  C   -0.446486
    29  C   -0.472710
    30  H    0.352981
    31  H    0.217820
    32  H    0.110487
    33  H    0.153626
    34  H    0.138946
    35  H    0.147015
    36  H    0.158620
    37  H    0.134935
    38  H    0.139553
    39  H    0.183120
    40  H    0.155036
    41  N   -0.608549
    42  C   -0.003922
    43  C    0.571418
    44  O   -0.555133
    45  C   -0.430834
    46  C    0.630160
    47  N   -0.740272
    48  O   -0.520541
    49  H    0.346006
    50  H    0.209144
    51  H    0.199781
    52  H    0.193201
    53  H    0.367332
    54  H    0.356903
    55  N   -0.620647
    56  C   -0.070294
    57  C    0.611999
    58  O   -0.487922
    59  C   -0.275142
    60  C   -0.285333
    61  C   -0.184348
    62  N   -0.597146
    63  C    0.761554
    64  N   -0.731136
    65  N   -0.771067
    66  O   -0.588003
    67  H    0.476711
    68  H    0.396153
    69  H    0.199391
    70  H    0.170566
    71  H    0.164317
    72  H    0.180097
    73  H    0.164365
    74  H    0.171459
    75  H    0.181504
    76  H    0.393387
    77  H    0.380849
    78  H    0.364504
    79  H    0.355695
    80  H    0.438840
 Sum of Mulliken charges =   1.00000

 Dipole moment (field-independent basis, Debye):
    X=            -17.1755    Y=             62.9687    Z=            -40.2578  Tot=             76.6860
 Quadrupole moment (field-independent basis, Debye-Ang):
   XX=            -97.2033   YY=            594.4986   ZZ=            169.5722
   XY=           -227.5591   XZ=            101.6641   YZ=           -529.5764

 Normal termination of Gaussian 16 at Sat Jul 16 16:54:25 2022.
