 Gaussian 16, Revision C.01,
 Gaussian 16:  ES64L-G16RevC.01  3-Jul-2019

 ----------------------------------------------------------------------
 # B3LYP/6-31G* empiricaldispersion=gd3bj guess=read geom=check nosymm
 integral(ultrafinegrid)
 ----------------------------------------------------------------------

 ------------------------------------------------------
 Candidate Structure: Conf:211 Charge calc in gas phase
 ------------------------------------------------------
 Structure from the checkpoint file:  "conf-211.chk"
 Charge =  1 Multiplicity = 1

                          Input orientation:
 ---------------------------------------------------------------------
 Center     Atomic      Atomic             Coordinates (Angstroms)
 Number     Number       Type             X           Y           Z
 ---------------------------------------------------------------------
      1          7           0       -0.572559    9.967739   -8.272117
      2          6           0       -0.132146   10.419224   -6.916333
      3          6           0       -1.000043    9.615514   -5.932856
      4          8           0       -1.640868    8.653154   -6.352058
      5          6           0       -0.180152   11.953604   -6.835708
      6          6           0        0.805410   12.564650   -7.810065
      7          6           0        2.150884   12.703024   -7.444437
      8          6           0        0.406848   12.938308   -9.101563
      9          6           0        3.085864   13.211578   -8.344094
     10          6           0        1.347253   13.449386  -10.000393
     11          6           0        2.684167   13.586749   -9.627256
     12          1           0        0.140624   10.156823   -8.978595
     13          1           0        0.905044   10.084418   -6.792504
     14          1           0        0.079195   12.255488   -5.814648
     15          1           0       -1.205196   12.287814   -7.013824
     16          1           0        2.466560   12.422274   -6.441477
     17          1           0       -0.634812   12.846022   -9.407253
     18          1           0        4.123142   13.321758   -8.042358
     19          1           0        1.031037   13.752809  -10.994699
     20          1           0        3.408804   13.989315  -10.328573
     21          1           0       -1.504535   10.441756   -8.587631
     22          7           0       -0.977104    9.976506   -4.634665
     23          6           0       -1.814666    9.278788   -3.648144
     24          6           0       -3.278938    9.256163   -4.128575
     25          8           0       -3.979383    8.257945   -4.035169
     26          6           0       -1.682151    9.945067   -2.273038
     27          6           0       -0.260415    9.968744   -1.679962
     28          6           0       -0.287866   10.665456   -0.313894
     29          6           0        0.345969    8.564901   -1.573798
     30          1           0       -0.485039   10.810382   -4.347454
     31          1           0       -1.510607    8.231391   -3.600368
     32          1           0       -2.076102   10.969216   -2.329988
     33          1           0       -2.344802    9.397418   -1.592118
     34          1           0        0.388819   10.566474   -2.340489
     35          1           0       -0.903075   10.100180    0.396522
     36          1           0        0.720188   10.743567    0.106292
     37          1           0       -0.703816   11.676900   -0.386517
     38          1           0       -0.290288    7.911466   -0.964441
     39          1           0        0.470990    8.094301   -2.554835
     40          1           0        1.332487    8.605467   -1.100460
     41          7           0       -3.707397   10.430761   -4.675194
     42          6           0       -4.651640   10.365547   -5.770763
     43          6           0       -4.337754   11.548658   -6.687715
     44          8           0       -3.354963   12.267658   -6.468047
     45          6           0       -6.130292   10.261919   -5.324622
     46          6           0       -6.830049    9.310119   -6.278286
     47          7           0       -6.988927    8.050188   -5.812974
     48          8           0       -7.153767    9.659297   -7.417372
     49          1           0       -3.019960   11.163188   -4.830910
     50          1           0       -4.410304    9.469531   -6.361127
     51          1           0       -6.151023    9.889766   -4.300029
     52          1           0       -6.630010   11.233820   -5.353293
     53          1           0       -7.289860    7.339537   -6.466987
     54          1           0       -6.473516    7.752863   -4.993955
     55          7           0       -5.151102   11.708016   -7.746874
     56          6           0       -4.692082   12.502302   -8.872064
     57          6           0       -3.327155   11.957686   -9.401361
     58          8           0       -2.728174   12.649788  -10.284728
     59          6           0       -4.685498   14.026651   -8.540994
     60          6           0       -5.643792   14.886108   -9.395901
     61          6           0       -4.999533   15.514316  -10.640231
     62          7           0       -4.242958   14.525708  -11.405830
     63          6           0       -4.555434   13.969319  -12.565727
     64          7           0       -5.394832   14.541714  -13.450623
     65          7           0       -4.003400   12.775636  -12.873337
     66          8           0       -2.927650   10.858618   -8.951632
     67          1           0       -0.791605    8.961487   -8.227972
     68          1           0       -5.918237   11.037853   -7.865283
     69          1           0       -5.413199   12.317136   -9.677376
     70          1           0       -3.663437   14.416478   -8.595820
     71          1           0       -4.980564   14.120120   -7.495620
     72          1           0       -6.510433   14.284828   -9.698675
     73          1           0       -6.037060   15.712304   -8.792618
     74          1           0       -5.761823   15.984070  -11.269045
     75          1           0       -4.299062   16.302232  -10.343626
     76          1           0       -3.552339   13.958128  -10.857622
     77          1           0       -5.808244   13.994455  -14.190198
     78          1           0       -5.769004   15.463214  -13.289380
     79          1           0       -3.861222   12.526016  -13.841723
     80          1           0       -3.369978   12.378020  -12.175602
 ---------------------------------------------------------------------

 SCF Done:  E(RB3LYP) =  -1866.81586459     A.U. after    1 cycles

 Alpha  occ. eigenvalues --  -19.22972 -19.20596 -19.20381 -19.20174 -19.19549
 Alpha  occ. eigenvalues --  -19.19304 -14.52614 -14.50075 -14.48380 -14.47739
 Alpha  occ. eigenvalues --  -14.47119 -14.43059 -14.42964 -14.42489 -10.45441
 Alpha  occ. eigenvalues --  -10.40148 -10.38148 -10.36910 -10.36670 -10.36292
 Alpha  occ. eigenvalues --  -10.36276 -10.33928 -10.31917 -10.31798 -10.31455
 Alpha  occ. eigenvalues --  -10.29694 -10.28805 -10.28581 -10.27610 -10.27470
 Alpha  occ. eigenvalues --  -10.27363 -10.27205 -10.27197 -10.27177 -10.27068
 Alpha  occ. eigenvalues --  -10.27001 -10.26931 -10.24532 -10.24360  -1.15477
 Alpha  occ. eigenvalues --   -1.14271  -1.13636  -1.12198  -1.11057  -1.10808
 Alpha  occ. eigenvalues --   -1.08076  -1.04937  -1.03621  -1.03191  -1.02065
 Alpha  occ. eigenvalues --   -1.00430  -0.99884  -0.97953  -0.94253  -0.90233
 Alpha  occ. eigenvalues --   -0.89421  -0.88638  -0.86494  -0.84173  -0.83118
 Alpha  occ. eigenvalues --   -0.82657  -0.81792  -0.78187  -0.76171  -0.76150
 Alpha  occ. eigenvalues --   -0.75542  -0.75135  -0.72975  -0.71112  -0.70664
 Alpha  occ. eigenvalues --   -0.70096  -0.69007  -0.68763  -0.67527  -0.67134
 Alpha  occ. eigenvalues --   -0.66522  -0.66265  -0.65351  -0.64647  -0.64377
 Alpha  occ. eigenvalues --   -0.63266  -0.62987  -0.62256  -0.61769  -0.60910
 Alpha  occ. eigenvalues --   -0.60272  -0.59763  -0.59172  -0.58881  -0.57453
 Alpha  occ. eigenvalues --   -0.57277  -0.56465  -0.55757  -0.54582  -0.54406
 Alpha  occ. eigenvalues --   -0.54062  -0.53653  -0.53463  -0.53378  -0.53078
 Alpha  occ. eigenvalues --   -0.52796  -0.52018  -0.51696  -0.51344  -0.51094
 Alpha  occ. eigenvalues --   -0.50876  -0.50502  -0.50225  -0.49511  -0.49172
 Alpha  occ. eigenvalues --   -0.49045  -0.48575  -0.48387  -0.47134  -0.46782
 Alpha  occ. eigenvalues --   -0.46525  -0.46315  -0.46100  -0.45861  -0.45226
 Alpha  occ. eigenvalues --   -0.44939  -0.44621  -0.44303  -0.44092  -0.43852
 Alpha  occ. eigenvalues --   -0.43292  -0.42680  -0.42526  -0.42098  -0.40746
 Alpha  occ. eigenvalues --   -0.40574  -0.40497  -0.40220  -0.37876  -0.37440
 Alpha  occ. eigenvalues --   -0.37044  -0.36701  -0.36370  -0.34974  -0.34413
 Alpha  occ. eigenvalues --   -0.34071  -0.33562  -0.33371  -0.33175  -0.32934
 Alpha  occ. eigenvalues --   -0.32487  -0.32088
 Alpha virt. eigenvalues --   -0.09850  -0.09754  -0.08652  -0.08408  -0.06565
 Alpha virt. eigenvalues --   -0.06530  -0.05966  -0.05431  -0.04937  -0.03839
 Alpha virt. eigenvalues --   -0.02680  -0.02344   0.00189   0.00942   0.01248

 Mulliken charges:
               1
     1  N   -0.767820
     2  C   -0.114168
     3  C    0.667900
     4  O   -0.524184
     5  C   -0.413854
     6  C    0.137693
     7  C   -0.181929
     8  C   -0.232634
     9  C   -0.126683
    10  C   -0.139784
    11  C   -0.125595
    12  H    0.390423
    13  H    0.205351
    14  H    0.158742
    15  H    0.243050
    16  H    0.128138
    17  H    0.191983
    18  H    0.151588
    19  H    0.139493
    20  H    0.150115
    21  H    0.457021
    22  N   -0.645128
    23  C   -0.027968
    24  C    0.612160
    25  O   -0.525012
    26  C   -0.310565
    27  C   -0.080555
    28  C   -0.443622
    29  C   -0.451247
    30  H    0.348729
    31  H    0.198968
    32  H    0.147384
    33  H    0.177397
    34  H    0.107936
    35  H    0.156310
    36  H    0.157418
    37  H    0.146619
    38  H    0.158264
    39  H    0.146129
    40  H    0.159079
    41  N   -0.607287
    42  C   -0.055432
    43  C    0.635264
    44  O   -0.576821
    45  C   -0.367642
    46  C    0.583174
    47  N   -0.720675
    48  O   -0.527101
    49  H    0.344552
    50  H    0.208434
    51  H    0.191371
    52  H    0.182298
    53  H    0.350640
    54  H    0.371167
    55  N   -0.621463
    56  C   -0.057608
    57  C    0.644236
    58  O   -0.618065
    59  C   -0.288813
    60  C   -0.276545
    61  C   -0.168701
    62  N   -0.613372
    63  C    0.773639
    64  N   -0.757805
    65  N   -0.777448
    66  O   -0.587180
    67  H    0.404739
    68  H    0.389560
    69  H    0.160422
    70  H    0.165029
    71  H    0.186181
    72  H    0.155075
    73  H    0.168593
    74  H    0.150566
    75  H    0.190470
    76  H    0.423208
    77  H    0.375941
    78  H    0.378309
    79  H    0.360747
    80  H    0.401201
 Sum of Mulliken charges =   1.00000

 Dipole moment (field-independent basis, Debye):
    X=            -12.2480    Y=             60.5602    Z=            -46.0539  Tot=             77.0618
 Quadrupole moment (field-independent basis, Debye-Ang):
   XX=           -140.1100   YY=            564.2728   ZZ=            313.3140
   XY=           -180.9412   XZ=            158.5547   YZ=           -613.4827

 Normal termination of Gaussian 16 at Sat Jul 16 16:54:25 2022.
