 Gaussian 16, Revision C.01,
 Gaussian 16:  ES64L-G16RevC.01  3-Jul-2019

 ----------------------------------------------------------------------
 # B3LYP/6-31G* empiricaldispersion=gd3bj guess=read geom=check nosymm
 integral(ultrafinegrid)
 ----------------------------------------------------------------------

 ------------------------------------------------------
 Candidate Structure: Conf:879 Charge calc in gas phase
 ------------------------------------------------------
 Structure from the checkpoint file:  "conf-879.chk"
 Charge =  1 Multiplicity = 1

                          Input orientation:
 ---------------------------------------------------------------------
 Center     Atomic      Atomic             Coordinates (Angstroms)
 Number     Number       Type             X           Y           Z
 ---------------------------------------------------------------------
      1          7           0       -4.052766    2.799301    0.700367
      2          1           0       -4.909681    2.263095    0.837338
      3          1           0       -4.217175    3.709641    1.124941
      4          6           0       -2.936968    2.141039    1.386220
      5          1           0       -2.122617    2.874783    1.436107
      6          6           0       -2.334160    1.045242    0.510728
      7          6           0       -3.211426    1.644667    2.815253
      8          1           0       -2.362910    1.024624    3.123164
      9          1           0       -4.087734    0.983821    2.809275
     10          8           0       -1.627766    0.138347    0.977670
     11          6           0       -3.424278    2.788431    3.781041
     12          6           0       -2.415484    3.743891    3.982141
     13          1           0       -1.483378    3.673926    3.424450
     14          6           0       -4.625758    2.926721    4.482757
     15          1           0       -5.416382    2.194603    4.336232
     16          6           0       -2.604578    4.800688    4.871414
     17          1           0       -1.813450    5.531131    5.015842
     18          6           0       -4.817304    3.983920    5.374525
     19          1           0       -5.756673    4.072029    5.912780
     20          6           0       -3.806224    4.923348    5.572538
     21          1           0       -3.952905    5.746578    6.265400
     22          7           0       -2.537944    1.213084   -0.814821
     23          1           0       -3.093424    2.027857   -1.066899
     24          6           0       -1.843966    0.424829   -1.829656
     25          1           0       -1.793288   -0.597572   -1.441531
     26          6           0       -0.402673    0.973619   -1.940990
     27          6           0       -2.610472    0.470269   -3.148651
     28          1           0       -3.638289    0.140849   -2.949809
     29          1           0       -2.659652    1.512149   -3.486631
     30          8           0       -0.002943    1.664435   -2.879203
     31          6           0       -2.004885   -0.379143   -4.278233
     32          1           0       -1.015465    0.039919   -4.486698
     33          6           0       -1.849492   -1.854099   -3.883454
     34          1           0       -2.812667   -2.290343   -3.593684
     35          1           0       -1.476441   -2.453003   -4.725212
     36          1           0       -1.166625   -1.994939   -3.036362
     37          6           0       -2.854473   -0.247394   -5.547399
     38          1           0       -3.862382   -0.650104   -5.392051
     39          1           0       -2.955773    0.800455   -5.850068
     40          1           0       -2.408449   -0.799593   -6.384357
     41          7           0        0.367606    0.672633   -0.862398
     42          1           0       -0.129610    0.228618   -0.085019
     43          6           0        1.503337    1.510081   -0.527450
     44          1           0        1.218522    2.562614   -0.645165
     45          6           0        2.700573    1.226982   -1.432351
     46          6           0        1.878606    1.296597    0.945035
     47          1           0        1.999752    0.227966    1.154650
     48          1           0        2.842948    1.776459    1.151399
     49          8           0        2.925011    0.118848   -1.937082
     50          6           0        0.840029    1.952359    1.866817
     51          7           0        0.726397    1.401521    3.098852
     52          1           0        0.023709    1.773924    3.724777
     53          1           0        1.102489    0.489150    3.309916
     54          8           0        0.218561    2.950173    1.514915
     55          7           0        3.513263    2.284252   -1.625846
     56          1           0        3.350181    3.146844   -1.114706
     57          6           0        4.827826    2.173680   -2.237380
     58          1           0        5.204837    1.160618   -2.060703
     59          6           0        5.727555    3.165156   -1.505204
     60          6           0        4.853586    2.448533   -3.757349
     61          1           0        5.905204    2.462701   -4.057700
     62          1           0        4.457535    3.455150   -3.944599
     63          8           0        5.323052    3.987607   -0.712567
     64          6           0        4.109940    1.408228   -4.613324
     65          1           0        4.561033    1.398704   -5.613169
     66          1           0        4.255853    0.409314   -4.189914
     67          6           0        2.610550    1.688273   -4.776552
     68          1           0        2.051091    1.699803   -3.842445
     69          1           0        2.456045    2.668804   -5.236414
     70          7           0        1.964776    0.713587   -5.668893
     71          1           0        2.062320    0.867324   -6.664005
     72          7           0        1.569015   -0.954874   -4.081182
     73          1           0        0.963427   -1.712492   -3.798451
     74          1           0        2.086544   -0.486414   -3.320921
     75          7           0        0.841668   -1.207001   -6.269761
     76          1           0        0.442810   -2.100051   -6.017642
     77          1           0        0.382136   -0.730168   -7.033218
     78          6           0        1.455671   -0.467933   -5.310209
     79          8           0        7.012912    3.027696   -1.863148
     80          1           0        7.526688    3.701263   -1.376702
 ---------------------------------------------------------------------

 SCF Done:  E(RB3LYP) =  -1866.81472487     A.U. after    1 cycles

 Alpha  occ. eigenvalues --  -19.30117 -19.24694 -19.23160 -19.21665 -19.20671
 Alpha  occ. eigenvalues --  -19.20241 -14.50914 -14.50776 -14.49354 -14.47193
 Alpha  occ. eigenvalues --  -14.44643 -14.44358 -14.44353 -14.40000 -10.46802
 Alpha  occ. eigenvalues --  -10.42685 -10.40032 -10.38446 -10.37931 -10.36752
 Alpha  occ. eigenvalues --  -10.34670 -10.33736 -10.33412 -10.32358 -10.30253
 Alpha  occ. eigenvalues --  -10.29942 -10.29700 -10.29438 -10.28545 -10.27987
 Alpha  occ. eigenvalues --  -10.27623 -10.26585 -10.25547 -10.25420 -10.24598
 Alpha  occ. eigenvalues --  -10.24538 -10.24483 -10.24460 -10.24311  -1.21244
 Alpha  occ. eigenvalues --   -1.15517  -1.14994  -1.13236  -1.12413  -1.12394
 Alpha  occ. eigenvalues --   -1.11726  -1.04896  -1.03977  -1.03149  -1.02040
 Alpha  occ. eigenvalues --   -1.01174  -0.99500  -0.96836  -0.91567  -0.91126
 Alpha  occ. eigenvalues --   -0.90744  -0.88680  -0.86343  -0.84278  -0.83734
 Alpha  occ. eigenvalues --   -0.81033  -0.79982  -0.78553  -0.78211  -0.78147
 Alpha  occ. eigenvalues --   -0.76651  -0.74813  -0.72749  -0.72531  -0.71997
 Alpha  occ. eigenvalues --   -0.70737  -0.69340  -0.69061  -0.67875  -0.67667
 Alpha  occ. eigenvalues --   -0.66304  -0.66167  -0.64955  -0.64226  -0.63769
 Alpha  occ. eigenvalues --   -0.63642  -0.63217  -0.62100  -0.61256  -0.60839
 Alpha  occ. eigenvalues --   -0.59835  -0.58986  -0.58846  -0.58295  -0.58053
 Alpha  occ. eigenvalues --   -0.57545  -0.57011  -0.56171  -0.55847  -0.55480
 Alpha  occ. eigenvalues --   -0.55248  -0.55051  -0.54247  -0.53480  -0.53234
 Alpha  occ. eigenvalues --   -0.52831  -0.52642  -0.51994  -0.51729  -0.51230
 Alpha  occ. eigenvalues --   -0.50732  -0.50519  -0.50318  -0.49791  -0.49485
 Alpha  occ. eigenvalues --   -0.48809  -0.48627  -0.48297  -0.48167  -0.48009
 Alpha  occ. eigenvalues --   -0.47523  -0.47482  -0.46846  -0.46092  -0.45775
 Alpha  occ. eigenvalues --   -0.45738  -0.45566  -0.45128  -0.44940  -0.44579
 Alpha  occ. eigenvalues --   -0.42750  -0.42269  -0.42213  -0.42138  -0.41890
 Alpha  occ. eigenvalues --   -0.41582  -0.41317  -0.39577  -0.39491  -0.39418
 Alpha  occ. eigenvalues --   -0.38493  -0.37215  -0.37037  -0.36645  -0.35914
 Alpha  occ. eigenvalues --   -0.35474  -0.34744  -0.34332  -0.33171  -0.32372
 Alpha  occ. eigenvalues --   -0.30656  -0.29730
 Alpha virt. eigenvalues --   -0.11359  -0.09937  -0.09323  -0.08611  -0.07884
 Alpha virt. eigenvalues --   -0.07032  -0.06250  -0.05574  -0.05255  -0.04173
 Alpha virt. eigenvalues --   -0.03365  -0.02010  -0.01147  -0.00694   0.00226

 Mulliken charges:
               1
     1  N   -0.746351
     2  H    0.309964
     3  H    0.331170
     4  C   -0.103074
     5  H    0.224880
     6  C    0.642104
     7  C   -0.362859
     8  H    0.167236
     9  H    0.143597
    10  O   -0.583642
    11  C    0.164966
    12  C   -0.221505
    13  H    0.147446
    14  C   -0.196040
    15  H    0.127144
    16  C   -0.130789
    17  H    0.139174
    18  C   -0.126180
    19  H    0.141775
    20  C   -0.128784
    21  H    0.141828
    22  N   -0.604826
    23  H    0.368395
    24  C   -0.062733
    25  H    0.178517
    26  C    0.621358
    27  C   -0.271020
    28  H    0.153817
    29  H    0.159611
    30  O   -0.546463
    31  C   -0.095957
    32  H    0.140528
    33  C   -0.474388
    34  H    0.175968
    35  H    0.119624
    36  H    0.141895
    37  C   -0.446631
    38  H    0.162521
    39  H    0.159396
    40  H    0.119170
    41  N   -0.624776
    42  H    0.390050
    43  C   -0.046805
    44  H    0.199846
    45  C    0.638215
    46  C   -0.410355
    47  H    0.178654
    48  H    0.201357
    49  O   -0.576999
    50  C    0.633277
    51  N   -0.742544
    52  H    0.366798
    53  H    0.350959
    54  O   -0.513994
    55  N   -0.592519
    56  H    0.367816
    57  C   -0.046128
    58  H    0.206293
    59  C    0.587945
    60  C   -0.279319
    61  H    0.188890
    62  H    0.158933
    63  O   -0.455655
    64  C   -0.270759
    65  H    0.151841
    66  H    0.171033
    67  C   -0.199550
    68  H    0.237175
    69  H    0.179963
    70  N   -0.591749
    71  H    0.358293
    72  N   -0.788150
    73  H    0.367434
    74  H    0.462892
    75  N   -0.757774
    76  H    0.374288
    77  H    0.373158
    78  C    0.792770
    79  O   -0.555402
    80  H    0.433752
 Sum of Mulliken charges =   1.00000

 Dipole moment (field-independent basis, Debye):
    X=              5.4350    Y=              2.6121    Z=            -14.9152  Tot=             16.0881
 Quadrupole moment (field-independent basis, Debye-Ang):
   XX=           -153.1688   YY=           -210.3960   ZZ=           -100.4578
   XY=             15.2679   XZ=            -31.6951   YZ=              9.6878

 Normal termination of Gaussian 16 at Tue Oct 18 19:30:27 2022.
