 Gaussian 16, Revision C.01,
 Gaussian 16:  ES64L-G16RevC.01  3-Jul-2019

 ----------------------------------------------------------------------
 # B3LYP/6-31G* empiricaldispersion=gd3bj guess=read geom=check nosymm
 integral(ultrafinegrid)
 ----------------------------------------------------------------------

 ------------------------------------------------------
 Candidate Structure: Conf:950 Charge calc in gas phase
 ------------------------------------------------------
 Structure from the checkpoint file:  "conf-950.chk"
 Charge =  1 Multiplicity = 1

                          Input orientation:
 ---------------------------------------------------------------------
 Center     Atomic      Atomic             Coordinates (Angstroms)
 Number     Number       Type             X           Y           Z
 ---------------------------------------------------------------------
      1          7           0       -1.358186   15.486570   -5.061589
      2          6           0       -1.658626   14.112806   -5.440322
      3          6           0       -0.541620   13.133635   -5.028643
      4          8           0        0.567510   13.526526   -4.685917
      5          6           0       -1.892294   14.032423   -6.975604
      6          6           0       -3.219603   14.643452   -7.341525
      7          6           0       -4.342925   13.819983   -7.499948
      8          6           0       -3.381716   16.033419   -7.442817
      9          6           0       -5.600286   14.368672   -7.759019
     10          6           0       -4.638839   16.584386   -7.710650
     11          6           0       -5.752498   15.752677   -7.870045
     12          1           0       -0.341407   15.586907   -5.096296
     13          1           0       -2.586656   13.799784   -4.947503
     14          1           0       -1.865174   12.991755   -7.312712
     15          1           0       -1.062210   14.559568   -7.460489
     16          1           0       -4.222040   12.743893   -7.397671
     17          1           0       -2.525159   16.675878   -7.270380
     18          1           0       -6.464299   13.716172   -7.860552
     19          1           0       -4.754064   17.663841   -7.762066
     20          1           0       -6.733520   16.183148   -8.052346
     21          1           0       -1.603478   15.632072   -4.084181
     22          7           0       -0.889679   11.817131   -5.083460
     23          6           0        0.124607   10.763191   -4.927215
     24          6           0       -0.399484    9.565279   -5.711334
     25          8           0        0.125343    9.151390   -6.733299
     26          6           0        0.420502   10.466741   -3.448641
     27          6           0        1.364857    9.275399   -3.214292
     28          6           0        2.692658    9.428263   -3.969388
     29          6           0        1.605480    9.094312   -1.710864
     30          1           0       -1.732044   11.566480   -5.595823
     31          1           0        1.040304   11.087500   -5.424912
     32          1           0        0.853475   11.378885   -3.022477
     33          1           0       -0.527429   10.294989   -2.920073
     34          1           0        0.864376    8.369369   -3.587964
     35          1           0        2.550830    9.409022   -5.054797
     36          1           0        3.185707   10.372072   -3.704859
     37          1           0        3.376008    8.611443   -3.713173
     38          1           0        2.120990    9.967437   -1.292252
     39          1           0        0.662854    8.969222   -1.164686
     40          1           0        2.227895    8.214340   -1.515918
     41          7           0       -1.568068    9.014940   -5.212473
     42          6           0       -2.413401    8.304517   -6.148326
     43          6           0       -2.938523    9.306674   -7.206943
     44          8           0       -2.886838   10.531825   -7.033991
     45          6           0       -3.518135    7.529711   -5.416629
     46          6           0       -4.040303    6.341786   -6.226419
     47          7           0       -4.807157    5.468442   -5.534315
     48          8           0       -3.797209    6.186641   -7.423870
     49          1           0       -2.041332    9.557002   -4.499118
     50          1           0       -1.773775    7.596547   -6.678954
     51          1           0       -3.103690    7.162747   -4.470484
     52          1           0       -4.362071    8.183878   -5.160294
     53          1           0       -5.146345    4.643964   -6.011886
     54          1           0       -4.928971    5.526219   -4.534080
     55          7           0       -3.368451    8.759489   -8.359513
     56          6           0       -3.517056    9.554556   -9.566509
     57          6           0       -2.315237   10.509367   -9.692878
     58          8           0       -2.373149   11.692106  -10.001268
     59          6           0       -4.861112   10.291164   -9.678722
     60          6           0       -5.209729   10.695205  -11.133298
     61          6           0       -5.719503   12.131177  -11.263040
     62          7           0       -4.635383   13.039312  -10.895059
     63          6           0       -4.707040   14.358807  -10.854991
     64          7           0       -5.840883   15.001451  -11.183148
     65          7           0       -3.603601   15.085151  -10.571136
     66          8           0       -1.173781    9.870966   -9.474684
     67          1           0       -0.432693   10.505895   -9.478481
     68          1           0       -3.401548    7.738862   -8.397851
     69          1           0       -3.427705    8.848136  -10.401079
     70          1           0       -4.833957   11.161764   -9.016896
     71          1           0       -5.631256    9.623248   -9.284144
     72          1           0       -4.333661   10.592313  -11.785378
     73          1           0       -5.971442   10.023586  -11.539716
     74          1           0       -6.041630   12.336699  -12.290553
     75          1           0       -6.579440   12.285185  -10.594623
     76          1           0       -3.783985   12.596517  -10.525033
     77          1           0       -5.877274   16.008190  -11.117290
     78          1           0       -6.723247   14.512689  -11.175373
     79          1           0       -3.743393   15.914301   -9.999861
     80          1           0       -2.790495   14.554479  -10.281633
 ---------------------------------------------------------------------

 SCF Done:  E(RB3LYP) =  -1866.80256475     A.U. after    3 cycles

 Alpha  occ. eigenvalues --  -19.30840 -19.26731 -19.23123 -19.22443 -19.20347
 Alpha  occ. eigenvalues --  -19.18698 -14.51070 -14.49790 -14.49259 -14.46069
 Alpha  occ. eigenvalues --  -14.46053 -14.44692 -14.42853 -14.38311 -10.46475
 Alpha  occ. eigenvalues --  -10.44567 -10.40078 -10.39323 -10.36966 -10.35867
 Alpha  occ. eigenvalues --  -10.35736 -10.35197 -10.33373 -10.31376 -10.30982
 Alpha  occ. eigenvalues --  -10.30457 -10.29974 -10.29902 -10.28858 -10.28798
 Alpha  occ. eigenvalues --  -10.28778 -10.28618 -10.28213 -10.27917 -10.27279
 Alpha  occ. eigenvalues --  -10.24835 -10.24794 -10.22679 -10.22386  -1.22649
 Alpha  occ. eigenvalues --   -1.15476  -1.14800  -1.14014  -1.13614  -1.12180
 Alpha  occ. eigenvalues --   -1.10444  -1.04931  -1.03529  -1.03437  -1.01861
 Alpha  occ. eigenvalues --   -1.00944  -0.99332  -0.96358  -0.94641  -0.92330
 Alpha  occ. eigenvalues --   -0.89082  -0.87411  -0.86644  -0.86542  -0.83892
 Alpha  occ. eigenvalues --   -0.82164  -0.81005  -0.79401  -0.77839  -0.77470
 Alpha  occ. eigenvalues --   -0.74532  -0.73619  -0.73259  -0.72773  -0.72050
 Alpha  occ. eigenvalues --   -0.70591  -0.69892  -0.69439  -0.68426  -0.67628
 Alpha  occ. eigenvalues --   -0.67397  -0.66738  -0.65466  -0.64574  -0.64282
 Alpha  occ. eigenvalues --   -0.63678  -0.62934  -0.62285  -0.62014  -0.61381
 Alpha  occ. eigenvalues --   -0.60791  -0.60033  -0.59697  -0.59123  -0.58576
 Alpha  occ. eigenvalues --   -0.57723  -0.57488  -0.56022  -0.55715  -0.55506
 Alpha  occ. eigenvalues --   -0.55035  -0.54744  -0.54503  -0.53901  -0.53592
 Alpha  occ. eigenvalues --   -0.52960  -0.52866  -0.52265  -0.51853  -0.51293
 Alpha  occ. eigenvalues --   -0.51096  -0.50598  -0.50490  -0.50270  -0.49818
 Alpha  occ. eigenvalues --   -0.49639  -0.48478  -0.48247  -0.48033  -0.47596
 Alpha  occ. eigenvalues --   -0.47070  -0.46762  -0.46251  -0.46168  -0.46006
 Alpha  occ. eigenvalues --   -0.45704  -0.45160  -0.44824  -0.44019  -0.43481
 Alpha  occ. eigenvalues --   -0.43245  -0.42940  -0.42785  -0.42643  -0.42033
 Alpha  occ. eigenvalues --   -0.41442  -0.40838  -0.39646  -0.38924  -0.38476
 Alpha  occ. eigenvalues --   -0.38064  -0.37629  -0.37116  -0.36418  -0.36193
 Alpha  occ. eigenvalues --   -0.35190  -0.34888  -0.34115  -0.33892  -0.32690
 Alpha  occ. eigenvalues --   -0.31879  -0.30762
 Alpha virt. eigenvalues --   -0.11737  -0.11247  -0.10225  -0.09890  -0.08912
 Alpha virt. eigenvalues --   -0.07947  -0.06861  -0.06611  -0.04312  -0.03211
 Alpha virt. eigenvalues --   -0.02430  -0.01824  -0.01658  -0.01255  -0.00935

 Mulliken charges:
               1
     1  N   -0.709125
     2  C   -0.084107
     3  C    0.591180
     4  O   -0.513639
     5  C   -0.361302
     6  C    0.141469
     7  C   -0.210820
     8  C   -0.175361
     9  C   -0.154670
    10  C   -0.173064
    11  C   -0.145600
    12  H    0.324040
    13  H    0.153032
    14  H    0.166423
    15  H    0.152782
    16  H    0.171269
    17  H    0.170220
    18  H    0.128619
    19  H    0.154305
    20  H    0.139345
    21  H    0.312896
    22  N   -0.664505
    23  C   -0.035476
    24  C    0.582637
    25  O   -0.510759
    26  C   -0.259805
    27  C   -0.082183
    28  C   -0.459810
    29  C   -0.443517
    30  H    0.367434
    31  H    0.191770
    32  H    0.176407
    33  H    0.116138
    34  H    0.127902
    35  H    0.159162
    36  H    0.152116
    37  H    0.151101
    38  H    0.151015
    39  H    0.136035
    40  H    0.151199
    41  N   -0.597708
    42  C   -0.051230
    43  C    0.621487
    44  O   -0.557214
    45  C   -0.410856
    46  C    0.630592
    47  N   -0.738603
    48  O   -0.525068
    49  H    0.332680
    50  H    0.223691
    51  H    0.196618
    52  H    0.189509
    53  H    0.364948
    54  H    0.356240
    55  N   -0.610976
    56  C   -0.029877
    57  C    0.626188
    58  O   -0.522037
    59  C   -0.293643
    60  C   -0.320298
    61  C   -0.151663
    62  N   -0.629062
    63  C    0.779683
    64  N   -0.742201
    65  N   -0.739234
    66  O   -0.518260
    67  H    0.439105
    68  H    0.397597
    69  H    0.196963
    70  H    0.181312
    71  H    0.174878
    72  H    0.172755
    73  H    0.183035
    74  H    0.189171
    75  H    0.166654
    76  H    0.432270
    77  H    0.377916
    78  H    0.377052
    79  H    0.367541
    80  H    0.375293
 Sum of Mulliken charges =   1.00000

 Dipole moment (field-independent basis, Debye):
    X=            -25.6682    Y=             55.5433    Z=            -41.7687  Tot=             74.0847
 Quadrupole moment (field-independent basis, Debye-Ang):
   XX=            -89.9022   YY=            491.8574   ZZ=            186.2035
   XY=           -301.7270   XZ=            229.6815   YZ=           -530.4895

 Normal termination of Gaussian 16 at Sat Jul 16 16:55:00 2022.
