 Gaussian 16, Revision C.01,
 Gaussian 16:  ES64L-G16RevC.01  3-Jul-2019

 ----------------------------------------------------------------------
 # B3LYP/6-31G* empiricaldispersion=gd3bj guess=read geom=check nosymm
 integral(ultrafinegrid)
 ----------------------------------------------------------------------

 ------------------------------------------------------
 Candidate Structure: Conf:472 Charge calc in gas phase
 ------------------------------------------------------
 Structure from the checkpoint file:  "conf-472.chk"
 Charge =  1 Multiplicity = 1

                          Input orientation:
 ---------------------------------------------------------------------
 Center     Atomic      Atomic             Coordinates (Angstroms)
 Number     Number       Type             X           Y           Z
 ---------------------------------------------------------------------
      1          7           0       -1.522263    8.941425   -7.280253
      2          6           0       -2.685348    8.783165   -8.173454
      3          6           0       -2.339273    9.542146   -9.486330
      4          8           0       -1.169886    9.578186   -9.862609
      5          6           0       -3.977280    9.272260   -7.494513
      6          6           0       -4.462412    8.495272   -6.283229
      7          6           0       -3.603565    8.059180   -5.259280
      8          6           0       -5.836708    8.250332   -6.142796
      9          6           0       -4.111602    7.395578   -4.138538
     10          6           0       -6.346060    7.594468   -5.020025
     11          6           0       -5.482461    7.163157   -4.009810
     12          1           0       -1.446369    9.947366   -7.127264
     13          1           0       -2.785853    7.718770   -8.419902
     14          1           0       -4.792796    9.250996   -8.226822
     15          1           0       -3.830536   10.323594   -7.215260
     16          1           0       -2.539837    8.230079   -5.365967
     17          1           0       -6.518478    8.572029   -6.926466
     18          1           0       -3.428174    7.055691   -3.365500
     19          1           0       -7.412909    7.401600   -4.946614
     20          1           0       -5.871526    6.637487   -3.142673
     21          1           0       -0.707830    8.711718   -7.853548
     22          7           0       -3.295946   10.252278  -10.148030
     23          6           0       -2.905333   11.177424  -11.215784
     24          6           0       -1.830195   12.151931  -10.696418
     25          8           0       -0.903073   12.546680  -11.392772
     26          6           0       -4.150571   11.910642  -11.736239
     27          6           0       -3.880035   12.980594  -12.808736
     28          6           0       -3.135688   12.411475  -14.023126
     29          6           0       -5.205277   13.630188  -13.224997
     30          1           0       -4.263655   10.218513   -9.865060
     31          1           0       -2.420345   10.618799  -12.018669
     32          1           0       -4.838613   11.157833  -12.146173
     33          1           0       -4.661275   12.381670  -10.883684
     34          1           0       -3.246753   13.756966  -12.358443
     35          1           0       -3.045743   13.172191  -14.805902
     36          1           0       -2.125278   12.087769  -13.758784
     37          1           0       -3.677501   11.558182  -14.451391
     38          1           0       -5.033649   14.437742  -13.944226
     39          1           0       -5.868044   12.896726  -13.701238
     40          1           0       -5.736110   14.053452  -12.363777
     41          7           0       -2.009990   12.569416   -9.404108
     42          6           0       -0.843049   12.970018   -8.647363
     43          6           0       -1.122428   12.654177   -7.176352
     44          8           0       -2.092114   11.945701   -6.852742
     45          6           0       -0.426165   14.435498   -8.924303
     46          6           0        1.084492   14.549410   -8.810048
     47          7           0        1.748850   14.566897   -9.984065
     48          8           0        1.653746   14.563154   -7.711827
     49          1           0       -2.685737   12.060110   -8.846042
     50          1           0       -0.007519   12.318287   -8.946764
     51          1           0       -0.766817   14.687881   -9.928239
     52          1           0       -0.893655   15.123879   -8.214717
     53          1           0        2.758621   14.502899   -9.967091
     54          1           0        1.268077   14.345593  -10.846598
     55          7           0       -0.246463   13.106283   -6.265724
     56          6           0       -0.411450   12.725861   -4.867983
     57          6           0       -0.648258   11.208297   -4.768243
     58          8           0       -1.480443   10.659379   -4.060921
     59          6           0       -1.529990   13.541661   -4.194902
     60          6           0       -1.636120   13.378238   -2.660847
     61          6           0       -3.078051   13.151066   -2.192022
     62          7           0       -3.573724   11.901361   -2.776142
     63          6           0       -4.844456   11.546079   -2.902029
     64          7           0       -5.812215   12.212908   -2.245065
     65          7           0       -5.181046   10.537054   -3.718077
     66          8           0        0.214877   10.513013   -5.506006
     67          1           0       -0.071077    9.574093   -5.488503
     68          1           0        0.552337   13.682432   -6.574510
     69          1           0        0.547879   12.922280   -4.374563
     70          1           0       -2.468164   13.261258   -4.682440
     71          1           0       -1.349208   14.590843   -4.444716
     72          1           0       -1.025834   12.539463   -2.309393
     73          1           0       -1.254780   14.268686   -2.152504
     74          1           0       -3.112412   13.097912   -1.096453
     75          1           0       -3.719354   13.980462   -2.516875
     76          1           0       -2.861634   11.326393   -3.246466
     77          1           0       -6.786774   12.046082   -2.444767
     78          1           0       -5.587495   12.879561   -1.522967
     79          1           0       -6.036919   10.016817   -3.582721
     80          1           0       -4.461397   10.022647   -4.219860
 ---------------------------------------------------------------------

 SCF Done:  E(RB3LYP) =  -1866.80810327     A.U. after    2 cycles

 Alpha  occ. eigenvalues --  -19.30594 -19.26308 -19.23391 -19.20860 -19.19959
 Alpha  occ. eigenvalues --  -19.19897 -14.51514 -14.49719 -14.49707 -14.46383
 Alpha  occ. eigenvalues --  -14.45116 -14.44445 -14.43499 -14.39913 -10.46928
 Alpha  occ. eigenvalues --  -10.44363 -10.39860 -10.38209 -10.36951 -10.36627
 Alpha  occ. eigenvalues --  -10.35682 -10.35629 -10.33410 -10.31387 -10.31183
 Alpha  occ. eigenvalues --  -10.30935 -10.30101 -10.29340 -10.28722 -10.28607
 Alpha  occ. eigenvalues --  -10.28532 -10.28341 -10.28311 -10.28236 -10.27378
 Alpha  occ. eigenvalues --  -10.26941 -10.25739 -10.23571 -10.22889  -1.22456
 Alpha  occ. eigenvalues --   -1.15602  -1.15226  -1.13245  -1.12575  -1.12346
 Alpha  occ. eigenvalues --   -1.11323  -1.04897  -1.03737  -1.03519  -1.01854
 Alpha  occ. eigenvalues --   -1.00288  -0.99373  -0.97736  -0.94728  -0.91984
 Alpha  occ. eigenvalues --   -0.88919  -0.88158  -0.86997  -0.85832  -0.83601
 Alpha  occ. eigenvalues --   -0.82713  -0.80810  -0.80091  -0.78047  -0.77456
 Alpha  occ. eigenvalues --   -0.74445  -0.74304  -0.73723  -0.73194  -0.72363
 Alpha  occ. eigenvalues --   -0.71072  -0.69648  -0.69251  -0.68363  -0.68058
 Alpha  occ. eigenvalues --   -0.67438  -0.66890  -0.66048  -0.65037  -0.64661
 Alpha  occ. eigenvalues --   -0.63313  -0.62801  -0.62360  -0.61891  -0.61284
 Alpha  occ. eigenvalues --   -0.60775  -0.60039  -0.59856  -0.59394  -0.58150
 Alpha  occ. eigenvalues --   -0.57741  -0.56774  -0.56468  -0.55934  -0.55604
 Alpha  occ. eigenvalues --   -0.55439  -0.54728  -0.54336  -0.54019  -0.53656
 Alpha  occ. eigenvalues --   -0.53545  -0.53004  -0.52416  -0.52030  -0.51229
 Alpha  occ. eigenvalues --   -0.50926  -0.50870  -0.50295  -0.50033  -0.49771
 Alpha  occ. eigenvalues --   -0.49529  -0.48857  -0.48513  -0.48258  -0.48184
 Alpha  occ. eigenvalues --   -0.47184  -0.46737  -0.46465  -0.46108  -0.45994
 Alpha  occ. eigenvalues --   -0.45768  -0.45609  -0.44974  -0.44367  -0.43756
 Alpha  occ. eigenvalues --   -0.43525  -0.43414  -0.43133  -0.42723  -0.42463
 Alpha  occ. eigenvalues --   -0.42101  -0.40365  -0.39698  -0.39602  -0.39198
 Alpha  occ. eigenvalues --   -0.38965  -0.37535  -0.36744  -0.35988  -0.35845
 Alpha  occ. eigenvalues --   -0.34890  -0.34659  -0.34395  -0.33914  -0.33876
 Alpha  occ. eigenvalues --   -0.32703  -0.32348
 Alpha virt. eigenvalues --   -0.11326  -0.10971  -0.09955  -0.09668  -0.08872
 Alpha virt. eigenvalues --   -0.07199  -0.06773  -0.06621  -0.05489  -0.03102
 Alpha virt. eigenvalues --   -0.02163  -0.01606  -0.01135  -0.00725   0.00149

 Mulliken charges:
               1
     1  N   -0.775160
     2  C   -0.066522
     3  C    0.597848
     4  O   -0.516499
     5  C   -0.388345
     6  C    0.147585
     7  C   -0.218494
     8  C   -0.188910
     9  C   -0.134982
    10  C   -0.158839
    11  C   -0.145744
    12  H    0.337972
    13  H    0.181614
    14  H    0.138084
    15  H    0.188251
    16  H    0.186515
    17  H    0.136657
    18  H    0.151673
    19  H    0.150794
    20  H    0.151388
    21  H    0.330512
    22  N   -0.658651
    23  C   -0.005942
    24  C    0.630517
    25  O   -0.536766
    26  C   -0.305344
    27  C   -0.076971
    28  C   -0.460901
    29  C   -0.444743
    30  H    0.339182
    31  H    0.202295
    32  H    0.152340
    33  H    0.130948
    34  H    0.140141
    35  H    0.153226
    36  H    0.174191
    37  H    0.140453
    38  H    0.156868
    39  H    0.146598
    40  H    0.137347
    41  N   -0.615801
    42  C   -0.038959
    43  C    0.616121
    44  O   -0.579514
    45  C   -0.373420
    46  C    0.595092
    47  N   -0.719039
    48  O   -0.530970
    49  H    0.348846
    50  H    0.212507
    51  H    0.198958
    52  H    0.177647
    53  H    0.359028
    54  H    0.374391
    55  N   -0.619834
    56  C   -0.042457
    57  C    0.633477
    58  O   -0.516163
    59  C   -0.283860
    60  C   -0.317266
    61  C   -0.156554
    62  N   -0.631337
    63  C    0.801062
    64  N   -0.763437
    65  N   -0.775923
    66  O   -0.550445
    67  H    0.444232
    68  H    0.405096
    69  H    0.201002
    70  H    0.177903
    71  H    0.174429
    72  H    0.176847
    73  H    0.180885
    74  H    0.180243
    75  H    0.175238
    76  H    0.432281
    77  H    0.378591
    78  H    0.384195
    79  H    0.367157
    80  H    0.399567
 Sum of Mulliken charges =   1.00000

 Dipole moment (field-independent basis, Debye):
    X=            -20.1596    Y=             57.9957    Z=            -22.0415  Tot=             65.2360
 Quadrupole moment (field-independent basis, Debye-Ang):
   XX=           -104.4626   YY=            491.1675   ZZ=            -66.4417
   XY=           -225.3382   XZ=             81.8924   YZ=           -272.3464

 Normal termination of Gaussian 16 at Sat Jul 16 16:54:50 2022.
