 Gaussian 16, Revision C.01,
 Gaussian 16:  ES64L-G16RevC.01  3-Jul-2019

 ----------------------------------------------------------------------
 # B3LYP/6-31G* empiricaldispersion=gd3bj guess=read geom=check nosymm
 integral(ultrafinegrid)
 ----------------------------------------------------------------------

 ------------------------------------------------------
 Candidate Structure: Conf:357 Charge calc in gas phase
 ------------------------------------------------------
 Structure from the checkpoint file:  "conf-357.chk"
 Charge =  1 Multiplicity = 1

                          Input orientation:
 ---------------------------------------------------------------------
 Center     Atomic      Atomic             Coordinates (Angstroms)
 Number     Number       Type             X           Y           Z
 ---------------------------------------------------------------------
      1          7           0       -2.622183   10.292940   -4.803078
      2          6           0       -1.221148   10.518380   -5.223185
      3          6           0       -1.078864   12.009284   -5.558156
      4          8           0       -1.991522   12.797809   -5.338508
      5          6           0       -0.852080    9.547180   -6.363789
      6          6           0       -0.931766    8.109878   -5.898399
      7          6           0        0.119096    7.544919   -5.163626
      8          6           0       -2.076965    7.340232   -6.142211
      9          6           0        0.032539    6.239724   -4.682540
     10          6           0       -2.164660    6.032767   -5.658421
     11          6           0       -1.113070    5.479658   -4.928041
     12          1           0       -2.837779   10.923555   -4.030632
     13          1           0       -0.548078   10.315292   -4.376059
     14          1           0        0.169333    9.767312   -6.694663
     15          1           0       -1.512597    9.732385   -7.213429
     16          1           0        1.017576    8.129348   -4.975294
     17          1           0       -2.889530    7.770126   -6.720485
     18          1           0        0.859486    5.813617   -4.122058
     19          1           0       -3.053894    5.442018   -5.861133
     20          1           0       -1.180578    4.461232   -4.557206
     21          1           0       -2.715056    9.329051   -4.480479
     22          7           0        0.122194   12.402695   -6.064316
     23          6           0        0.424341   13.820355   -6.271257
     24          6           0       -0.576851   14.470545   -7.239607
     25          8           0       -0.923645   15.633525   -7.112902
     26          6           0        1.861453   13.999509   -6.777526
     27          6           0        2.968650   13.479168   -5.841305
     28          6           0        4.340369   13.742820   -6.475162
     29          6           0        2.881613   14.094446   -4.439928
     30          1           0        0.873331   11.732940   -6.149865
     31          1           0        0.282818   14.361236   -5.331682
     32          1           0        1.955209   13.519229   -7.761137
     33          1           0        2.006102   15.074285   -6.939520
     34          1           0        2.863054   12.386592   -5.738114
     35          1           0        4.516007   14.820203   -6.581152
     36          1           0        5.144826   13.332616   -5.855685
     37          1           0        4.415931   13.291406   -7.471065
     38          1           0        3.713102   13.751681   -3.815118
     39          1           0        2.932512   15.188840   -4.492878
     40          1           0        1.951058   13.826796   -3.927896
     41          7           0       -1.007728   13.659159   -8.257634
     42          6           0       -2.332961   13.880420   -8.802836
     43          6           0       -3.050201   12.521548   -8.719145
     44          8           0       -2.424840   11.487097   -8.456017
     45          6           0       -2.292222   14.489058  -10.221285
     46          6           0       -3.560725   15.252622  -10.585612
     47          7           0       -3.400125   16.242957  -11.492713
     48          8           0       -4.671120   14.987523  -10.114140
     49          1           0       -0.801034   12.669495   -8.155885
     50          1           0       -2.851839   14.588257   -8.147977
     51          1           0       -1.430403   15.161847  -10.255926
     52          1           0       -2.118547   13.711374  -10.976372
     53          1           0       -4.206033   16.798771  -11.746123
     54          1           0       -2.489721   16.549261  -11.801370
     55          7           0       -4.381162   12.536099   -8.887175
     56          6           0       -5.190726   11.346660   -8.679014
     57          6           0       -4.525143   10.453618   -7.609223
     58          8           0       -4.284133    9.262407   -7.793168
     59          6           0       -5.531693   10.589683   -9.978343
     60          6           0       -6.941791    9.969824  -10.021537
     61          6           0       -7.186886    8.709246   -9.179747
     62          7           0       -7.022941    8.911429   -7.728406
     63          6           0       -7.800042    9.668034   -6.954784
     64          7           0       -9.105588    9.814573   -7.240011
     65          7           0       -7.278644   10.277096   -5.878792
     66          8           0       -4.448810   11.054693   -6.435468
     67          1           0       -3.657657   10.642554   -5.789977
     68          1           0       -4.801234   13.417319   -9.200105
     69          1           0       -6.122044   11.708446   -8.221812
     70          1           0       -4.764683    9.831012  -10.162030
     71          1           0       -5.473902   11.314588  -10.796292
     72          1           0       -7.683954   10.732993   -9.748058
     73          1           0       -7.164739    9.690107  -11.058182
     74          1           0       -8.183661    8.303927   -9.383380
     75          1           0       -6.471224    7.927196   -9.441059
     76          1           0       -6.063043    8.774989   -7.411853
     77          1           0       -9.678472   10.484925   -6.749459
     78          1           0       -9.568266    9.179418   -7.873307
     79          1           0       -7.880580   10.696401   -5.184381
     80          1           0       -6.284086   10.522923   -5.855770
 ---------------------------------------------------------------------

 SCF Done:  E(RB3LYP) =  -1866.80840863     A.U. after    3 cycles

 Alpha  occ. eigenvalues --  -19.25502 -19.22906 -19.21007 -19.20904 -19.20213
 Alpha  occ. eigenvalues --  -19.17933 -14.52236 -14.50977 -14.50318 -14.45235
 Alpha  occ. eigenvalues --  -14.44675 -14.44569 -14.44284 -14.41675 -10.47802
 Alpha  occ. eigenvalues --  -10.41526 -10.38360 -10.37498 -10.37341 -10.35199
 Alpha  occ. eigenvalues --  -10.34939 -10.33520 -10.32581 -10.31383 -10.30350
 Alpha  occ. eigenvalues --  -10.30189 -10.28501 -10.28440 -10.27431 -10.27010
 Alpha  occ. eigenvalues --  -10.26349 -10.26153 -10.26113 -10.26007 -10.25972
 Alpha  occ. eigenvalues --  -10.25804 -10.25612 -10.23787 -10.23658  -1.18070
 Alpha  occ. eigenvalues --   -1.16200  -1.13047  -1.12430  -1.12301  -1.09829
 Alpha  occ. eigenvalues --   -1.09279  -1.05325  -1.04464  -1.01633  -1.01309
 Alpha  occ. eigenvalues --   -1.01001  -0.99369  -0.98928  -0.92681  -0.90778
 Alpha  occ. eigenvalues --   -0.88615  -0.86950  -0.86260  -0.84944  -0.82589
 Alpha  occ. eigenvalues --   -0.81403  -0.80726  -0.79698  -0.77656  -0.75862
 Alpha  occ. eigenvalues --   -0.74801  -0.73693  -0.73577  -0.72728  -0.71820
 Alpha  occ. eigenvalues --   -0.69737  -0.68723  -0.67709  -0.67373  -0.67214
 Alpha  occ. eigenvalues --   -0.65685  -0.65649  -0.65213  -0.64836  -0.64317
 Alpha  occ. eigenvalues --   -0.63521  -0.63277  -0.62251  -0.61999  -0.60808
 Alpha  occ. eigenvalues --   -0.59953  -0.58886  -0.58593  -0.57758  -0.57534
 Alpha  occ. eigenvalues --   -0.57186  -0.56145  -0.55897  -0.55269  -0.55021
 Alpha  occ. eigenvalues --   -0.54446  -0.54076  -0.53399  -0.52941  -0.52445
 Alpha  occ. eigenvalues --   -0.52296  -0.52236  -0.51307  -0.50792  -0.50530
 Alpha  occ. eigenvalues --   -0.50437  -0.50290  -0.49454  -0.48914  -0.48698
 Alpha  occ. eigenvalues --   -0.48257  -0.47816  -0.47558  -0.47090  -0.46976
 Alpha  occ. eigenvalues --   -0.46464  -0.46319  -0.45557  -0.45320  -0.45031
 Alpha  occ. eigenvalues --   -0.44733  -0.44633  -0.44550  -0.43943  -0.43424
 Alpha  occ. eigenvalues --   -0.43053  -0.42738  -0.41988  -0.41290  -0.41016
 Alpha  occ. eigenvalues --   -0.40123  -0.39620  -0.39547  -0.39387  -0.39209
 Alpha  occ. eigenvalues --   -0.37709  -0.36754  -0.36019  -0.35500  -0.34975
 Alpha  occ. eigenvalues --   -0.34588  -0.34354  -0.34007  -0.32320  -0.32105
 Alpha  occ. eigenvalues --   -0.31466  -0.30998
 Alpha virt. eigenvalues --   -0.12598  -0.09744  -0.07981  -0.07826  -0.07255
 Alpha virt. eigenvalues --   -0.06773  -0.06326  -0.05581  -0.04612  -0.04349
 Alpha virt. eigenvalues --   -0.02154  -0.01671  -0.00511  -0.00278   0.00126

 Mulliken charges:
               1
     1  N   -0.798203
     2  C   -0.082861
     3  C    0.651217
     4  O   -0.522357
     5  C   -0.387253
     6  C    0.137981
     7  C   -0.180229
     8  C   -0.216559
     9  C   -0.127336
    10  C   -0.134878
    11  C   -0.127657
    12  H    0.355507
    13  H    0.171152
    14  H    0.146955
    15  H    0.224678
    16  H    0.123619
    17  H    0.172614
    18  H    0.146248
    19  H    0.133319
    20  H    0.145143
    21  H    0.350655
    22  N   -0.657647
    23  C   -0.017975
    24  C    0.604588
    25  O   -0.511849
    26  C   -0.303503
    27  C   -0.082312
    28  C   -0.442925
    29  C   -0.450005
    30  H    0.341485
    31  H    0.191017
    32  H    0.143240
    33  H    0.174338
    34  H    0.107717
    35  H    0.154225
    36  H    0.154823
    37  H    0.145608
    38  H    0.155740
    39  H    0.157750
    40  H    0.145268
    41  N   -0.610684
    42  C   -0.054596
    43  C    0.627652
    44  O   -0.557889
    45  C   -0.378775
    46  C    0.630453
    47  N   -0.735835
    48  O   -0.539732
    49  H    0.355347
    50  H    0.211556
    51  H    0.191749
    52  H    0.189412
    53  H    0.358900
    54  H    0.356493
    55  N   -0.627167
    56  C    0.014677
    57  C    0.587259
    58  O   -0.518417
    59  C   -0.275662
    60  C   -0.287653
    61  C   -0.167972
    62  N   -0.595088
    63  C    0.779851
    64  N   -0.753054
    65  N   -0.778739
    66  O   -0.622302
    67  H    0.489172
    68  H    0.392336
    69  H    0.143433
    70  H    0.188511
    71  H    0.167454
    72  H    0.147172
    73  H    0.175535
    74  H    0.164240
    75  H    0.206023
    76  H    0.391904
    77  H    0.379519
    78  H    0.385900
    79  H    0.369207
    80  H    0.408472
 Sum of Mulliken charges =   1.00000

 Dipole moment (field-independent basis, Debye):
    X=            -25.8823    Y=             50.2496    Z=            -36.2679  Tot=             67.1585
 Quadrupole moment (field-independent basis, Debye-Ang):
   XX=             20.7619   YY=            322.8163   ZZ=             92.0299
   XY=           -251.5778   XZ=            201.7177   YZ=           -413.7635

 Normal termination of Gaussian 16 at Sat Jul 16 16:55:10 2022.
