 Gaussian 16, Revision C.01,
 Gaussian 16:  ES64L-G16RevC.01  3-Jul-2019

 ----------------------------------------------------------------------
 # B3LYP/6-31G* empiricaldispersion=gd3bj guess=read geom=check nosymm
 integral(ultrafinegrid)
 ----------------------------------------------------------------------

 ------------------------------------------------------
 Candidate Structure: Conf:605 Charge calc in gas phase
 ------------------------------------------------------
 Structure from the checkpoint file:  "conf-605.chk"
 Charge =  1 Multiplicity = 1

                          Input orientation:
 ---------------------------------------------------------------------
 Center     Atomic      Atomic             Coordinates (Angstroms)
 Number     Number       Type             X           Y           Z
 ---------------------------------------------------------------------
      1          7           0       -3.005914   -0.954537    3.906033
      2          1           0       -3.498285   -1.796171    3.611806
      3          1           0       -2.019587   -1.212317    3.932154
      4          6           0       -3.164798    0.081457    2.894919
      5          1           0       -4.210538    0.086250    2.565954
      6          6           0       -2.248988   -0.151928    1.686466
      7          6           0       -2.867717    1.485028    3.493455
      8          1           0       -3.515955    1.583813    4.369467
      9          1           0       -3.169591    2.253623    2.772438
     10          8           0       -1.225223   -0.838576    1.789646
     11          6           0       -1.423913    1.704516    3.882723
     12          6           0       -0.880603    1.083693    5.017093
     13          1           0       -1.514469    0.444871    5.624063
     14          6           0       -0.603076    2.545330    3.121580
     15          1           0       -1.010832    3.038388    2.243198
     16          6           0        0.450825    1.296934    5.377433
     17          1           0        0.850933    0.821275    6.268505
     18          6           0        0.721454    2.780634    3.491548
     19          1           0        1.328845    3.470069    2.911065
     20          6           0        1.256769    2.153065    4.619375
     21          1           0        2.281588    2.349779    4.921988
     22          7           0       -2.574501    0.468802    0.524392
     23          1           0       -3.408212    1.039224    0.475962
     24          6           0       -1.793879    0.264739   -0.696929
     25          1           0       -1.420358   -0.763140   -0.635418
     26          6           0       -0.546156    1.175395   -0.730707
     27          6           0       -2.631174    0.442627   -1.961381
     28          1           0       -3.597244   -0.058324   -1.821098
     29          1           0       -2.825037    1.511511   -2.105065
     30          8           0       -0.380992    2.040434   -1.596158
     31          6           0       -1.934519   -0.132665   -3.214115
     32          1           0       -0.883281    0.178866   -3.180831
     33          6           0       -1.979024   -1.665721   -3.245503
     34          1           0       -3.013278   -2.025290   -3.303807
     35          1           0       -1.435537   -2.049608   -4.114640
     36          1           0       -1.522565   -2.105412   -2.351085
     37          6           0       -2.544908    0.454200   -4.491261
     38          1           0       -3.601859    0.179811   -4.590460
     39          1           0       -2.497984    1.552059   -4.487555
     40          1           0       -2.022737    0.082960   -5.380803
     41          7           0        0.367780    0.890246    0.220074
     42          1           0        0.124124    0.135363    0.863779
     43          6           0        1.737859    1.387288    0.145015
     44          1           0        1.744083    2.476249    0.235606
     45          6           0        2.280590    1.124443   -1.275009
     46          6           0        2.586474    0.785722    1.286710
     47          1           0        3.643493    0.810200    1.002428
     48          1           0        2.468297    1.406097    2.175619
     49          8           0        2.615475    2.085528   -1.987499
     50          6           0        2.205667   -0.661108    1.593317
     51          7           0        1.826302   -0.902216    2.865451
     52          1           0        1.435629   -1.813775    3.066897
     53          1           0        1.620382   -0.150496    3.513186
     54          8           0        2.223993   -1.538703    0.725810
     55          7           0        2.259535   -0.150358   -1.696842
     56          1           0        2.136908   -0.891602   -0.994229
     57          6           0        2.304360   -0.449532   -3.116222
     58          1           0        1.704467    0.310407   -3.614378
     59          6           0        1.600082   -1.753791   -3.450700
     60          6           0        3.728975   -0.432581   -3.740477
     61          1           0        4.193916   -1.414372   -3.606162
     62          1           0        4.330746    0.277646   -3.164100
     63          8           0        1.232037   -2.030729   -4.571565
     64          6           0        3.718665   -0.043946   -5.231981
     65          1           0        4.600598   -0.462707   -5.729280
     66          1           0        2.843865   -0.488350   -5.718346
     67          6           0        3.753679    1.475969   -5.466539
     68          1           0        4.705133    1.887433   -5.118345
     69          1           0        3.698529    1.707463   -6.535329
     70          7           0        2.715931    2.217022   -4.738260
     71          1           0        2.866545    2.289847   -3.721369
     72          7           0        1.039339    2.054451   -6.356993
     73          1           0        0.083686    2.222901   -6.634222
     74          1           0        1.719362    1.997807   -7.099505
     75          7           0        0.523810    2.657943   -4.175932
     76          1           0       -0.458237    2.677090   -4.409775
     77          1           0        0.724267    2.612058   -3.174944
     78          6           0        1.433970    2.310795   -5.093354
     79          8           0        1.450357   -2.564612   -2.389143
     80          1           0        1.018075   -3.382610   -2.701500
 ---------------------------------------------------------------------

 SCF Done:  E(RB3LYP) =  -1866.82050319     A.U. after    2 cycles

 Alpha  occ. eigenvalues --  -19.30292 -19.24295 -19.23164 -19.22510 -19.22108
 Alpha  occ. eigenvalues --  -19.21218 -14.50583 -14.48762 -14.48499 -14.46847
 Alpha  occ. eigenvalues --  -14.45771 -14.45558 -14.44813 -14.39582 -10.45955
 Alpha  occ. eigenvalues --  -10.42650 -10.39614 -10.38908 -10.38812 -10.38457
 Alpha  occ. eigenvalues --  -10.34567 -10.34541 -10.34147 -10.33265 -10.31583
 Alpha  occ. eigenvalues --  -10.30009 -10.29753 -10.29436 -10.28481 -10.28214
 Alpha  occ. eigenvalues --  -10.28107 -10.27692 -10.27653 -10.27546 -10.27442
 Alpha  occ. eigenvalues --  -10.27370 -10.27093 -10.26967 -10.26014  -1.21207
 Alpha  occ. eigenvalues --   -1.15194  -1.14508  -1.14072  -1.13428  -1.12922
 Alpha  occ. eigenvalues --   -1.12094  -1.03933  -1.03717  -1.02967  -1.02640
 Alpha  occ. eigenvalues --   -1.02162  -0.99813  -0.97561  -0.93859  -0.91156
 Alpha  occ. eigenvalues --   -0.90831  -0.88801  -0.86519  -0.85987  -0.84507
 Alpha  occ. eigenvalues --   -0.82812  -0.80556  -0.80198  -0.78413  -0.77509
 Alpha  occ. eigenvalues --   -0.76799  -0.75008  -0.73139  -0.72904  -0.71914
 Alpha  occ. eigenvalues --   -0.70697  -0.69662  -0.69148  -0.68908  -0.68429
 Alpha  occ. eigenvalues --   -0.67655  -0.67047  -0.66376  -0.65339  -0.64514
 Alpha  occ. eigenvalues --   -0.63603  -0.63218  -0.62694  -0.62190  -0.60784
 Alpha  occ. eigenvalues --   -0.59938  -0.59588  -0.59200  -0.58837  -0.58460
 Alpha  occ. eigenvalues --   -0.58096  -0.57640  -0.56989  -0.56543  -0.55645
 Alpha  occ. eigenvalues --   -0.55568  -0.54866  -0.54470  -0.54152  -0.53749
 Alpha  occ. eigenvalues --   -0.53323  -0.52902  -0.52812  -0.52433  -0.52285
 Alpha  occ. eigenvalues --   -0.51945  -0.51584  -0.50955  -0.50426  -0.50281
 Alpha  occ. eigenvalues --   -0.49875  -0.49690  -0.48944  -0.48624  -0.48230
 Alpha  occ. eigenvalues --   -0.47718  -0.47593  -0.47256  -0.46846  -0.46316
 Alpha  occ. eigenvalues --   -0.46128  -0.45999  -0.45719  -0.45432  -0.45263
 Alpha  occ. eigenvalues --   -0.44931  -0.43839  -0.42714  -0.42233  -0.42146
 Alpha  occ. eigenvalues --   -0.41921  -0.41734  -0.41701  -0.41094  -0.38895
 Alpha  occ. eigenvalues --   -0.38743  -0.38232  -0.37484  -0.36408  -0.36041
 Alpha  occ. eigenvalues --   -0.35996  -0.35104  -0.35031  -0.34342  -0.33491
 Alpha  occ. eigenvalues --   -0.33300  -0.31966
 Alpha virt. eigenvalues --   -0.10559  -0.10357  -0.09342  -0.09156  -0.09014
 Alpha virt. eigenvalues --   -0.08196  -0.07649  -0.07368  -0.07001  -0.04367
 Alpha virt. eigenvalues --   -0.03120  -0.02197  -0.01034  -0.00500   0.00201

 Mulliken charges:
               1
     1  N   -0.694497
     2  H    0.313725
     3  H    0.316904
     4  C   -0.090375
     5  H    0.152657
     6  C    0.623723
     7  C   -0.337593
     8  H    0.190364
     9  H    0.140617
    10  O   -0.554660
    11  C    0.154363
    12  C   -0.182210
    13  H    0.170547
    14  C   -0.180069
    15  H    0.133692
    16  C   -0.153315
    17  H    0.154917
    18  C   -0.138508
    19  H    0.144108
    20  C   -0.163909
    21  H    0.151286
    22  N   -0.609398
    23  H    0.342541
    24  C   -0.067817
    25  H    0.194251
    26  C    0.637907
    27  C   -0.279208
    28  H    0.148593
    29  H    0.152525
    30  O   -0.565545
    31  C   -0.084826
    32  H    0.130054
    33  C   -0.470758
    34  H    0.154859
    35  H    0.170759
    36  H    0.141804
    37  C   -0.462779
    38  H    0.166303
    39  H    0.123132
    40  H    0.149274
    41  N   -0.648574
    42  H    0.421779
    43  C   -0.020381
    44  H    0.192841
    45  C    0.604066
    46  C   -0.402415
    47  H    0.201559
    48  H    0.179455
    49  O   -0.575299
    50  C    0.575675
    51  N   -0.727004
    52  H    0.358716
    53  H    0.372229
    54  O   -0.523037
    55  N   -0.621529
    56  H    0.428591
    57  C   -0.042905
    58  H    0.173118
    59  C    0.600221
    60  C   -0.290077
    61  H    0.178618
    62  H    0.173336
    63  O   -0.462567
    64  C   -0.284057
    65  H    0.172704
    66  H    0.184699
    67  C   -0.181122
    68  H    0.195377
    69  H    0.161897
    70  N   -0.601312
    71  H    0.417549
    72  N   -0.757643
    73  H    0.373976
    74  H    0.379653
    75  N   -0.783762
    76  H    0.366826
    77  H    0.437117
    78  C    0.772604
    79  O   -0.555745
    80  H    0.431383
 Sum of Mulliken charges =   1.00000

 Dipole moment (field-independent basis, Debye):
    X=              1.9533    Y=              4.6451    Z=            -11.2489  Tot=             12.3260
 Quadrupole moment (field-independent basis, Debye-Ang):
   XX=           -182.4164   YY=           -213.9931   ZZ=           -112.7251
   XY=              5.0722   XZ=            -19.9683   YZ=            -26.2096

 Normal termination of Gaussian 16 at Tue Oct 18 19:31:36 2022.
