 Gaussian 16, Revision C.01,
 Gaussian 16:  ES64L-G16RevC.01  3-Jul-2019

 ----------------------------------------------------------------------
 # B3LYP/6-31G* empiricaldispersion=gd3bj guess=read geom=check nosymm
 integral(ultrafinegrid)
 ----------------------------------------------------------------------

 -----------------------------------------------------
 Candidate Structure: Conf:34 Charge calc in gas phase
 -----------------------------------------------------
 Structure from the checkpoint file:  "conf-34.chk"
 Charge =  1 Multiplicity = 1

                          Input orientation:
 ---------------------------------------------------------------------
 Center     Atomic      Atomic             Coordinates (Angstroms)
 Number     Number       Type             X           Y           Z
 ---------------------------------------------------------------------
      1          7           0       -4.377099    0.737318    3.463106
      2          1           0       -4.665200    1.104464    4.368766
      3          1           0       -5.185340    0.797061    2.847074
      4          6           0       -3.276502    1.552044    2.952214
      5          1           0       -3.577386    2.580836    2.675756
      6          6           0       -2.725277    0.856983    1.705024
      7          6           0       -2.157931    1.657864    4.007258
      8          1           0       -1.324068    2.207765    3.558065
      9          1           0       -1.820917    0.637363    4.212464
     10          8           0       -2.013397   -0.149901    1.756110
     11          6           0       -2.625230    2.339724    5.269587
     12          6           0       -3.106213    1.594619    6.354756
     13          1           0       -3.106894    0.508958    6.295435
     14          6           0       -2.621781    3.737741    5.364295
     15          1           0       -2.240150    4.327109    4.533462
     16          6           0       -3.576406    2.231114    7.504838
     17          1           0       -3.942633    1.638415    8.338181
     18          6           0       -3.089238    4.376323    6.511878
     19          1           0       -3.073805    5.460881    6.571587
     20          6           0       -3.569589    3.623682    7.585650
     21          1           0       -3.930966    4.120256    8.481276
     22          7           0       -3.097164    1.412440    0.517117
     23          1           0       -3.579546    2.301131    0.518898
     24          6           0       -2.730421    0.825422   -0.771823
     25          1           0       -2.759870   -0.258243   -0.628265
     26          6           0       -1.275097    1.214202   -1.096031
     27          6           0       -3.711601    1.243894   -1.862288
     28          1           0       -4.728566    1.076027   -1.486317
     29          1           0       -3.605328    2.323343   -2.032596
     30          8           0       -0.984323    2.096858   -1.928579
     31          6           0       -3.535824    0.487672   -3.193325
     32          1           0       -2.483623    0.571215   -3.497165
     33          6           0       -3.868207   -1.004336   -3.061600
     34          1           0       -4.901536   -1.144948   -2.721881
     35          1           0       -3.763204   -1.509710   -4.027363
     36          1           0       -3.207628   -1.516787   -2.354749
     37          6           0       -4.404364    1.137211   -4.278599
     38          1           0       -5.469241    1.043870   -4.034797
     39          1           0       -4.194596    2.210256   -4.382459
     40          1           0       -4.247828    0.656538   -5.250793
     41          7           0       -0.372823    0.562532   -0.360282
     42          1           0       -0.760794   -0.020731    0.387836
     43          6           0        1.031174    0.912455   -0.315856
     44          1           0        1.114945    2.005759   -0.287182
     45          6           0        1.754680    0.399038   -1.573472
     46          6           0        1.626734    0.366546    0.986688
     47          1           0        1.426374   -0.708488    1.071751
     48          1           0        2.716698    0.479344    0.996109
     49          8           0        1.191240   -0.259883   -2.437211
     50          6           0        1.056072    1.136532    2.186715
     51          7           0        1.178441    0.509101    3.381717
     52          1           0        0.763449    0.945792    4.193872
     53          1           0        1.419138   -0.468825    3.448493
     54          8           0        0.575269    2.256082    2.055144
     55          7           0        3.056212    0.805464   -1.677184
     56          1           0        3.521114    1.187881   -0.860114
     57          6           0        3.965288    0.192811   -2.636678
     58          1           0        3.531878   -0.766078   -2.941577
     59          6           0        5.272957   -0.072163   -1.900473
     60          6           0        4.210005    1.031770   -3.912638
     61          1           0        4.835667    0.432130   -4.579400
     62          1           0        4.790123    1.929686   -3.661678
     63          8           0        5.497728    0.294268   -0.766124
     64          6           0        2.901471    1.422228   -4.622211
     65          1           0        3.098782    1.544267   -5.694036
     66          1           0        2.177111    0.609916   -4.516783
     67          6           0        2.280353    2.718380   -4.049440
     68          1           0        2.649723    2.892476   -3.038922
     69          1           0        2.563981    3.597526   -4.639977
     70          7           0        0.825236    2.676343   -3.928470
     71          1           0        0.413027    2.362009   -3.041052
     72          7           0        0.338765    3.108985   -6.169711
     73          1           0       -0.282253    3.569335   -6.818939
     74          1           0        1.315333    3.072703   -6.418159
     75          7           0       -1.360958    2.958419   -4.591651
     76          1           0       -2.041580    2.754436   -5.309751
     77          1           0       -1.612119    2.713968   -3.630302
     78          6           0       -0.050200    2.904837   -4.895018
     79          8           0        6.150571   -0.737342   -2.665523
     80          1           0        6.965710   -0.858164   -2.140901
 ---------------------------------------------------------------------

 SCF Done:  E(RB3LYP) =  -1866.80415509     A.U. after    1 cycles

 Alpha  occ. eigenvalues --  -19.30048 -19.24656 -19.23917 -19.22234 -19.20952
 Alpha  occ. eigenvalues --  -19.20464 -14.50774 -14.49151 -14.48740 -14.46364
 Alpha  occ. eigenvalues --  -14.46133 -14.45855 -14.44471 -14.38571 -10.46050
 Alpha  occ. eigenvalues --  -10.42585 -10.39645 -10.39231 -10.38290 -10.37615
 Alpha  occ. eigenvalues --  -10.34523 -10.34302 -10.33885 -10.33246 -10.30478
 Alpha  occ. eigenvalues --  -10.30135 -10.29845 -10.29735 -10.28430 -10.28379
 Alpha  occ. eigenvalues --  -10.26775 -10.25687 -10.25528 -10.25159 -10.24648
 Alpha  occ. eigenvalues --  -10.24602 -10.24592 -10.24539 -10.24417  -1.21165
 Alpha  occ. eigenvalues --   -1.15358  -1.14664  -1.14002  -1.12674  -1.12286
 Alpha  occ. eigenvalues --   -1.12263  -1.04203  -1.03476  -1.03169  -1.02838
 Alpha  occ. eigenvalues --   -1.02089  -0.99383  -0.96355  -0.91496  -0.91106
 Alpha  occ. eigenvalues --   -0.90741  -0.89040  -0.86136  -0.84657  -0.83657
 Alpha  occ. eigenvalues --   -0.80563  -0.80036  -0.78794  -0.78459  -0.77162
 Alpha  occ. eigenvalues --   -0.76456  -0.75057  -0.72787  -0.72445  -0.71661
 Alpha  occ. eigenvalues --   -0.70473  -0.68901  -0.68545  -0.68343  -0.67988
 Alpha  occ. eigenvalues --   -0.67507  -0.66196  -0.65312  -0.64216  -0.63697
 Alpha  occ. eigenvalues --   -0.63557  -0.62656  -0.62189  -0.61505  -0.60654
 Alpha  occ. eigenvalues --   -0.60010  -0.59089  -0.58743  -0.58550  -0.58014
 Alpha  occ. eigenvalues --   -0.57465  -0.56604  -0.56405  -0.55872  -0.55737
 Alpha  occ. eigenvalues --   -0.55437  -0.55007  -0.54609  -0.54024  -0.53454
 Alpha  occ. eigenvalues --   -0.52920  -0.52493  -0.52172  -0.51879  -0.51611
 Alpha  occ. eigenvalues --   -0.51231  -0.50590  -0.49889  -0.49645  -0.49382
 Alpha  occ. eigenvalues --   -0.49096  -0.48502  -0.48098  -0.47655  -0.47542
 Alpha  occ. eigenvalues --   -0.47212  -0.47072  -0.46691  -0.46216  -0.46108
 Alpha  occ. eigenvalues --   -0.45754  -0.45447  -0.45260  -0.44775  -0.44537
 Alpha  occ. eigenvalues --   -0.43351  -0.42306  -0.42206  -0.42014  -0.41832
 Alpha  occ. eigenvalues --   -0.41189  -0.41027  -0.39613  -0.39525  -0.38849
 Alpha  occ. eigenvalues --   -0.38719  -0.38301  -0.37325  -0.36215  -0.35718
 Alpha  occ. eigenvalues --   -0.35397  -0.35114  -0.34441  -0.34312  -0.31096
 Alpha  occ. eigenvalues --   -0.30610  -0.29952
 Alpha virt. eigenvalues --   -0.10529  -0.09557  -0.09413  -0.08781  -0.07360
 Alpha virt. eigenvalues --   -0.06753  -0.06148  -0.05912  -0.05349  -0.03749
 Alpha virt. eigenvalues --   -0.01988  -0.01768  -0.01493  -0.01176  -0.00654

 Mulliken charges:
               1
     1  N   -0.713356
     2  H    0.324333
     3  H    0.300780
     4  C   -0.063857
     5  H    0.115629
     6  C    0.676837
     7  C   -0.385261
     8  H    0.181143
     9  H    0.167214
    10  O   -0.555904
    11  C    0.139827
    12  C   -0.197340
    13  H    0.143244
    14  C   -0.180520
    15  H    0.127736
    16  C   -0.127809
    17  H    0.142873
    18  C   -0.128116
    19  H    0.139825
    20  C   -0.128901
    21  H    0.142931
    22  N   -0.615297
    23  H    0.341544
    24  C   -0.067461
    25  H    0.197359
    26  C    0.672089
    27  C   -0.287436
    28  H    0.157487
    29  H    0.140895
    30  O   -0.599544
    31  C   -0.090756
    32  H    0.127745
    33  C   -0.453982
    34  H    0.155822
    35  H    0.158601
    36  H    0.157933
    37  C   -0.458521
    38  H    0.167007
    39  H    0.122955
    40  H    0.153310
    41  N   -0.592814
    42  H    0.399625
    43  C   -0.052321
    44  H    0.203317
    45  C    0.602722
    46  C   -0.432170
    47  H    0.183067
    48  H    0.201801
    49  O   -0.511954
    50  C    0.638139
    51  N   -0.743143
    52  H    0.364810
    53  H    0.350893
    54  O   -0.511690
    55  N   -0.617132
    56  H    0.357773
    57  C   -0.046216
    58  H    0.211919
    59  C    0.589154
    60  C   -0.282250
    61  H    0.187032
    62  H    0.155614
    63  O   -0.464192
    64  C   -0.294090
    65  H    0.145858
    66  H    0.203903
    67  C   -0.180211
    68  H    0.194383
    69  H    0.170601
    70  N   -0.610743
    71  H    0.423837
    72  N   -0.759217
    73  H    0.376738
    74  H    0.379993
    75  N   -0.794524
    76  H    0.363716
    77  H    0.424970
    78  C    0.782272
    79  O   -0.553360
    80  H    0.432836
 Sum of Mulliken charges =   1.00000

 Dipole moment (field-independent basis, Debye):
    X=              1.2059    Y=              9.4877    Z=            -13.1506  Tot=             16.2606
 Quadrupole moment (field-independent basis, Debye-Ang):
   XX=           -155.8712   YY=           -200.0572   ZZ=           -103.8023
   XY=            -16.6074   XZ=            -20.0783   YZ=            -42.1323

 Normal termination of Gaussian 16 at Tue Oct 18 19:30:26 2022.
