 Gaussian 16, Revision C.01,
 Gaussian 16:  ES64L-G16RevC.01  3-Jul-2019

 ----------------------------------------------------------------------
 # B3LYP/6-31G* empiricaldispersion=gd3bj guess=read geom=check nosymm
 integral(ultrafinegrid)
 ----------------------------------------------------------------------

 ------------------------------------------------------
 Candidate Structure: Conf:234 Charge calc in gas phase
 ------------------------------------------------------
 Structure from the checkpoint file:  "conf-234.chk"
 Charge =  1 Multiplicity = 1

                          Input orientation:
 ---------------------------------------------------------------------
 Center     Atomic      Atomic             Coordinates (Angstroms)
 Number     Number       Type             X           Y           Z
 ---------------------------------------------------------------------
      1          7           0        1.015770   11.114750   -7.468273
      2          6           0        0.366269   11.453540   -6.220106
      3          6           0       -0.645850   10.414949   -5.730148
      4          8           0       -1.359086    9.749942   -6.502187
      5          6           0       -0.420999   12.793444   -6.342698
      6          6           0        0.346368   13.879781   -7.052646
      7          6           0        1.380403   14.569151   -6.410869
      8          6           0        0.032282   14.205464   -8.376040
      9          6           0        2.093673   15.561993   -7.079383
     10          6           0        0.744033   15.199864   -9.047173
     11          6           0        1.776852   15.879709   -8.401675
     12          1           0        0.369385   11.191506   -8.249509
     13          1           0        1.142780   11.578041   -5.452184
     14          1           0       -0.688258   13.117777   -5.327874
     15          1           0       -1.357437   12.607293   -6.878180
     16          1           0        1.629747   14.327470   -5.379780
     17          1           0       -0.775898   13.677236   -8.876574
     18          1           0        2.893714   16.090468   -6.569129
     19          1           0        0.489941   15.447285  -10.074311
     20          1           0        2.330310   16.655405   -8.922719
     21          1           0        1.365858   10.159963   -7.450488
     22          7           0       -0.839101   10.315085   -4.395662
     23          6           0       -1.917788    9.484220   -3.857154
     24          6           0       -3.255666    9.885271   -4.497389
     25          8           0       -4.092476    9.045542   -4.810778
     26          6           0       -1.983425    9.591424   -2.328478
     27          6           0       -0.721110    9.123976   -1.578815
     28          6           0       -0.933914    9.291751   -0.068967
     29          6           0       -0.340796    7.679687   -1.924860
     30          1           0       -0.189767   10.760512   -3.761242
     31          1           0       -1.763503    8.446667   -4.161562
     32          1           0       -2.214971   10.629156   -2.052614
     33          1           0       -2.837388    8.985167   -2.003140
     34          1           0        0.122306    9.773923   -1.863661
     35          1           0       -1.749834    8.647623    0.280463
     36          1           0       -0.030862    9.017695    0.485987
     37          1           0       -1.188831   10.326023    0.189029
     38          1           0        0.522689    7.357301   -1.334060
     39          1           0       -1.170069    6.996410   -1.704340
     40          1           0       -0.078391    7.560937   -2.981663
     41          7           0       -3.458635   11.229097   -4.647743
     42          6           0       -4.564661   11.705708   -5.470700
     43          6           0       -4.176447   11.614012   -6.954892
     44          8           0       -3.796383   12.582665   -7.611693
     45          6           0       -4.971747   13.129805   -5.125945
     46          6           0       -6.231970   13.493277   -5.914113
     47          7           0       -6.710246   14.744893   -5.695066
     48          8           0       -6.767452   12.701058   -6.681636
     49          1           0       -2.653217   11.834472   -4.553367
     50          1           0       -5.403124   11.032200   -5.291983
     51          1           0       -5.160054   13.211266   -4.049490
     52          1           0       -4.170813   13.830623   -5.388460
     53          1           0       -7.545789   15.035810   -6.182793
     54          1           0       -6.269186   15.394282   -5.061607
     55          7           0       -4.216708   10.363177   -7.480072
     56          6           0       -4.101350   10.174486   -8.914831
     57          6           0       -2.870438   10.926234   -9.467814
     58          8           0       -2.920418   11.607902  -10.488345
     59          6           0       -5.415624   10.558243   -9.624720
     60          6           0       -5.571637   10.003802  -11.063252
     61          6           0       -6.013773   11.062921  -12.083165
     62          7           0       -4.946892   12.068893  -12.206520
     63          6           0       -4.236910   12.318380  -13.303691
     64          7           0       -4.802032   12.267606  -14.524207
     65          7           0       -2.937469   12.623078  -13.178254
     66          8           0       -1.709294   10.712533   -8.890497
     67          1           0       -1.721033   10.246469   -7.994387
     68          1           0       -4.467058    9.587537   -6.873757
     69          1           0       -3.892705    9.109235   -9.077188
     70          1           0       -5.505668   11.649154   -9.588194
     71          1           0       -6.229383   10.184024   -8.998511
     72          1           0       -4.629896    9.567601  -11.417241
     73          1           0       -6.311201    9.196508  -11.072315
     74          1           0       -6.192603   10.606486  -13.061161
     75          1           0       -6.938327   11.552847  -11.760320
     76          1           0       -4.379485   12.145148  -11.353890
     77          1           0       -4.242262   12.320669  -15.362063
     78          1           0       -5.804928   12.314473  -14.624784
     79          1           0       -2.436859   13.122065  -13.898560
     80          1           0       -2.480712   12.443476  -12.285492
 ---------------------------------------------------------------------

 SCF Done:  E(RB3LYP) =  -1866.80468735     A.U. after    1 cycles

 Alpha  occ. eigenvalues --  -19.27462 -19.24156 -19.23016 -19.20853 -19.20509
 Alpha  occ. eigenvalues --  -19.19128 -14.51045 -14.49806 -14.48681 -14.46844
 Alpha  occ. eigenvalues --  -14.45178 -14.44902 -14.43441 -14.38827 -10.46432
 Alpha  occ. eigenvalues --  -10.42586 -10.38780 -10.37649 -10.37538 -10.37021
 Alpha  occ. eigenvalues --  -10.34466 -10.34173 -10.32241 -10.31904 -10.31309
 Alpha  occ. eigenvalues --  -10.29801 -10.28671 -10.28224 -10.27553 -10.27321
 Alpha  occ. eigenvalues --  -10.27307 -10.25887 -10.24880 -10.24875 -10.24771
 Alpha  occ. eigenvalues --  -10.24748 -10.24661 -10.24567 -10.24417  -1.19629
 Alpha  occ. eigenvalues --   -1.15074  -1.14680  -1.13101  -1.12169  -1.11008
 Alpha  occ. eigenvalues --   -1.10875  -1.04279  -1.03305  -1.03265  -1.01990
 Alpha  occ. eigenvalues --   -1.01151  -0.98205  -0.97036  -0.91417  -0.90450
 Alpha  occ. eigenvalues --   -0.89751  -0.87387  -0.85252  -0.84962  -0.83422
 Alpha  occ. eigenvalues --   -0.80290  -0.79415  -0.78925  -0.77313  -0.76120
 Alpha  occ. eigenvalues --   -0.75595  -0.73813  -0.73070  -0.72157  -0.71890
 Alpha  occ. eigenvalues --   -0.70684  -0.69004  -0.68449  -0.68218  -0.67468
 Alpha  occ. eigenvalues --   -0.66519  -0.66218  -0.64441  -0.64269  -0.64153
 Alpha  occ. eigenvalues --   -0.63938  -0.63672  -0.61815  -0.61196  -0.60381
 Alpha  occ. eigenvalues --   -0.60189  -0.59485  -0.58753  -0.57502  -0.57242
 Alpha  occ. eigenvalues --   -0.57127  -0.56571  -0.56236  -0.55437  -0.54293
 Alpha  occ. eigenvalues --   -0.54119  -0.53698  -0.53550  -0.52978  -0.52771
 Alpha  occ. eigenvalues --   -0.52287  -0.52045  -0.51729  -0.51219  -0.50531
 Alpha  occ. eigenvalues --   -0.50341  -0.49946  -0.49623  -0.49365  -0.48749
 Alpha  occ. eigenvalues --   -0.47990  -0.47896  -0.47357  -0.47086  -0.46832
 Alpha  occ. eigenvalues --   -0.46551  -0.46200  -0.45985  -0.45675  -0.45347
 Alpha  occ. eigenvalues --   -0.45178  -0.45083  -0.44154  -0.43923  -0.43713
 Alpha  occ. eigenvalues --   -0.43471  -0.41869  -0.41408  -0.41036  -0.40787
 Alpha  occ. eigenvalues --   -0.40587  -0.40411  -0.40224  -0.39897  -0.39226
 Alpha  occ. eigenvalues --   -0.38273  -0.37332  -0.37046  -0.36744  -0.34686
 Alpha  occ. eigenvalues --   -0.34283  -0.33777  -0.33223  -0.32840  -0.31487
 Alpha  occ. eigenvalues --   -0.30809  -0.30043
 Alpha virt. eigenvalues --   -0.11158  -0.09378  -0.09000  -0.07928  -0.06416
 Alpha virt. eigenvalues --   -0.06031  -0.05841  -0.05703  -0.04802  -0.02846
 Alpha virt. eigenvalues --   -0.02709  -0.00474  -0.00298   0.00014   0.00412

 Mulliken charges:
               1
     1  N   -0.712830
     2  C   -0.047828
     3  C    0.611256
     4  O   -0.570728
     5  C   -0.433814
     6  C    0.216269
     7  C   -0.172457
     8  C   -0.189959
     9  C   -0.128634
    10  C   -0.128057
    11  C   -0.125868
    12  H    0.336259
    13  H    0.147570
    14  H    0.135676
    15  H    0.188869
    16  H    0.116855
    17  H    0.138983
    18  H    0.140105
    19  H    0.122028
    20  H    0.138329
    21  H    0.308795
    22  N   -0.629925
    23  C   -0.014472
    24  C    0.627030
    25  O   -0.535809
    26  C   -0.302640
    27  C   -0.084391
    28  C   -0.443797
    29  C   -0.451933
    30  H    0.348339
    31  H    0.197077
    32  H    0.141474
    33  H    0.177570
    34  H    0.113165
    35  H    0.155764
    36  H    0.159767
    37  H    0.146081
    38  H    0.161738
    39  H    0.157329
    40  H    0.147637
    41  N   -0.611826
    42  C   -0.053678
    43  C    0.663689
    44  O   -0.547828
    45  C   -0.400346
    46  C    0.640652
    47  N   -0.756554
    48  O   -0.519549
    49  H    0.339398
    50  H    0.208233
    51  H    0.182371
    52  H    0.186024
    53  H    0.352634
    54  H    0.346948
    55  N   -0.615375
    56  C   -0.086354
    57  C    0.678617
    58  O   -0.544412
    59  C   -0.293325
    60  C   -0.289978
    61  C   -0.172792
    62  N   -0.593534
    63  C    0.776338
    64  N   -0.747942
    65  N   -0.770849
    66  O   -0.605396
    67  H    0.485186
    68  H    0.378227
    69  H    0.186179
    70  H    0.191252
    71  H    0.184119
    72  H    0.159050
    73  H    0.176319
    74  H    0.166538
    75  H    0.192304
    76  H    0.411502
    77  H    0.377145
    78  H    0.382920
    79  H    0.368525
    80  H    0.414748
 Sum of Mulliken charges =   1.00000

 Dipole moment (field-independent basis, Debye):
    X=            -16.9589    Y=             58.1986    Z=            -46.3616  Tot=             76.3157
 Quadrupole moment (field-independent basis, Debye-Ang):
   XX=           -139.3333   YY=            499.9855   ZZ=            374.2666
   XY=           -215.9787   XZ=            202.6372   YZ=           -565.2365

 Normal termination of Gaussian 16 at Sat Jul 16 16:54:25 2022.
