 Gaussian 16, Revision C.01,
 Gaussian 16:  ES64L-G16RevC.01  3-Jul-2019

 ----------------------------------------------------------------------
 # B3LYP/6-31G* empiricaldispersion=gd3bj guess=read geom=check nosymm
 integral(ultrafinegrid)
 ----------------------------------------------------------------------

 ------------------------------------------------------
 Candidate Structure: Conf:669 Charge calc in gas phase
 ------------------------------------------------------
 Structure from the checkpoint file:  "conf-669.chk"
 Charge =  1 Multiplicity = 1

                          Input orientation:
 ---------------------------------------------------------------------
 Center     Atomic      Atomic             Coordinates (Angstroms)
 Number     Number       Type             X           Y           Z
 ---------------------------------------------------------------------
      1          7           0       -5.549350    2.441435    2.847989
      2          1           0       -5.904562    3.148296    2.206263
      3          1           0       -5.990524    1.567345    2.557991
      4          6           0       -4.114356    2.284982    2.659181
      5          1           0       -3.653445    3.279701    2.625527
      6          6           0       -3.768929    1.533098    1.365091
      7          6           0       -3.496346    1.513179    3.858585
      8          1           0       -2.501206    1.146346    3.580018
      9          1           0       -4.121982    0.629636    4.035224
     10          8           0       -4.570090    0.786638    0.809128
     11          6           0       -3.383208    2.360380    5.102422
     12          6           0       -2.137683    2.868429    5.489946
     13          1           0       -1.253692    2.618967    4.906049
     14          6           0       -4.510705    2.682656    5.868892
     15          1           0       -5.481315    2.308187    5.563144
     16          6           0       -2.014836    3.680128    6.618199
     17          1           0       -1.038873    4.060047    6.907763
     18          6           0       -4.390234    3.493779    6.996373
     19          1           0       -5.272799    3.733651    7.582958
     20          6           0       -3.143158    3.994932    7.375314
     21          1           0       -3.051641    4.622629    8.257226
     22          7           0       -2.500492    1.735946    0.896187
     23          1           0       -1.826257    2.205520    1.493498
     24          6           0       -1.894532    0.842500   -0.071217
     25          1           0       -2.486155   -0.076831   -0.106570
     26          6           0       -0.473084    0.533368    0.414095
     27          6           0       -1.826791    1.468781   -1.482277
     28          1           0       -1.264472    2.408050   -1.390928
     29          1           0       -1.247546    0.806492   -2.141703
     30          8           0        0.100251    1.275507    1.223104
     31          6           0       -3.193870    1.748823   -2.125017
     32          1           0       -3.790323    2.331121   -1.412754
     33          6           0       -3.006056    2.604379   -3.388517
     34          1           0       -2.381411    2.068907   -4.120366
     35          1           0       -3.968282    2.821939   -3.864886
     36          1           0       -2.529702    3.564052   -3.134701
     37          6           0       -3.956878    0.459382   -2.446645
     38          1           0       -3.357982   -0.207207   -3.080957
     39          1           0       -4.225653   -0.066677   -1.528066
     40          1           0       -4.889043    0.682686   -2.977389
     41          7           0        0.095810   -0.552885   -0.139182
     42          1           0       -0.358805   -1.076320   -0.892035
     43          6           0        1.497502   -0.922169    0.068243
     44          1           0        1.732218   -0.786293    1.128411
     45          6           0        2.371883    0.012923   -0.786386
     46          6           0        1.714855   -2.382403   -0.338277
     47          1           0        2.768191   -2.637414   -0.196122
     48          1           0        1.126785   -3.023561    0.328205
     49          8           0        2.800306   -0.322294   -1.888510
     50          6           0        1.257243   -2.680606   -1.766118
     51          7           0        2.077695   -3.470137   -2.498706
     52          1           0        1.819991   -3.632256   -3.463454
     53          1           0        3.053732   -3.561521   -2.258856
     54          8           0        0.157508   -2.310487   -2.187217
     55          7           0        2.553888    1.252391   -0.256581
     56          1           0        2.010467    1.500079    0.571291
     57          6           0        2.928014    2.341232   -1.137751
     58          1           0        3.726818    1.998771   -1.799455
     59          6           0        3.415595    3.505240   -0.294222
     60          6           0        1.689753    2.739983   -1.976704
     61          1           0        0.930104    3.123888   -1.285135
     62          1           0        1.304143    1.804422   -2.394698
     63          8           0        3.144441    3.676547    0.869512
     64          6           0        1.917147    3.729762   -3.120764
     65          1           0        2.281300    4.690641   -2.739751
     66          1           0        2.675726    3.338656   -3.809655
     67          6           0        0.596405    3.921785   -3.862916
     68          1           0        0.239409    2.957719   -4.240939
     69          1           0       -0.161752    4.320608   -3.177201
     70          7           0        0.748373    4.833248   -5.007934
     71          1           0        1.558371    5.439984   -5.015532
     72          7           0       -1.368468    4.419834   -5.855056
     73          1           0       -1.996273    4.377940   -6.645127
     74          1           0       -1.666452    3.953728   -5.006252
     75          7           0        0.106673    5.757668   -7.036513
     76          1           0       -0.621116    6.058330   -7.668701
     77          1           0        1.048471    6.060923   -7.238194
     78          6           0       -0.169739    5.004246   -5.958463
     79          8           0        4.155303    4.372786   -1.026662
     80          1           0        4.416848    5.093162   -0.420511
 ---------------------------------------------------------------------

 SCF Done:  E(RB3LYP) =  -1866.77189687     A.U. after    1 cycles

 Alpha  occ. eigenvalues --  -19.29468 -19.23567 -19.20801 -19.20469 -19.19784
 Alpha  occ. eigenvalues --  -19.18092 -14.54730 -14.54683 -14.54489 -14.44262
 Alpha  occ. eigenvalues --  -14.44037 -14.43529 -14.42288 -14.36468 -10.51056
 Alpha  occ. eigenvalues --  -10.41565 -10.37866 -10.37565 -10.37416 -10.37189
 Alpha  occ. eigenvalues --  -10.34436 -10.33512 -10.32459 -10.32131 -10.31028
 Alpha  occ. eigenvalues --  -10.30450 -10.28495 -10.28462 -10.27800 -10.27576
 Alpha  occ. eigenvalues --  -10.27547 -10.24060 -10.23987 -10.23134 -10.22441
 Alpha  occ. eigenvalues --  -10.22373 -10.22220 -10.22140 -10.21789  -1.20213
 Alpha  occ. eigenvalues --   -1.19559  -1.13010  -1.12036  -1.11430  -1.11253
 Alpha  occ. eigenvalues --   -1.09779  -1.08776  -1.07611  -1.01745  -1.01088
 Alpha  occ. eigenvalues --   -0.99238  -0.98458  -0.94171  -0.93476  -0.89901
 Alpha  occ. eigenvalues --   -0.88808  -0.88105  -0.86577  -0.83371  -0.82650
 Alpha  occ. eigenvalues --   -0.81617  -0.80206  -0.77641  -0.77627  -0.77143
 Alpha  occ. eigenvalues --   -0.76456  -0.76129  -0.74262  -0.73420  -0.72726
 Alpha  occ. eigenvalues --   -0.70489  -0.68763  -0.68077  -0.67520  -0.67272
 Alpha  occ. eigenvalues --   -0.66829  -0.66178  -0.64886  -0.64601  -0.63848
 Alpha  occ. eigenvalues --   -0.63813  -0.62938  -0.62008  -0.61690  -0.61340
 Alpha  occ. eigenvalues --   -0.59567  -0.58839  -0.58245  -0.57692  -0.57224
 Alpha  occ. eigenvalues --   -0.56448  -0.56128  -0.55804  -0.55701  -0.54969
 Alpha  occ. eigenvalues --   -0.54083  -0.53773  -0.53270  -0.52763  -0.52159
 Alpha  occ. eigenvalues --   -0.52034  -0.51759  -0.51125  -0.50839  -0.49896
 Alpha  occ. eigenvalues --   -0.49611  -0.49125  -0.48990  -0.48721  -0.48628
 Alpha  occ. eigenvalues --   -0.47895  -0.47730  -0.47164  -0.47100  -0.46598
 Alpha  occ. eigenvalues --   -0.46549  -0.46467  -0.45940  -0.45776  -0.45626
 Alpha  occ. eigenvalues --   -0.45218  -0.45169  -0.44354  -0.44098  -0.43410
 Alpha  occ. eigenvalues --   -0.43146  -0.41898  -0.41445  -0.41373  -0.41273
 Alpha  occ. eigenvalues --   -0.40880  -0.40490  -0.38582  -0.37654  -0.37283
 Alpha  occ. eigenvalues --   -0.37263  -0.36591  -0.35244  -0.34932  -0.34259
 Alpha  occ. eigenvalues --   -0.33661  -0.32786  -0.32208  -0.31914  -0.29377
 Alpha  occ. eigenvalues --   -0.28107  -0.27540
 Alpha virt. eigenvalues --   -0.14645  -0.10695  -0.08920  -0.07676  -0.06746
 Alpha virt. eigenvalues --   -0.06230  -0.05777  -0.05381  -0.05227  -0.04476
 Alpha virt. eigenvalues --   -0.03679  -0.03387  -0.02847  -0.02344  -0.01783

 Mulliken charges:
               1
     1  N   -0.689650
     2  H    0.300521
     3  H    0.315837
     4  C   -0.082005
     5  H    0.147334
     6  C    0.580694
     7  C   -0.353726
     8  H    0.143492
     9  H    0.161520
    10  O   -0.524455
    11  C    0.166245
    12  C   -0.193936
    13  H    0.118347
    14  C   -0.156082
    15  H    0.146689
    16  C   -0.129428
    17  H    0.128185
    18  C   -0.133918
    19  H    0.133118
    20  C   -0.129099
    21  H    0.131637
    22  N   -0.602439
    23  H    0.351439
    24  C   -0.064832
    25  H    0.194747
    26  C    0.621083
    27  C   -0.265068
    28  H    0.119478
    29  H    0.141545
    30  O   -0.560817
    31  C   -0.065540
    32  H    0.161001
    33  C   -0.485800
    34  H    0.130326
    35  H    0.167965
    36  H    0.122447
    37  C   -0.468026
    38  H    0.138594
    39  H    0.201803
    40  H    0.147639
    41  N   -0.623507
    42  H    0.391982
    43  C   -0.073756
    44  H    0.191964
    45  C    0.630065
    46  C   -0.381806
    47  H    0.168649
    48  H    0.201689
    49  O   -0.535346
    50  C    0.639716
    51  N   -0.729191
    52  H    0.350422
    53  H    0.352020
    54  O   -0.541971
    55  N   -0.610484
    56  H    0.388949
    57  C   -0.043531
    58  H    0.202169
    59  C    0.585421
    60  C   -0.301508
    61  H    0.170160
    62  H    0.186612
    63  O   -0.436601
    64  C   -0.313253
    65  H    0.173234
    66  H    0.176772
    67  C   -0.151686
    68  H    0.194429
    69  H    0.191726
    70  N   -0.613519
    71  H    0.368685
    72  N   -0.781631
    73  H    0.385454
    74  H    0.418830
    75  N   -0.766539
    76  H    0.388573
    77  H    0.387788
    78  C    0.843811
    79  O   -0.575474
    80  H    0.423824
 Sum of Mulliken charges =   1.00000

 Dipole moment (field-independent basis, Debye):
    X=              3.8508    Y=             20.2001    Z=            -26.4745  Tot=             33.5227
 Quadrupole moment (field-independent basis, Debye-Ang):
   XX=           -208.6203   YY=            -93.4362   ZZ=            -70.9563
   XY=             -4.4136   XZ=              4.6802   YZ=           -131.3762

 Normal termination of Gaussian 16 at Tue Oct 18 19:30:20 2022.
