 Gaussian 16, Revision C.01,
 Gaussian 16:  ES64L-G16RevC.01  3-Jul-2019

 ----------------------------------------------------------------------
 # B3LYP/6-31G* empiricaldispersion=gd3bj guess=read geom=check nosymm
 integral(ultrafinegrid)
 ----------------------------------------------------------------------

 ------------------------------------------------------
 Candidate Structure: Conf:535 Charge calc in gas phase
 ------------------------------------------------------
 Structure from the checkpoint file:  "conf-535.chk"
 Charge =  1 Multiplicity = 1

                          Input orientation:
 ---------------------------------------------------------------------
 Center     Atomic      Atomic             Coordinates (Angstroms)
 Number     Number       Type             X           Y           Z
 ---------------------------------------------------------------------
      1          7           0       -1.672553    0.637828    3.663654
      2          1           0       -1.717511    0.821286    4.665260
      3          1           0       -1.628096   -0.372446    3.542536
      4          6           0       -2.921605    1.108877    3.044980
      5          1           0       -3.815182    0.589132    3.431864
      6          6           0       -2.803488    0.698483    1.576828
      7          6           0       -3.103857    2.614697    3.304157
      8          1           0       -4.005171    2.960070    2.781800
      9          1           0       -2.238846    3.150270    2.893906
     10          8           0       -2.519709   -0.471446    1.294849
     11          6           0       -3.237391    2.916349    4.780010
     12          6           0       -4.467358    2.747583    5.428112
     13          1           0       -5.339015    2.441395    4.854026
     14          6           0       -2.127787    3.318725    5.532968
     15          1           0       -1.169474    3.456495    5.038365
     16          6           0       -4.586330    2.975369    6.798151
     17          1           0       -5.548123    2.845631    7.285454
     18          6           0       -2.243816    3.547207    6.904963
     19          1           0       -1.375365    3.864387    7.474915
     20          6           0       -3.473528    3.375412    7.540545
     21          1           0       -3.566481    3.556577    8.607061
     22          7           0       -2.966686    1.644480    0.615280
     23          1           0       -3.069326    2.613252    0.884222
     24          6           0       -2.670940    1.356297   -0.791554
     25          1           0       -2.981802    0.322437   -0.961713
     26          6           0       -1.136796    1.445424   -0.944246
     27          6           0       -3.400691    2.303817   -1.735960
     28          1           0       -4.440790    2.399347   -1.402756
     29          1           0       -2.937644    3.294555   -1.662563
     30          8           0       -0.582806    2.435156   -1.459817
     31          6           0       -3.374111    1.813113   -3.198268
     32          1           0       -2.368530    1.416493   -3.405259
     33          6           0       -4.376675    0.675336   -3.430536
     34          1           0       -5.402788    1.028084   -3.272484
     35          1           0       -4.308193    0.296137   -4.455601
     36          1           0       -4.206540   -0.170850   -2.755831
     37          6           0       -3.634381    2.976798   -4.162071
     38          1           0       -4.619970    3.420838   -3.979358
     39          1           0       -2.891409    3.775998   -4.043244
     40          1           0       -3.616376    2.639798   -5.204841
     41          7           0       -0.483450    0.420759   -0.378105
     42          1           0       -1.074482   -0.282184    0.069943
     43          6           0        0.925818    0.411805   -0.035871
     44          1           0        1.245923    1.442874    0.155268
     45          6           0        1.780490   -0.185863   -1.168383
     46          6           0        1.081794   -0.429866    1.260331
     47          1           0        0.542946    0.078591    2.068415
     48          1           0        0.623905   -1.408522    1.094185
     49          8           0        1.327500   -0.984312   -1.968399
     50          6           0        2.553003   -0.675237    1.572468
     51          7           0        3.164196    0.303613    2.296697
     52          1           0        4.152827    0.199895    2.487440
     53          1           0        2.636717    0.960085    2.854014
     54          8           0        3.156218   -1.623465    1.086331
     55          7           0        3.084023    0.278708   -1.215944
     56          1           0        3.416218    0.784736   -0.394562
     57          6           0        4.133654   -0.600635   -1.750329
     58          1           0        3.719649   -1.606479   -1.854082
     59          6           0        5.260793   -0.624223   -0.725131
     60          6           0        4.683063   -0.118383   -3.110765
     61          1           0        5.478011   -0.803778   -3.417275
     62          1           0        5.159757    0.858787   -2.956417
     63          8           0        5.415009    0.223814    0.130130
     64          6           0        3.581756   -0.023360   -4.194598
     65          1           0        3.757642   -0.774475   -4.970418
     66          1           0        2.616449   -0.283534   -3.750504
     67          6           0        3.473093    1.373582   -4.853796
     68          1           0        3.946082    2.142690   -4.234933
     69          1           0        3.978881    1.407103   -5.820919
     70          7           0        2.088764    1.805351   -5.087124
     71          1           0        1.645874    1.541133   -5.956166
     72          7           0        1.790362    2.428136   -2.864846
     73          1           0        1.081789    2.605641   -2.143558
     74          1           0        2.561332    1.845818   -2.545973
     75          7           0        0.020909    2.574477   -4.327090
     76          1           0       -0.580436    2.768824   -3.530852
     77          1           0       -0.367465    2.614235   -5.256733
     78          6           0        1.300995    2.247445   -4.096452
     79          8           0        6.094909   -1.648353   -0.933319
     80          1           0        6.802961   -1.594487   -0.263007
 ---------------------------------------------------------------------

 SCF Done:  E(RB3LYP) =  -1866.79926565     A.U. after    2 cycles

 Alpha  occ. eigenvalues --  -19.29364 -19.24661 -19.23896 -19.23053 -19.21927
 Alpha  occ. eigenvalues --  -19.20662 -14.50706 -14.49723 -14.47830 -14.47108
 Alpha  occ. eigenvalues --  -14.47044 -14.46559 -14.45237 -14.40326 -10.46000
 Alpha  occ. eigenvalues --  -10.42006 -10.40683 -10.39766 -10.38874 -10.38533
 Alpha  occ. eigenvalues --  -10.35360 -10.34890 -10.33895 -10.33738 -10.31515
 Alpha  occ. eigenvalues --  -10.29942 -10.29695 -10.29381 -10.28819 -10.28379
 Alpha  occ. eigenvalues --  -10.28082 -10.27122 -10.26770 -10.26016 -10.25978
 Alpha  occ. eigenvalues --  -10.25944 -10.25840 -10.25762 -10.25587  -1.20523
 Alpha  occ. eigenvalues --   -1.16011  -1.14868  -1.14776  -1.13853  -1.12612
 Alpha  occ. eigenvalues --   -1.11597  -1.04726  -1.04344  -1.03284  -1.03051
 Alpha  occ. eigenvalues --   -1.02090  -0.99881  -0.97812  -0.92502  -0.91442
 Alpha  occ. eigenvalues --   -0.90962  -0.89303  -0.86203  -0.85877  -0.84459
 Alpha  occ. eigenvalues --   -0.81343  -0.80165  -0.79629  -0.78926  -0.77317
 Alpha  occ. eigenvalues --   -0.76291  -0.75096  -0.73769  -0.72515  -0.72063
 Alpha  occ. eigenvalues --   -0.71134  -0.69517  -0.69006  -0.68574  -0.68094
 Alpha  occ. eigenvalues --   -0.67593  -0.67524  -0.65842  -0.65076  -0.64427
 Alpha  occ. eigenvalues --   -0.63756  -0.63180  -0.62666  -0.61829  -0.60871
 Alpha  occ. eigenvalues --   -0.59772  -0.59544  -0.58977  -0.58864  -0.58212
 Alpha  occ. eigenvalues --   -0.58164  -0.57397  -0.57217  -0.56501  -0.56256
 Alpha  occ. eigenvalues --   -0.55655  -0.55352  -0.54699  -0.54053  -0.53900
 Alpha  occ. eigenvalues --   -0.52984  -0.52793  -0.52415  -0.52144  -0.52042
 Alpha  occ. eigenvalues --   -0.51584  -0.51108  -0.50809  -0.50085  -0.49584
 Alpha  occ. eigenvalues --   -0.48897  -0.48778  -0.48713  -0.48182  -0.47990
 Alpha  occ. eigenvalues --   -0.47697  -0.47553  -0.47406  -0.47189  -0.46805
 Alpha  occ. eigenvalues --   -0.46613  -0.45864  -0.45579  -0.45455  -0.45010
 Alpha  occ. eigenvalues --   -0.44896  -0.42655  -0.42404  -0.42230  -0.42054
 Alpha  occ. eigenvalues --   -0.41417  -0.41344  -0.40970  -0.40765  -0.39540
 Alpha  occ. eigenvalues --   -0.39256  -0.38451  -0.37900  -0.37189  -0.36383
 Alpha  occ. eigenvalues --   -0.36270  -0.35779  -0.35496  -0.34259  -0.32957
 Alpha  occ. eigenvalues --   -0.31944  -0.31367
 Alpha virt. eigenvalues --   -0.11016  -0.10619  -0.09803  -0.08849  -0.07683
 Alpha virt. eigenvalues --   -0.07324  -0.07168  -0.07062  -0.06155  -0.03248
 Alpha virt. eigenvalues --   -0.02122  -0.01397  -0.00741  -0.00653  -0.00401

 Mulliken charges:
               1
     1  N   -0.745022
     2  H    0.325638
     3  H    0.326210
     4  C   -0.055714
     5  H    0.166304
     6  C    0.649039
     7  C   -0.378979
     8  H    0.152943
     9  H    0.149583
    10  O   -0.555589
    11  C    0.146191
    12  C   -0.176698
    13  H    0.131057
    14  C   -0.184743
    15  H    0.128290
    16  C   -0.127499
    17  H    0.148136
    18  C   -0.128042
    19  H    0.143408
    20  C   -0.126685
    21  H    0.148454
    22  N   -0.616101
    23  H    0.353504
    24  C   -0.068512
    25  H    0.200932
    26  C    0.633405
    27  C   -0.283151
    28  H    0.160293
    29  H    0.154578
    30  O   -0.589963
    31  C   -0.089341
    32  H    0.114920
    33  C   -0.453458
    34  H    0.159151
    35  H    0.156973
    36  H    0.155969
    37  C   -0.460103
    38  H    0.167995
    39  H    0.134103
    40  H    0.149448
    41  N   -0.580259
    42  H    0.403993
    43  C   -0.067520
    44  H    0.167836
    45  C    0.608081
    46  C   -0.392259
    47  H    0.198886
    48  H    0.207038
    49  O   -0.483154
    50  C    0.561770
    51  N   -0.734874
    52  H    0.367791
    53  H    0.349346
    54  O   -0.496715
    55  N   -0.652901
    56  H    0.364998
    57  C   -0.036667
    58  H    0.221886
    59  C    0.613679
    60  C   -0.295075
    61  H    0.190608
    62  H    0.153024
    63  O   -0.486205
    64  C   -0.317093
    65  H    0.176097
    66  H    0.203314
    67  C   -0.184451
    68  H    0.189506
    69  H    0.194737
    70  N   -0.589819
    71  H    0.356964
    72  N   -0.795281
    73  H    0.404774
    74  H    0.394622
    75  N   -0.797102
    76  H    0.416925
    77  H    0.367705
    78  C    0.800017
    79  O   -0.551071
    80  H    0.429923
 Sum of Mulliken charges =   1.00000

 Dipole moment (field-independent basis, Debye):
    X=              2.8037    Y=              9.6666    Z=             -7.2926  Tot=             12.4293
 Quadrupole moment (field-independent basis, Debye-Ang):
   XX=           -156.8113   YY=           -220.7510   ZZ=           -114.3535
   XY=            -11.3501   XZ=            -26.3317   YZ=            -11.3316

 Normal termination of Gaussian 16 at Tue Oct 18 19:50:25 2022.
