 Gaussian 16, Revision C.01,
 Gaussian 16:  ES64L-G16RevC.01  3-Jul-2019

 ----------------------------------------------------------------------
 # B3LYP/6-31G* empiricaldispersion=gd3bj guess=read geom=check nosymm
 integral(ultrafinegrid)
 ----------------------------------------------------------------------

 ------------------------------------------------------
 Candidate Structure: Conf:727 Charge calc in gas phase
 ------------------------------------------------------
 Structure from the checkpoint file:  "conf-727.chk"
 Charge =  1 Multiplicity = 1

                          Input orientation:
 ---------------------------------------------------------------------
 Center     Atomic      Atomic             Coordinates (Angstroms)
 Number     Number       Type             X           Y           Z
 ---------------------------------------------------------------------
      1          7           0       -5.121284   -1.335277    4.743314
      2          1           0       -6.049162   -1.675717    4.495172
      3          1           0       -4.484688   -2.083313    4.466859
      4          6           0       -4.809607   -0.172081    3.927172
      5          1           0       -5.638023    0.542320    4.013178
      6          6           0       -4.619785   -0.516544    2.439459
      7          6           0       -3.538115    0.539563    4.475077
      8          1           0       -3.783974    0.880940    5.484889
      9          1           0       -3.323618    1.422665    3.863191
     10          8           0       -4.384037   -1.658222    2.061680
     11          6           0       -2.322978   -0.356404    4.517029
     12          6           0       -2.078639   -1.180070    5.621689
     13          1           0       -2.767453   -1.155420    6.460565
     14          6           0       -1.437165   -0.410345    3.431370
     15          1           0       -1.634652    0.228467    2.576144
     16          6           0       -0.975411   -2.035559    5.645017
     17          1           0       -0.801578   -2.666381    6.512066
     18          6           0       -0.337886   -1.270285    3.449834
     19          1           0        0.330114   -1.325392    2.592780
     20          6           0       -0.100766   -2.083973    4.560226
     21          1           0        0.754020   -2.753920    4.575311
     22          7           0       -4.730592    0.545362    1.574569
     23          1           0       -4.678397    1.468606    1.988593
     24          6           0       -4.182150    0.458196    0.234241
     25          1           0       -4.036931   -0.607108    0.038864
     26          6           0       -2.807830    1.135401    0.229602
     27          6           0       -5.120913    1.063141   -0.824707
     28          1           0       -5.198716    2.146041   -0.655337
     29          1           0       -4.660492    0.938008   -1.815074
     30          8           0       -2.426970    1.856631    1.155264
     31          6           0       -6.527515    0.441894   -0.837237
     32          1           0       -6.981804    0.641894    0.141871
     33          6           0       -7.384016    1.119508   -1.913532
     34          1           0       -6.976043    0.931736   -2.915092
     35          1           0       -8.409794    0.735802   -1.896207
     36          1           0       -7.428321    2.205363   -1.768113
     37          6           0       -6.486545   -1.078511   -1.037727
     38          1           0       -5.961414   -1.336681   -1.967481
     39          1           0       -5.987593   -1.590504   -0.208714
     40          1           0       -7.502145   -1.482298   -1.111821
     41          7           0       -2.004145    0.875194   -0.831153
     42          1           0       -2.305792    0.348047   -1.642302
     43          6           0       -0.671471    1.425146   -0.863628
     44          1           0       -0.720707    2.476609   -0.561231
     45          6           0       -0.144459    1.336056   -2.297257
     46          6           0        0.274772    0.673879    0.126751
     47          1           0       -0.342300    0.167860    0.866651
     48          1           0        0.842847   -0.095770   -0.408641
     49          8           0       -0.770069    0.787733   -3.196999
     50          6           0        1.266825    1.611028    0.794078
     51          7           0        1.304751    1.577652    2.138378
     52          1           0        1.923712    2.217277    2.618907
     53          1           0        0.638937    1.048154    2.688821
     54          8           0        2.006315    2.356307    0.130436
     55          7           0        1.082366    1.906858   -2.448851
     56          1           0        1.562079    2.200797   -1.584609
     57          6           0        1.840887    1.732420   -3.664176
     58          1           0        1.153276    1.263037   -4.380812
     59          6           0        2.969954    0.720255   -3.455520
     60          6           0        2.343041    3.063908   -4.232823
     61          1           0        1.462722    3.635926   -4.536793
     62          1           0        2.909179    2.857277   -5.148080
     63          8           0        4.129153    0.845242   -3.838858
     64          6           0        3.189716    3.894903   -3.235698
     65          1           0        2.606806    4.731783   -2.842990
     66          1           0        3.474940    3.297974   -2.360775
     67          6           0        4.468071    4.456027   -3.862089
     68          1           0        4.232022    5.081717   -4.732826
     69          1           0        5.008268    5.067240   -3.128676
     70          7           0        5.306655    3.327602   -4.284575
     71          1           0        4.918717    2.390465   -4.107422
     72          7           0        7.038080    4.580391   -5.196851
     73          1           0        7.780832    4.663944   -5.875371
     74          1           0        6.656380    5.435470   -4.821388
     75          7           0        6.983559    2.275765   -5.468707
     76          1           0        7.963808    2.246809   -5.710650
     77          1           0        6.536283    1.387907   -5.280541
     78          6           0        6.433815    3.402238   -4.970945
     79          8           0        2.559423   -0.372878   -2.814636
     80          1           0        3.318062   -0.983645   -2.739667
 ---------------------------------------------------------------------

 SCF Done:  E(RB3LYP) =  -1866.79363855     A.U. after    1 cycles

 Alpha  occ. eigenvalues --  -19.32454 -19.28037 -19.21209 -19.21199 -19.19069
 Alpha  occ. eigenvalues --  -19.16856 -14.53164 -14.52521 -14.51528 -14.44595
 Alpha  occ. eigenvalues --  -14.44574 -14.43559 -14.40977 -14.35549 -10.48903
 Alpha  occ. eigenvalues --  -10.45421 -10.38539 -10.37992 -10.36794 -10.35803
 Alpha  occ. eigenvalues --  -10.34948 -10.33249 -10.32352 -10.31530 -10.30723
 Alpha  occ. eigenvalues --  -10.28931 -10.28581 -10.27254 -10.24643 -10.24617
 Alpha  occ. eigenvalues --  -10.24565 -10.24131 -10.23995 -10.23949 -10.23944
 Alpha  occ. eigenvalues --  -10.23763 -10.23533 -10.21923 -10.21526  -1.23955
 Alpha  occ. eigenvalues --   -1.17573  -1.14749  -1.13294  -1.12465  -1.11107
 Alpha  occ. eigenvalues --   -1.08557  -1.06650  -1.05896  -1.02640  -1.00302
 Alpha  occ. eigenvalues --   -0.99472  -0.97854  -0.93511  -0.92570  -0.90391
 Alpha  occ. eigenvalues --   -0.88656  -0.86606  -0.85498  -0.82725  -0.81767
 Alpha  occ. eigenvalues --   -0.80721  -0.79705  -0.79568  -0.77247  -0.76125
 Alpha  occ. eigenvalues --   -0.75601  -0.74540  -0.72765  -0.71851  -0.71274
 Alpha  occ. eigenvalues --   -0.70574  -0.68767  -0.68481  -0.66850  -0.66494
 Alpha  occ. eigenvalues --   -0.66061  -0.65683  -0.65639  -0.65027  -0.63869
 Alpha  occ. eigenvalues --   -0.62890  -0.62731  -0.62307  -0.61729  -0.61221
 Alpha  occ. eigenvalues --   -0.59988  -0.59348  -0.58887  -0.57956  -0.57134
 Alpha  occ. eigenvalues --   -0.56579  -0.55641  -0.55251  -0.55046  -0.54312
 Alpha  occ. eigenvalues --   -0.54171  -0.53748  -0.53599  -0.52695  -0.52467
 Alpha  occ. eigenvalues --   -0.51847  -0.51383  -0.50999  -0.50870  -0.50104
 Alpha  occ. eigenvalues --   -0.49965  -0.49216  -0.48879  -0.47892  -0.47600
 Alpha  occ. eigenvalues --   -0.47398  -0.46802  -0.46519  -0.46492  -0.46110
 Alpha  occ. eigenvalues --   -0.46010  -0.45783  -0.45731  -0.45151  -0.44907
 Alpha  occ. eigenvalues --   -0.44035  -0.43599  -0.43436  -0.43048  -0.42603
 Alpha  occ. eigenvalues --   -0.42425  -0.41986  -0.41760  -0.41292  -0.40997
 Alpha  occ. eigenvalues --   -0.40086  -0.38877  -0.38131  -0.37921  -0.37339
 Alpha  occ. eigenvalues --   -0.37204  -0.36164  -0.35927  -0.35039  -0.34819
 Alpha  occ. eigenvalues --   -0.33078  -0.32777  -0.31466  -0.30590  -0.30141
 Alpha  occ. eigenvalues --   -0.29608  -0.28089
 Alpha virt. eigenvalues --   -0.12899  -0.12595  -0.08755  -0.07200  -0.06360
 Alpha virt. eigenvalues --   -0.05794  -0.05434  -0.05277  -0.04772  -0.03844
 Alpha virt. eigenvalues --   -0.03511  -0.02805  -0.01830  -0.00935   0.00525

 Mulliken charges:
               1
     1  N   -0.698815
     2  H    0.306969
     3  H    0.321038
     4  C   -0.087062
     5  H    0.148449
     6  C    0.594880
     7  C   -0.354157
     8  H    0.167366
     9  H    0.157652
    10  O   -0.521511
    11  C    0.142974
    12  C   -0.177494
    13  H    0.154918
    14  C   -0.207820
    15  H    0.163512
    16  C   -0.127124
    17  H    0.141404
    18  C   -0.158897
    19  H    0.114813
    20  C   -0.130704
    21  H    0.133224
    22  N   -0.576678
    23  H    0.334599
    24  C   -0.096500
    25  H    0.200794
    26  C    0.633996
    27  C   -0.265383
    28  H    0.138762
    29  H    0.133190
    30  O   -0.549115
    31  C   -0.060753
    32  H    0.139813
    33  C   -0.444916
    34  H    0.140010
    35  H    0.152003
    36  H    0.140961
    37  C   -0.470333
    38  H    0.132098
    39  H    0.176559
    40  H    0.150788
    41  N   -0.624859
    42  H    0.359119
    43  C   -0.023688
    44  H    0.204306
    45  C    0.595724
    46  C   -0.406236
    47  H    0.202793
    48  H    0.188304
    49  O   -0.517250
    50  C    0.633606
    51  N   -0.742850
    52  H    0.353946
    53  H    0.375724
    54  O   -0.559801
    55  N   -0.643906
    56  H    0.405363
    57  C   -0.076831
    58  H    0.231604
    59  C    0.622426
    60  C   -0.282944
    61  H    0.188583
    62  H    0.154475
    63  O   -0.527547
    64  C   -0.325677
    65  H    0.194294
    66  H    0.183178
    67  C   -0.161138
    68  H    0.183041
    69  H    0.184311
    70  N   -0.635314
    71  H    0.429211
    72  N   -0.760759
    73  H    0.384140
    74  H    0.390931
    75  N   -0.764509
    76  H    0.378318
    77  H    0.391878
    78  C    0.814552
    79  O   -0.522390
    80  H    0.432362
 Sum of Mulliken charges =   1.00000

 Dipole moment (field-independent basis, Debye):
    X=             24.1008    Y=             14.6148    Z=            -17.9665  Tot=             33.4251
 Quadrupole moment (field-independent basis, Debye-Ang):
   XX=            -42.3234   YY=           -164.9717   ZZ=           -123.8967
   XY=             74.2124   XZ=           -127.0697   YZ=            -66.0449

 Normal termination of Gaussian 16 at Tue Oct 18 19:30:46 2022.
