 Gaussian 16, Revision C.01,
 Gaussian 16:  ES64L-G16RevC.01  3-Jul-2019

 ----------------------------------------------------------------------
 # B3LYP/6-31G* empiricaldispersion=gd3bj guess=read geom=check nosymm
 integral(ultrafinegrid)
 ----------------------------------------------------------------------

 ------------------------------------------------------
 Candidate Structure: Conf:153 Charge calc in gas phase
 ------------------------------------------------------
 Structure from the checkpoint file:  "conf-153.chk"
 Charge =  1 Multiplicity = 1

                          Input orientation:
 ---------------------------------------------------------------------
 Center     Atomic      Atomic             Coordinates (Angstroms)
 Number     Number       Type             X           Y           Z
 ---------------------------------------------------------------------
      1          7           0       -3.031787    9.574391   -7.415999
      2          6           0       -2.927252    9.158386   -5.986367
      3          6           0       -3.800826   10.190566   -5.242536
      4          8           0       -4.820526   10.599900   -5.787645
      5          6           0       -1.443184    9.079892   -5.588948
      6          6           0       -0.659197    8.166134   -6.505965
      7          6           0       -0.574317    6.794251   -6.239621
      8          6           0       -0.061435    8.675431   -7.667124
      9          6           0        0.099321    5.943556   -7.114949
     10          6           0        0.605172    7.821397   -8.546663
     11          6           0        0.689539    6.456340   -8.271819
     12          1           0       -2.582064    8.938901   -8.081969
     13          1           0       -3.396119    8.173304   -5.894246
     14          1           0       -1.385760    8.707770   -4.559575
     15          1           0       -1.020735   10.090235   -5.609174
     16          1           0       -1.029040    6.391291   -5.337355
     17          1           0       -0.128704    9.735746   -7.896020
     18          1           0        0.166540    4.882912   -6.892425
     19          1           0        1.061048    8.228066   -9.444225
     20          1           0        1.215120    5.793975   -8.952994
     21          1           0       -2.550974   10.495955   -7.529258
     22          7           0       -3.371076   10.638941   -4.041154
     23          6           0       -4.078338   11.723603   -3.353336
     24          6           0       -4.146824   12.994970   -4.222677
     25          8           0       -5.084024   13.770189   -4.131291
     26          6           0       -3.420425   12.023309   -2.001271
     27          6           0       -3.392021   10.850803   -1.002921
     28          6           0       -2.700455   11.297593    0.291236
     29          6           0       -4.793454   10.299193   -0.717175
     30          1           0       -2.523355   10.273132   -3.632175
     31          1           0       -5.121191   11.431023   -3.214678
     32          1           0       -2.397442   12.386030   -2.175769
     33          1           0       -3.975338   12.859747   -1.560716
     34          1           0       -2.788927   10.034899   -1.433472
     35          1           0       -3.271484   12.097002    0.778686
     36          1           0       -2.619075   10.466317    0.999218
     37          1           0       -1.690591   11.677311    0.097535
     38          1           0       -5.450573   11.088912   -0.332994
     39          1           0       -5.263135    9.877133   -1.612052
     40          1           0       -4.749254    9.506270    0.036654
     41          7           0       -3.076440   13.200548   -5.053480
     42          6           0       -3.255826   13.976788   -6.264877
     43          6           0       -2.670801   13.129140   -7.417497
     44          8           0       -2.041320   12.080523   -7.153629
     45          6           0       -2.650277   15.394530   -6.140844
     46          6           0       -3.332015   16.417950   -7.042172
     47          7           0       -3.352989   17.685431   -6.573728
     48          8           0       -3.816783   16.128327   -8.140439
     49          1           0       -2.439545   12.423707   -5.188286
     50          1           0       -4.332541   14.085386   -6.434910
     51          1           0       -2.747883   15.693635   -5.093640
     52          1           0       -1.577312   15.383895   -6.371679
     53          1           0       -3.816902   18.394311   -7.126250
     54          1           0       -3.068290   17.919446   -5.634599
     55          7           0       -2.913339   13.571412   -8.646758
     56          6           0       -2.584100   12.868232   -9.891285
     57          6           0       -2.832743   11.339879   -9.725361
     58          8           0       -1.844996   10.553786   -9.777769
     59          6           0       -1.194742   13.235647  -10.438818
     60          6           0       -1.076921   13.183547  -11.976837
     61          6           0       -0.915179   11.805469  -12.638669
     62          7           0       -2.056241   10.897085  -12.454535
     63          6           0       -3.255895   11.025157  -13.022387
     64          7           0       -3.371828   11.602895  -14.236588
     65          7           0       -4.342499   10.568966  -12.388191
     66          8           0       -4.042014   10.994519   -9.613419
     67          1           0       -4.001639    9.756681   -7.707551
     68          1           0       -3.388369   14.481653   -8.701660
     69          1           0       -3.347687   13.209983  -10.599320
     70          1           0       -0.447503   12.590051   -9.967216
     71          1           0       -0.980266   14.266401  -10.135411
     72          1           0       -1.938605   13.695996  -12.427172
     73          1           0       -0.193410   13.762426  -12.272982
     74          1           0       -0.709009   11.929820  -13.707111
     75          1           0       -0.056937   11.279300  -12.214650
     76          1           0       -2.027878   10.412504  -11.547910
     77          1           0       -4.279006   11.758662  -14.649464
     78          1           0       -2.571385   11.665822  -14.847682
     79          1           0       -5.228182   10.522665  -12.871419
     80          1           0       -4.353958   10.538891  -11.352441
 ---------------------------------------------------------------------

 SCF Done:  E(RB3LYP) =  -1866.81280532     A.U. after    2 cycles

 Alpha  occ. eigenvalues --  -19.22408 -19.22182 -19.21285 -19.19071 -19.18621
 Alpha  occ. eigenvalues --  -19.18472 -14.51882 -14.50074 -14.48032 -14.47687
 Alpha  occ. eigenvalues --  -14.46890 -14.44971 -14.44876 -14.43059 -10.45323
 Alpha  occ. eigenvalues --  -10.39654 -10.38782 -10.38761 -10.36747 -10.36202
 Alpha  occ. eigenvalues --  -10.35929 -10.33566 -10.32408 -10.31691 -10.31403
 Alpha  occ. eigenvalues --  -10.30554 -10.29106 -10.28818 -10.28771 -10.27525
 Alpha  occ. eigenvalues --  -10.27242 -10.27231 -10.27178 -10.27154 -10.27114
 Alpha  occ. eigenvalues --  -10.27016 -10.26980 -10.24278 -10.24225  -1.14906
 Alpha  occ. eigenvalues --   -1.14060  -1.13774  -1.12824  -1.12029  -1.11035
 Alpha  occ. eigenvalues --   -1.07682  -1.03616  -1.03282  -1.02694  -1.01890
 Alpha  occ. eigenvalues --   -1.01549  -1.00203  -0.99743  -0.94377  -0.90119
 Alpha  occ. eigenvalues --   -0.89346  -0.88570  -0.87072  -0.84142  -0.83699
 Alpha  occ. eigenvalues --   -0.82746  -0.81829  -0.78871  -0.76681  -0.76160
 Alpha  occ. eigenvalues --   -0.75343  -0.74934  -0.72918  -0.70983  -0.70152
 Alpha  occ. eigenvalues --   -0.70033  -0.69105  -0.68993  -0.67781  -0.67414
 Alpha  occ. eigenvalues --   -0.66984  -0.66627  -0.65838  -0.65421  -0.64183
 Alpha  occ. eigenvalues --   -0.63930  -0.63060  -0.62753  -0.62263  -0.61038
 Alpha  occ. eigenvalues --   -0.59936  -0.59417  -0.58967  -0.58475  -0.57604
 Alpha  occ. eigenvalues --   -0.57077  -0.56469  -0.55511  -0.55305  -0.54554
 Alpha  occ. eigenvalues --   -0.54357  -0.54084  -0.53639  -0.53518  -0.53069
 Alpha  occ. eigenvalues --   -0.52771  -0.52192  -0.51972  -0.51690  -0.51238
 Alpha  occ. eigenvalues --   -0.50559  -0.50256  -0.50206  -0.49639  -0.49306
 Alpha  occ. eigenvalues --   -0.49055  -0.48719  -0.48448  -0.47942  -0.47323
 Alpha  occ. eigenvalues --   -0.46876  -0.46504  -0.46206  -0.45726  -0.45634
 Alpha  occ. eigenvalues --   -0.45337  -0.44963  -0.44636  -0.44284  -0.44064
 Alpha  occ. eigenvalues --   -0.43188  -0.42986  -0.42768  -0.42356  -0.40755
 Alpha  occ. eigenvalues --   -0.40331  -0.40239  -0.39938  -0.37803  -0.37274
 Alpha  occ. eigenvalues --   -0.36668  -0.36377  -0.36283  -0.35839  -0.35170
 Alpha  occ. eigenvalues --   -0.34792  -0.33689  -0.33356  -0.32994  -0.32749
 Alpha  occ. eigenvalues --   -0.32169  -0.32138
 Alpha virt. eigenvalues --   -0.10185  -0.09340  -0.08840  -0.08602  -0.07997
 Alpha virt. eigenvalues --   -0.06844  -0.06548  -0.05654  -0.05317  -0.03048
 Alpha virt. eigenvalues --   -0.02730  -0.00621  -0.00299   0.00517   0.00643

 Mulliken charges:
               1
     1  N   -0.787930
     2  C   -0.086607
     3  C    0.639351
     4  O   -0.510978
     5  C   -0.403877
     6  C    0.133757
     7  C   -0.179256
     8  C   -0.206556
     9  C   -0.127287
    10  C   -0.126555
    11  C   -0.125459
    12  H    0.403997
    13  H    0.210933
    14  H    0.169775
    15  H    0.192607
    16  H    0.134580
    17  H    0.169730
    18  H    0.152994
    19  H    0.144332
    20  H    0.150544
    21  H    0.480993
    22  N   -0.651728
    23  C   -0.021600
    24  C    0.604791
    25  O   -0.505886
    26  C   -0.306622
    27  C   -0.078732
    28  C   -0.443321
    29  C   -0.451866
    30  H    0.351451
    31  H    0.204012
    32  H    0.139776
    33  H    0.179900
    34  H    0.107381
    35  H    0.155652
    36  H    0.157324
    37  H    0.144343
    38  H    0.158701
    39  H    0.148006
    40  H    0.158339
    41  N   -0.612756
    42  C   -0.056041
    43  C    0.622488
    44  O   -0.612739
    45  C   -0.376992
    46  C    0.633223
    47  N   -0.735521
    48  O   -0.534013
    49  H    0.345035
    50  H    0.218276
    51  H    0.189545
    52  H    0.190164
    53  H    0.361611
    54  H    0.357177
    55  N   -0.617415
    56  C    0.012299
    57  C    0.539765
    58  O   -0.611462
    59  C   -0.268766
    60  C   -0.281397
    61  C   -0.161930
    62  N   -0.602229
    63  C    0.774643
    64  N   -0.757390
    65  N   -0.779327
    66  O   -0.601137
    67  H    0.420634
    68  H    0.402682
    69  H    0.146029
    70  H    0.176203
    71  H    0.151056
    72  H    0.147868
    73  H    0.165710
    74  H    0.154908
    75  H    0.193062
    76  H    0.397979
    77  H    0.372038
    78  H    0.377995
    79  H    0.357631
    80  H    0.422089
 Sum of Mulliken charges =   1.00000

 Dipole moment (field-independent basis, Debye):
    X=            -10.1728    Y=             55.1793    Z=            -44.9847  Tot=             71.9156
 Quadrupole moment (field-independent basis, Debye-Ang):
   XX=           -207.6036   YY=            474.4396   ZZ=            324.1339
   XY=           -114.8981   XZ=            113.4928   YZ=           -519.9037

 Normal termination of Gaussian 16 at Sat Jul 16 16:54:50 2022.
