 Gaussian 16, Revision C.01,
 Gaussian 16:  ES64L-G16RevC.01  3-Jul-2019

 ----------------------------------------------------------------------
 # B3LYP/6-31G* empiricaldispersion=gd3bj guess=read geom=check nosymm
 integral(ultrafinegrid)
 ----------------------------------------------------------------------

 ------------------------------------------------------
 Candidate Structure: Conf:123 Charge calc in gas phase
 ------------------------------------------------------
 Structure from the checkpoint file:  "conf-123.chk"
 Charge =  1 Multiplicity = 1

                          Input orientation:
 ---------------------------------------------------------------------
 Center     Atomic      Atomic             Coordinates (Angstroms)
 Number     Number       Type             X           Y           Z
 ---------------------------------------------------------------------
      1          7           0       -2.020517    9.999851   -8.474736
      2          6           0       -1.888209    8.866162   -7.513000
      3          6           0       -3.228971    8.879154   -6.748803
      4          8           0       -4.251343    9.173072   -7.359397
      5          6           0       -0.606599    9.053390   -6.682965
      6          6           0        0.618414    9.202308   -7.559146
      7          6           0        1.325469    8.073337   -7.990115
      8          6           0        1.021103   10.470616   -7.999859
      9          6           0        2.419537    8.206545   -8.843876
     10          6           0        2.111276   10.601680   -8.861095
     11          6           0        2.813658    9.472345   -9.282144
     12          1           0       -1.247619   10.089516   -9.141196
     13          1           0       -1.828587    7.942546   -8.097881
     14          1           0       -0.491328    8.178618   -6.032698
     15          1           0       -0.726952    9.936573   -6.046420
     16          1           0        1.024506    7.085745   -7.647592
     17          1           0        0.475725   11.356648   -7.685657
     18          1           0        2.965683    7.324147   -9.163401
     19          1           0        2.411048   11.589478   -9.197571
     20          1           0        3.666476    9.576193   -9.946132
     21          1           0       -2.037718   10.894158   -7.933050
     22          7           0       -3.206616    8.617594   -5.422129
     23          6           0       -4.421669    8.756430   -4.613318
     24          6           0       -5.001717   10.181897   -4.704264
     25          8           0       -6.200933   10.381111   -4.605744
     26          6           0       -4.143589    8.374300   -3.154657
     27          6           0       -3.656933    6.930628   -2.928255
     28          6           0       -3.415133    6.701338   -1.431019
     29          6           0       -4.634628    5.894304   -3.494004
     30          1           0       -2.339420    8.380742   -4.962197
     31          1           0       -5.200008    8.116793   -5.034539
     32          1           0       -3.414044    9.081152   -2.734432
     33          1           0       -5.079209    8.530619   -2.605279
     34          1           0       -2.690387    6.799040   -3.441465
     35          1           0       -4.351964    6.797113   -0.868962
     36          1           0       -3.017017    5.698000   -1.247455
     37          1           0       -2.703376    7.427927   -1.022369
     38          1           0       -5.630226    6.017361   -3.050506
     39          1           0       -4.739160    5.973336   -4.581392
     40          1           0       -4.292694    4.878729   -3.269007
     41          7           0       -4.080329   11.185120   -4.856295
     42          6           0       -4.476849   12.423140   -5.498400
     43          6           0       -3.432732   12.695533   -6.605178
     44          8           0       -2.406310   11.983313   -6.673112
     45          6           0       -4.646336   13.575856   -4.481358
     46          6           0       -5.631050   14.643774   -4.944559
     47          7           0       -6.305689   15.280409   -3.961659
     48          8           0       -5.795718   14.935588   -6.133122
     49          1           0       -3.135966   10.911985   -5.103035
     50          1           0       -5.446624   12.253702   -5.978737
     51          1           0       -4.992024   13.128605   -3.545316
     52          1           0       -3.682451   14.056089   -4.269252
     53          1           0       -6.988450   15.979576   -4.222430
     54          1           0       -6.271382   14.978961   -2.999505
     55          7           0       -3.724495   13.677528   -7.451480
     56          6           0       -2.960512   14.030676   -8.652917
     57          6           0       -2.446756   12.742249   -9.360354
     58          8           0       -1.202039   12.530562   -9.409478
     59          6           0       -1.877678   15.089361   -8.385136
     60          6           0       -1.579903   16.018975   -9.580683
     61          6           0       -0.685666   15.476721  -10.707520
     62          7           0       -1.241071   14.325519  -11.433688
     63          6           0       -2.272487   14.358803  -12.278159
     64          7           0       -2.517707   15.470033  -13.003854
     65          7           0       -3.056319   13.282218  -12.411119
     66          8           0       -3.335935   12.025771   -9.898997
     67          1           0       -2.917219    9.991257   -8.979359
     68          1           0       -4.571243   14.215523   -7.226411
     69          1           0       -3.711126   14.452713   -9.330788
     70          1           0       -0.967800   14.585252   -8.045144
     71          1           0       -2.230252   15.724544   -7.564926
     72          1           0       -2.526129   16.370863  -10.015108
     73          1           0       -1.071395   16.913766   -9.200995
     74          1           0       -0.450318   16.281131  -11.412522
     75          1           0        0.267148   15.129227  -10.301697
     76          1           0       -1.082526   13.437533  -10.939351
     77          1           0       -3.328374   15.527529  -13.601531
     78          1           0       -1.788339   16.151471  -13.151385
     79          1           0       -3.741699   13.244205  -13.152002
     80          1           0       -3.172224   12.633729  -11.611205
 ---------------------------------------------------------------------

 SCF Done:  E(RB3LYP) =  -1866.81281204     A.U. after    2 cycles

 Alpha  occ. eigenvalues --  -19.22403 -19.22181 -19.21284 -19.19068 -19.18621
 Alpha  occ. eigenvalues --  -19.18482 -14.51882 -14.50065 -14.48020 -14.47674
 Alpha  occ. eigenvalues --  -14.46888 -14.44968 -14.44880 -14.43059 -10.45313
 Alpha  occ. eigenvalues --  -10.39654 -10.38780 -10.38761 -10.36751 -10.36200
 Alpha  occ. eigenvalues --  -10.35929 -10.33566 -10.32400 -10.31692 -10.31399
 Alpha  occ. eigenvalues --  -10.30558 -10.29107 -10.28818 -10.28777 -10.27531
 Alpha  occ. eigenvalues --  -10.27245 -10.27237 -10.27184 -10.27160 -10.27118
 Alpha  occ. eigenvalues --  -10.27022 -10.26990 -10.24285 -10.24232  -1.14904
 Alpha  occ. eigenvalues --   -1.14053  -1.13767  -1.12824  -1.12031  -1.11033
 Alpha  occ. eigenvalues --   -1.07684  -1.03614  -1.03283  -1.02685  -1.01887
 Alpha  occ. eigenvalues --   -1.01546  -1.00201  -0.99741  -0.94382  -0.90124
 Alpha  occ. eigenvalues --   -0.89346  -0.88575  -0.87072  -0.84145  -0.83701
 Alpha  occ. eigenvalues --   -0.82752  -0.81832  -0.78864  -0.76673  -0.76163
 Alpha  occ. eigenvalues --   -0.75349  -0.74932  -0.72921  -0.70970  -0.70150
 Alpha  occ. eigenvalues --   -0.70033  -0.69109  -0.68994  -0.67783  -0.67408
 Alpha  occ. eigenvalues --   -0.66986  -0.66625  -0.65839  -0.65425  -0.64182
 Alpha  occ. eigenvalues --   -0.63928  -0.63051  -0.62749  -0.62256  -0.61042
 Alpha  occ. eigenvalues --   -0.59935  -0.59421  -0.58954  -0.58474  -0.57602
 Alpha  occ. eigenvalues --   -0.57076  -0.56470  -0.55516  -0.55296  -0.54554
 Alpha  occ. eigenvalues --   -0.54361  -0.54088  -0.53641  -0.53516  -0.53070
 Alpha  occ. eigenvalues --   -0.52772  -0.52191  -0.51971  -0.51687  -0.51242
 Alpha  occ. eigenvalues --   -0.50562  -0.50261  -0.50211  -0.49647  -0.49310
 Alpha  occ. eigenvalues --   -0.49057  -0.48722  -0.48448  -0.47937  -0.47324
 Alpha  occ. eigenvalues --   -0.46872  -0.46506  -0.46208  -0.45719  -0.45638
 Alpha  occ. eigenvalues --   -0.45338  -0.44967  -0.44636  -0.44289  -0.44068
 Alpha  occ. eigenvalues --   -0.43195  -0.42992  -0.42774  -0.42361  -0.40749
 Alpha  occ. eigenvalues --   -0.40336  -0.40248  -0.39946  -0.37798  -0.37271
 Alpha  occ. eigenvalues --   -0.36669  -0.36367  -0.36280  -0.35832  -0.35174
 Alpha  occ. eigenvalues --   -0.34788  -0.33689  -0.33360  -0.32999  -0.32754
 Alpha  occ. eigenvalues --   -0.32168  -0.32142
 Alpha virt. eigenvalues --   -0.10178  -0.09343  -0.08843  -0.08607  -0.07992
 Alpha virt. eigenvalues --   -0.06844  -0.06547  -0.05662  -0.05315  -0.03052
 Alpha virt. eigenvalues --   -0.02723  -0.00620  -0.00299   0.00527   0.00642

 Mulliken charges:
               1
     1  N   -0.787960
     2  C   -0.086672
     3  C    0.639444
     4  O   -0.510957
     5  C   -0.403817
     6  C    0.133655
     7  C   -0.179242
     8  C   -0.206484
     9  C   -0.127297
    10  C   -0.126602
    11  C   -0.125458
    12  H    0.403906
    13  H    0.210906
    14  H    0.169828
    15  H    0.192531
    16  H    0.134593
    17  H    0.169772
    18  H    0.153004
    19  H    0.144375
    20  H    0.150549
    21  H    0.481017
    22  N   -0.651825
    23  C   -0.021541
    24  C    0.604770
    25  O   -0.505593
    26  C   -0.306634
    27  C   -0.078953
    28  C   -0.443311
    29  C   -0.451818
    30  H    0.351493
    31  H    0.203897
    32  H    0.139877
    33  H    0.179887
    34  H    0.107315
    35  H    0.155694
    36  H    0.157338
    37  H    0.144371
    38  H    0.158736
    39  H    0.147996
    40  H    0.158356
    41  N   -0.612629
    42  C   -0.056223
    43  C    0.622402
    44  O   -0.612602
    45  C   -0.377106
    46  C    0.633162
    47  N   -0.735597
    48  O   -0.533915
    49  H    0.344904
    50  H    0.218316
    51  H    0.189611
    52  H    0.190146
    53  H    0.361620
    54  H    0.357090
    55  N   -0.617350
    56  C    0.012195
    57  C    0.540184
    58  O   -0.611557
    59  C   -0.268958
    60  C   -0.281225
    61  C   -0.161974
    62  N   -0.602425
    63  C    0.774576
    64  N   -0.757382
    65  N   -0.779127
    66  O   -0.601138
    67  H    0.420622
    68  H    0.402649
    69  H    0.146452
    70  H    0.176177
    71  H    0.151037
    72  H    0.147930
    73  H    0.165687
    74  H    0.154818
    75  H    0.192924
    76  H    0.398177
    77  H    0.371996
    78  H    0.377946
    79  H    0.357539
    80  H    0.421904
 Sum of Mulliken charges =   1.00000

 Dipole moment (field-independent basis, Debye):
    X=             -9.2306    Y=             61.7745    Z=            -41.9708  Tot=             75.2519
 Quadrupole moment (field-independent basis, Debye-Ang):
   XX=           -199.4144   YY=            646.7877   ZZ=            245.8266
   XY=           -144.1689   XZ=             65.9920   YZ=           -577.2238

 Normal termination of Gaussian 16 at Sat Jul 16 16:54:47 2022.
