 Gaussian 16, Revision C.01,
 Gaussian 16:  ES64L-G16RevC.01  3-Jul-2019

 ----------------------------------------------------------------------
 # B3LYP/6-31G* empiricaldispersion=gd3bj guess=read geom=check nosymm
 integral(ultrafinegrid)
 ----------------------------------------------------------------------

 ------------------------------------------------------
 Candidate Structure: Conf:883 Charge calc in gas phase
 ------------------------------------------------------
 Structure from the checkpoint file:  "conf-883.chk"
 Charge =  1 Multiplicity = 1

                          Input orientation:
 ---------------------------------------------------------------------
 Center     Atomic      Atomic             Coordinates (Angstroms)
 Number     Number       Type             X           Y           Z
 ---------------------------------------------------------------------
      1          7           0       -4.337430    1.724913    3.280253
      2          1           0       -3.922275    0.819530    3.493677
      3          1           0       -4.604032    2.162975    4.159184
      4          6           0       -3.358292    2.538081    2.579663
      5          1           0       -3.872197    3.412467    2.160433
      6          6           0       -2.790983    1.697738    1.440494
      7          6           0       -2.168660    3.040618    3.452978
      8          1           0       -1.723657    2.166842    3.940925
      9          1           0       -2.589120    3.676619    4.242417
     10          8           0       -2.408940    0.538849    1.628700
     11          6           0       -1.111010    3.790658    2.676668
     12          6           0        0.192113    3.288851    2.574837
     13          1           0        0.446845    2.368135    3.093169
     14          6           0       -1.413798    4.989330    2.014021
     15          1           0       -2.410006    5.417112    2.103692
     16          6           0        1.172468    3.962426    1.845609
     17          1           0        2.182179    3.563121    1.812430
     18          6           0       -0.442897    5.658748    1.267079
     19          1           0       -0.694671    6.599272    0.782733
     20          6           0        0.854237    5.147462    1.181051
     21          1           0        1.619099    5.680068    0.622706
     22          7           0       -2.693804    2.316927    0.236329
     23          1           0       -2.872207    3.311077    0.191728
     24          6           0       -2.032499    1.690019   -0.905178
     25          1           0       -2.356657    0.646568   -0.915222
     26          6           0       -0.518421    1.709481   -0.676346
     27          6           0       -2.443614    2.372962   -2.208903
     28          1           0       -3.530104    2.254229   -2.305049
     29          1           0       -2.247149    3.451104   -2.130344
     30          8           0        0.230815    2.578068   -1.169053
     31          6           0       -1.753104    1.832578   -3.477227
     32          1           0       -0.704028    2.148457   -3.441408
     33          6           0       -1.774493    0.300126   -3.556457
     34          1           0       -2.795438   -0.089443   -3.456478
     35          1           0       -1.387176   -0.036717   -4.523914
     36          1           0       -1.147200   -0.158960   -2.784608
     37          6           0       -2.395060    2.467159   -4.716220
     38          1           0       -3.441923    2.157295   -4.819294
     39          1           0       -2.375697    3.562709   -4.661386
     40          1           0       -1.869381    2.164237   -5.628397
     41          7           0       -0.045245    0.743125    0.111764
     42          1           0       -0.721944    0.152029    0.590208
     43          6           0        1.369556    0.688098    0.402220
     44          1           0        1.693516    1.692473    0.675768
     45          6           0        2.129961    0.289586   -0.881076
     46          6           0        1.659752   -0.242638    1.581107
     47          1           0        0.858076   -0.137565    2.324332
     48          1           0        1.670358   -1.293721    1.269804
     49          8           0        1.593888   -0.331498   -1.793915
     50          6           0        2.981115    0.132544    2.258648
     51          7           0        3.398886   -0.720630    3.218892
     52          1           0        4.254628   -0.510989    3.714774
     53          1           0        2.897056   -1.563794    3.455835
     54          8           0        3.603061    1.156170    1.970014
     55          7           0        3.409504    0.731154   -0.902144
     56          1           0        3.774815    1.138606   -0.043558
     57          6           0        4.316573    0.451027   -2.004247
     58          1           0        3.970306   -0.478729   -2.475477
     59          6           0        5.731190    0.172855   -1.501662
     60          6           0        4.312283    1.581234   -3.050107
     61          1           0        5.243240    1.535965   -3.620743
     62          1           0        4.317968    2.532256   -2.502638
     63          8           0        6.730595    0.339758   -2.159969
     64          6           0        3.097546    1.510393   -3.999569
     65          1           0        3.374516    0.971111   -4.911315
     66          1           0        2.281178    0.937619   -3.547387
     67          6           0        2.569338    2.884398   -4.407354
     68          1           0        3.409260    3.535583   -4.682553
     69          1           0        1.899699    2.801510   -5.272390
     70          7           0        1.836014    3.482478   -3.282724
     71          1           0        1.508345    2.865207   -2.535305
     72          7           0        1.707771    5.627012   -4.178577
     73          1           0        1.174683    6.474522   -4.302676
     74          1           0        2.367869    5.389973   -4.902702
     75          7           0        0.425029    5.045899   -2.332288
     76          1           0        0.275625    6.015061   -2.094581
     77          1           0        0.143825    4.320192   -1.663756
     78          6           0        1.327471    4.711451   -3.266279
     79          8           0        5.743213   -0.317409   -0.242419
     80          1           0        6.680275   -0.482612   -0.022871
 ---------------------------------------------------------------------

 SCF Done:  E(RB3LYP) =  -1866.81636176     A.U. after    2 cycles

 Alpha  occ. eigenvalues --  -19.28563 -19.23679 -19.22690 -19.22186 -19.21591
 Alpha  occ. eigenvalues --  -19.20819 -14.51088 -14.49592 -14.49071 -14.46427
 Alpha  occ. eigenvalues --  -14.46322 -14.46091 -14.44925 -14.39161 -10.46473
 Alpha  occ. eigenvalues --  -10.40965 -10.39946 -10.39652 -10.38209 -10.37922
 Alpha  occ. eigenvalues --  -10.34791 -10.33193 -10.33152 -10.33119 -10.31180
 Alpha  occ. eigenvalues --  -10.30881 -10.28845 -10.28779 -10.28476 -10.28234
 Alpha  occ. eigenvalues --  -10.28173 -10.28120 -10.28063 -10.27884 -10.27822
 Alpha  occ. eigenvalues --  -10.27755 -10.27586 -10.25555 -10.24950  -1.19479
 Alpha  occ. eigenvalues --   -1.15520  -1.14903  -1.13895  -1.13272  -1.12601
 Alpha  occ. eigenvalues --   -1.10431  -1.04451  -1.03620  -1.03082  -1.02587
 Alpha  occ. eigenvalues --   -1.02014  -1.00915  -0.97149  -0.94519  -0.90866
 Alpha  occ. eigenvalues --   -0.90299  -0.89006  -0.86823  -0.85560  -0.84340
 Alpha  occ. eigenvalues --   -0.83523  -0.79953  -0.79704  -0.78515  -0.76970
 Alpha  occ. eigenvalues --   -0.76329  -0.74988  -0.73232  -0.72932  -0.71541
 Alpha  occ. eigenvalues --   -0.70572  -0.69721  -0.68981  -0.68734  -0.68348
 Alpha  occ. eigenvalues --   -0.68123  -0.67336  -0.66978  -0.64996  -0.64234
 Alpha  occ. eigenvalues --   -0.63562  -0.63122  -0.62878  -0.61945  -0.61101
 Alpha  occ. eigenvalues --   -0.60510  -0.60221  -0.59779  -0.58981  -0.58412
 Alpha  occ. eigenvalues --   -0.58060  -0.57111  -0.56229  -0.55973  -0.55186
 Alpha  occ. eigenvalues --   -0.55140  -0.54605  -0.54493  -0.54367  -0.54019
 Alpha  occ. eigenvalues --   -0.53021  -0.52907  -0.52493  -0.52287  -0.51736
 Alpha  occ. eigenvalues --   -0.51574  -0.50884  -0.50745  -0.50186  -0.50083
 Alpha  occ. eigenvalues --   -0.49805  -0.49127  -0.48908  -0.48553  -0.48069
 Alpha  occ. eigenvalues --   -0.47752  -0.47176  -0.46591  -0.46272  -0.45915
 Alpha  occ. eigenvalues --   -0.45737  -0.45119  -0.45054  -0.44770  -0.44451
 Alpha  occ. eigenvalues --   -0.44363  -0.43886  -0.43266  -0.42747  -0.41872
 Alpha  occ. eigenvalues --   -0.41484  -0.41148  -0.41102  -0.40524  -0.38961
 Alpha  occ. eigenvalues --   -0.38709  -0.37423  -0.37353  -0.36872  -0.36111
 Alpha  occ. eigenvalues --   -0.35616  -0.35061  -0.34628  -0.34188  -0.34014
 Alpha  occ. eigenvalues --   -0.33430  -0.30934
 Alpha virt. eigenvalues --   -0.10956  -0.10021  -0.09628  -0.09283  -0.08143
 Alpha virt. eigenvalues --   -0.07999  -0.07223  -0.06967  -0.06664  -0.03771
 Alpha virt. eigenvalues --   -0.02134  -0.01920  -0.01362  -0.00975  -0.00601

 Mulliken charges:
               1
     1  N   -0.707510
     2  H    0.322044
     3  H    0.309548
     4  C   -0.054942
     5  H    0.142366
     6  C    0.652489
     7  C   -0.367107
     8  H    0.156610
     9  H    0.167461
    10  O   -0.561757
    11  C    0.168545
    12  C   -0.191187
    13  H    0.132305
    14  C   -0.206723
    15  H    0.140118
    16  C   -0.130648
    17  H    0.168021
    18  C   -0.145080
    19  H    0.130432
    20  C   -0.140988
    21  H    0.128740
    22  N   -0.596778
    23  H    0.337865
    24  C   -0.068108
    25  H    0.199097
    26  C    0.681000
    27  C   -0.281400
    28  H    0.164159
    29  H    0.124731
    30  O   -0.615953
    31  C   -0.079602
    32  H    0.118970
    33  C   -0.467743
    34  H    0.151431
    35  H    0.154229
    36  H    0.169662
    37  C   -0.447829
    38  H    0.158590
    39  H    0.132187
    40  H    0.148157
    41  N   -0.603765
    42  H    0.385416
    43  C   -0.031658
    44  H    0.202528
    45  C    0.613358
    46  C   -0.430294
    47  H    0.201147
    48  H    0.198383
    49  O   -0.527361
    50  C    0.635763
    51  N   -0.740356
    52  H    0.363190
    53  H    0.357768
    54  O   -0.527326
    55  N   -0.625722
    56  H    0.383531
    57  C   -0.054110
    58  H    0.216274
    59  C    0.576357
    60  C   -0.272117
    61  H    0.193787
    62  H    0.147377
    63  O   -0.445574
    64  C   -0.338446
    65  H    0.175383
    66  H    0.211557
    67  C   -0.157052
    68  H    0.165125
    69  H    0.183230
    70  N   -0.629467
    71  H    0.422513
    72  N   -0.763725
    73  H    0.376005
    74  H    0.383469
    75  N   -0.796687
    76  H    0.357912
    77  H    0.430576
    78  C    0.806108
    79  O   -0.563483
    80  H    0.424982
 Sum of Mulliken charges =   1.00000

 Dipole moment (field-independent basis, Debye):
    X=              5.2471    Y=             15.9744    Z=             -4.7488  Tot=             17.4718
 Quadrupole moment (field-independent basis, Debye-Ang):
   XX=           -201.8640   YY=           -128.1192   ZZ=           -152.7170
   XY=             -5.8670   XZ=             -5.8704   YZ=            -60.0520

 Normal termination of Gaussian 16 at Tue Oct 18 19:31:04 2022.
