 Gaussian 16, Revision C.01,
 Gaussian 16:  ES64L-G16RevC.01  3-Jul-2019

 ----------------------------------------------------------------------
 # B3LYP/6-31G* empiricaldispersion=gd3bj guess=read geom=check nosymm
 integral(ultrafinegrid)
 ----------------------------------------------------------------------

 -----------------------------------------------------
 Candidate Structure: Conf:95 Charge calc in gas phase
 -----------------------------------------------------
 Structure from the checkpoint file:  "conf-95.chk"
 Charge =  1 Multiplicity = 1

                          Input orientation:
 ---------------------------------------------------------------------
 Center     Atomic      Atomic             Coordinates (Angstroms)
 Number     Number       Type             X           Y           Z
 ---------------------------------------------------------------------
      1          7           0       -2.141029    9.972449   -5.166730
      2          6           0       -3.494336    9.979083   -4.467056
      3          6           0       -4.418274    9.054378   -5.271868
      4          8           0       -4.806830    8.005576   -4.782461
      5          6           0       -3.982424   11.413270   -4.239947
      6          6           0       -3.087037   12.160784   -3.270006
      7          6           0       -2.916049   11.700848   -1.957076
      8          6           0       -2.410942   13.315788   -3.675255
      9          6           0       -2.079715   12.376757   -1.069975
     10          6           0       -1.577954   13.996749   -2.785530
     11          6           0       -1.405430   13.527897   -1.483449
     12          1           0       -2.125868    9.261165   -5.933464
     13          1           0       -3.357382    9.474823   -3.511186
     14          1           0       -5.003242   11.343449   -3.844883
     15          1           0       -4.036084   11.953221   -5.191668
     16          1           0       -3.453531   10.818657   -1.615638
     17          1           0       -2.555050   13.668948   -4.690374
     18          1           0       -1.963256   12.012262   -0.053670
     19          1           0       -1.069989   14.900790   -3.110465
     20          1           0       -0.760751   14.059243   -0.789424
     21          1           0       -1.396979    9.747107   -4.504029
     22          7           0       -4.674192    9.443680   -6.556219
     23          6           0       -4.770258    8.410812   -7.592723
     24          6           0       -3.348017    8.375184   -8.190415
     25          8           0       -2.362831    8.308387   -7.447307
     26          6           0       -5.917026    8.672472   -8.567972
     27          6           0       -7.301592    8.751378   -7.898674
     28          6           0       -8.368472    9.048669   -8.958896
     29          6           0       -7.642777    7.480593   -7.109961
     30          1           0       -4.266053   10.311625   -6.896780
     31          1           0       -4.929212    7.466895   -7.067130
     32          1           0       -5.727468    9.616806   -9.096482
     33          1           0       -5.931522    7.865718   -9.315888
     34          1           0       -7.272658    9.592780   -7.194017
     35          1           0       -8.444972    8.225124   -9.680353
     36          1           0       -9.352928    9.175275   -8.496500
     37          1           0       -8.138456    9.964551   -9.516305
     38          1           0       -7.588623    6.592542   -7.753655
     39          1           0       -6.971272    7.331699   -6.258737
     40          1           0       -8.663399    7.539456   -6.717065
     41          7           0       -3.197199    8.511977   -9.542126
     42          6           0       -2.049891    9.312414   -9.954968
     43          6           0       -2.223925   10.716379   -9.294433
     44          8           0       -3.250694   10.983460   -8.658636
     45          6           0       -1.948012    9.339896  -11.488731
     46          6           0       -0.531186    9.611355  -11.992029
     47          7           0       -0.272451    9.175162  -13.245305
     48          8           0        0.317702   10.199980  -11.320492
     49          1           0       -4.055373    8.755162  -10.022655
     50          1           0       -1.151772    8.855313   -9.536454
     51          1           0       -2.291683    8.372606  -11.871288
     52          1           0       -2.614984   10.103800  -11.910559
     53          1           0        0.649108    9.333585  -13.630513
     54          1           0       -0.931107    8.631043  -13.782105
     55          7           0       -1.198514   11.565380   -9.422029
     56          6           0       -1.170616   12.862647   -8.747836
     57          6           0       -1.771697   12.713345   -7.316442
     58          8           0       -2.761288   13.397762   -6.978679
     59          6           0       -1.792109   13.994250   -9.590050
     60          6           0       -1.094897   15.364443   -9.453762
     61          6           0       -1.426341   16.205287   -8.211792
     62          7           0       -1.095345   15.544533   -6.941203
     63          6           0        0.125221   15.384261   -6.434281
     64          7           0        1.087674   16.298385   -6.672372
     65          7           0        0.399797   14.316897   -5.672447
     66          8           0       -1.080564   11.968676   -6.539770
     67          1           0       -1.857759   10.901176   -5.625581
     68          1           0       -0.401214   11.250898   -9.979293
     69          1           0       -0.105390   13.072808   -8.593456
     70          1           0       -2.856844   14.069794   -9.348443
     71          1           0       -1.714763   13.698678  -10.641585
     72          1           0       -0.005651   15.227999   -9.510603
     73          1           0       -1.368800   15.981777  -10.318067
     74          1           0       -0.925269   17.176690   -8.270560
     75          1           0       -2.498856   16.408064   -8.163210
     76          1           0       -1.796170   14.839178   -6.676951
     77          1           0        2.040240   16.138168   -6.382019
     78          1           0        0.845607   17.227320   -6.982608
     79          1           0        1.228152   14.298033   -5.095634
     80          1           0       -0.146016   13.447333   -5.760168
 ---------------------------------------------------------------------

 SCF Done:  E(RB3LYP) =  -1866.80960288     A.U. after    2 cycles

 Alpha  occ. eigenvalues --  -19.22291 -19.22246 -19.21269 -19.20801 -19.20260
 Alpha  occ. eigenvalues --  -19.19650 -14.51402 -14.50717 -14.49096 -14.48356
 Alpha  occ. eigenvalues --  -14.46066 -14.45427 -14.44616 -14.44293 -10.46120
 Alpha  occ. eigenvalues --  -10.39989 -10.38844 -10.38057 -10.37984 -10.37898
 Alpha  occ. eigenvalues --  -10.34419 -10.33992 -10.33521 -10.31914 -10.31651
 Alpha  occ. eigenvalues --  -10.30888 -10.29188 -10.28724 -10.27888 -10.27497
 Alpha  occ. eigenvalues --  -10.26915 -10.26901 -10.26775 -10.26714 -10.26544
 Alpha  occ. eigenvalues --  -10.26374 -10.25473 -10.23379 -10.22815  -1.14860
 Alpha  occ. eigenvalues --   -1.14626  -1.13970  -1.13538  -1.12787  -1.12218
 Alpha  occ. eigenvalues --   -1.06830  -1.04666  -1.03513  -1.02647  -1.02523
 Alpha  occ. eigenvalues --   -1.01490  -1.01197  -1.00804  -0.93704  -0.89884
 Alpha  occ. eigenvalues --   -0.89200  -0.88242  -0.87481  -0.84274  -0.83177
 Alpha  occ. eigenvalues --   -0.82262  -0.81185  -0.79291  -0.77126  -0.75421
 Alpha  occ. eigenvalues --   -0.75097  -0.74184  -0.72954  -0.71862  -0.70791
 Alpha  occ. eigenvalues --   -0.69911  -0.68707  -0.68262  -0.67755  -0.67320
 Alpha  occ. eigenvalues --   -0.67219  -0.66647  -0.66248  -0.64631  -0.64054
 Alpha  occ. eigenvalues --   -0.63903  -0.63525  -0.63128  -0.62613  -0.61272
 Alpha  occ. eigenvalues --   -0.60181  -0.59743  -0.59426  -0.58970  -0.58681
 Alpha  occ. eigenvalues --   -0.56712  -0.56130  -0.55871  -0.55266  -0.54953
 Alpha  occ. eigenvalues --   -0.54417  -0.54210  -0.53559  -0.53507  -0.53008
 Alpha  occ. eigenvalues --   -0.52837  -0.52274  -0.51985  -0.51811  -0.51150
 Alpha  occ. eigenvalues --   -0.50923  -0.50381  -0.50127  -0.49749  -0.49507
 Alpha  occ. eigenvalues --   -0.49242  -0.48722  -0.48231  -0.48177  -0.47630
 Alpha  occ. eigenvalues --   -0.47017  -0.46833  -0.45959  -0.45718  -0.45657
 Alpha  occ. eigenvalues --   -0.45274  -0.44757  -0.44287  -0.43931  -0.43630
 Alpha  occ. eigenvalues --   -0.43494  -0.42865  -0.42119  -0.41866  -0.41378
 Alpha  occ. eigenvalues --   -0.40152  -0.38983  -0.38901  -0.38524  -0.37326
 Alpha  occ. eigenvalues --   -0.37114  -0.36552  -0.36353  -0.36267  -0.35408
 Alpha  occ. eigenvalues --   -0.34819  -0.34564  -0.34006  -0.33517  -0.33193
 Alpha  occ. eigenvalues --   -0.32801  -0.32236
 Alpha virt. eigenvalues --   -0.10963  -0.10501  -0.08596  -0.08036  -0.07910
 Alpha virt. eigenvalues --   -0.07620  -0.06924  -0.06557  -0.06064  -0.03525
 Alpha virt. eigenvalues --   -0.03364  -0.01741  -0.00374  -0.00112   0.00708

 Mulliken charges:
               1
     1  N   -0.833294
     2  C   -0.075775
     3  C    0.584997
     4  O   -0.479959
     5  C   -0.400085
     6  C    0.140925
     7  C   -0.194951
     8  C   -0.197480
     9  C   -0.128549
    10  C   -0.142779
    11  C   -0.128052
    12  H    0.445518
    13  H    0.205145
    14  H    0.193429
    15  H    0.202506
    16  H    0.142623
    17  H    0.164392
    18  H    0.150278
    19  H    0.118619
    20  H    0.142942
    21  H    0.388814
    22  N   -0.597859
    23  C   -0.066063
    24  C    0.617193
    25  O   -0.550096
    26  C   -0.309401
    27  C   -0.067634
    28  C   -0.446049
    29  C   -0.472554
    30  H    0.375787
    31  H    0.219851
    32  H    0.150010
    33  H    0.141656
    34  H    0.142615
    35  H    0.142868
    36  H    0.157015
    37  H    0.139447
    38  H    0.138910
    39  H    0.176708
    40  H    0.154831
    41  N   -0.578709
    42  C   -0.067919
    43  C    0.609130
    44  O   -0.560451
    45  C   -0.408923
    46  C    0.633260
    47  N   -0.738177
    48  O   -0.525777
    49  H    0.344993
    50  H    0.219635
    51  H    0.188794
    52  H    0.196541
    53  H    0.364462
    54  H    0.357110
    55  N   -0.623135
    56  C    0.011483
    57  C    0.590085
    58  O   -0.562504
    59  C   -0.274989
    60  C   -0.280322
    61  C   -0.167811
    62  N   -0.615617
    63  C    0.778649
    64  N   -0.758619
    65  N   -0.788290
    66  O   -0.634776
    67  H    0.450809
    68  H    0.390719
    69  H    0.141682
    70  H    0.187251
    71  H    0.150746
    72  H    0.145377
    73  H    0.167841
    74  H    0.156186
    75  H    0.199137
    76  H    0.417909
    77  H    0.373190
    78  H    0.380519
    79  H    0.360308
    80  H    0.423705
 Sum of Mulliken charges =   1.00000

 Dipole moment (field-independent basis, Debye):
    X=             -2.5638    Y=             62.3430    Z=            -39.5805  Tot=             73.8908
 Quadrupole moment (field-independent basis, Debye-Ang):
   XX=           -202.6108   YY=            638.2379   ZZ=            177.6265
   XY=             -5.2758   XZ=             40.5387   YZ=           -477.3844

 Normal termination of Gaussian 16 at Sat Jul 16 16:54:48 2022.
