 Gaussian 16, Revision C.01,
 Gaussian 16:  ES64L-G16RevC.01  3-Jul-2019

 ----------------------------------------------------------------------
 # B3LYP/6-31G* empiricaldispersion=gd3bj guess=read geom=check nosymm
 integral(ultrafinegrid)
 ----------------------------------------------------------------------

 ------------------------------------------------------
 Candidate Structure: Conf:731 Charge calc in gas phase
 ------------------------------------------------------
 Structure from the checkpoint file:  "conf-731.chk"
 Charge =  1 Multiplicity = 1

                          Input orientation:
 ---------------------------------------------------------------------
 Center     Atomic      Atomic             Coordinates (Angstroms)
 Number     Number       Type             X           Y           Z
 ---------------------------------------------------------------------
      1          7           0       -2.013241   11.472483  -10.305597
      2          6           0       -2.918100   10.479516   -9.766909
      3          6           0       -3.997380   11.074839   -8.844582
      4          8           0       -3.985912   12.261090   -8.471608
      5          6           0       -2.129088    9.369976   -9.023930
      6          6           0       -1.057324    8.743377   -9.880296
      7          6           0       -1.376203    7.759612  -10.822010
      8          6           0        0.275665    9.146863   -9.752628
      9          6           0       -0.387063    7.193428  -11.624943
     10          6           0        1.268890    8.582454  -10.552090
     11          6           0        0.940120    7.604463  -11.491558
     12          1           0       -1.370964   11.799591   -9.585942
     13          1           0       -3.449376   10.011197  -10.609131
     14          1           0       -2.836020    8.601906   -8.686614
     15          1           0       -1.691247    9.807031   -8.123627
     16          1           0       -2.408232    7.430043  -10.925837
     17          1           0        0.529405    9.911049   -9.021902
     18          1           0       -0.650228    6.428226  -12.349604
     19          1           0        2.301011    8.903806  -10.441362
     20          1           0        1.712976    7.161956  -12.113186
     21          1           0       -2.532353   12.276135  -10.650744
     22          7           0       -5.001888   10.258167   -8.456204
     23          6           0       -6.158433   10.741253   -7.697116
     24          6           0       -5.780861   11.249630   -6.296483
     25          8           0       -6.392701   12.172886   -5.785589
     26          6           0       -7.227137    9.644056   -7.590597
     27          6           0       -7.796333    9.138375   -8.929864
     28          6           0       -8.851967    8.058616   -8.660033
     29          6           0       -8.374745   10.274551   -9.781062
     30          1           0       -5.050398    9.332617   -8.861227
     31          1           0       -6.567976   11.620213   -8.200279
     32          1           0       -6.814527    8.799799   -7.021298
     33          1           0       -8.043809   10.057808   -6.987511
     34          1           0       -6.985063    8.664132   -9.505650
     35          1           0       -9.702096    8.478180   -8.108586
     36          1           0       -9.234611    7.641808   -9.597443
     37          1           0       -8.440817    7.234283   -8.066104
     38          1           0       -9.155731   10.813333   -9.230623
     39          1           0       -7.610202   11.001004  -10.076972
     40          1           0       -8.824718    9.878915  -10.697516
     41          7           0       -4.781076   10.552752   -5.655142
     42          6           0       -4.030662   11.233157   -4.611529
     43          6           0       -2.641041   11.511884   -5.205346
     44          8           0       -2.232698   10.864492   -6.175999
     45          6           0       -3.989534   10.443129   -3.294005
     46          6           0       -3.617657   11.324637   -2.103108
     47          7           0       -3.798103   10.757456   -0.887322
     48          8           0       -3.176222   12.469413   -2.224912
     49          1           0       -4.189589    9.993470   -6.262434
     50          1           0       -4.537250   12.183594   -4.426267
     51          1           0       -4.982894   10.010326   -3.132887
     52          1           0       -3.286446    9.602546   -3.358563
     53          1           0       -3.609677   11.312647   -0.063534
     54          1           0       -4.247327    9.861412   -0.769692
     55          7           0       -1.934826   12.541893   -4.704890
     56          6           0       -0.789147   13.061958   -5.440626
     57          6           0       -1.092143   12.905493   -6.943933
     58          8           0       -0.340063   12.383485   -7.756082
     59          6           0        0.571410   12.470355   -5.028242
     60          6           0        1.752074   13.459561   -5.083093
     61          6           0        2.306508   13.829497   -6.466803
     62          7           0        1.346614   14.527608   -7.341692
     63          6           0        0.855981   15.751172   -7.154231
     64          7           0        1.578835   16.683823   -6.511065
     65          7           0       -0.368322   16.056356   -7.611401
     66          8           0       -2.191899   13.584996   -7.280181
     67          1           0       -2.746107   13.101675   -7.991937
     68          1           0       -2.276586   12.973106   -3.846123
     69          1           0       -0.788284   14.142917   -5.245700
     70          1           0        0.774622   11.580442   -5.631916
     71          1           0        0.473553   12.139312   -3.990018
     72          1           0        1.482831   14.380019   -4.546381
     73          1           0        2.592033   13.023148   -4.529663
     74          1           0        3.212479   14.435471   -6.361523
     75          1           0        2.593770   12.932178   -7.018565
     76          1           0        0.791598   13.901872   -7.921640
     77          1           0        1.175619   17.572022   -6.251620
     78          1           0        2.576753   16.576107   -6.403220
     79          1           0       -0.671735   17.017095   -7.684617
     80          1           0       -1.068493   15.329990   -7.759750
 ---------------------------------------------------------------------

 SCF Done:  E(RB3LYP) =  -1866.79227575     A.U. after    2 cycles

 Alpha  occ. eigenvalues --  -19.27964 -19.25174 -19.22382 -19.21981 -19.21368
 Alpha  occ. eigenvalues --  -19.18983 -14.52922 -14.51975 -14.51276 -14.45795
 Alpha  occ. eigenvalues --  -14.45528 -14.45033 -14.43090 -14.38169 -10.48652
 Alpha  occ. eigenvalues --  -10.43543 -10.38916 -10.38429 -10.38068 -10.36066
 Alpha  occ. eigenvalues --  -10.35996 -10.34937 -10.32105 -10.31190 -10.31010
 Alpha  occ. eigenvalues --  -10.30334 -10.29474 -10.29275 -10.26684 -10.26641
 Alpha  occ. eigenvalues --  -10.25945 -10.25068 -10.24202 -10.24187 -10.24121
 Alpha  occ. eigenvalues --  -10.24077 -10.24033 -10.23977 -10.23894  -1.20385
 Alpha  occ. eigenvalues --   -1.17083  -1.14168  -1.13737  -1.12890  -1.11715
 Alpha  occ. eigenvalues --   -1.10916  -1.06170  -1.05325  -1.02598  -1.02232
 Alpha  occ. eigenvalues --   -1.00016  -0.99846  -0.96326  -0.91717  -0.90707
 Alpha  occ. eigenvalues --   -0.89022  -0.87856  -0.86066  -0.84224  -0.82682
 Alpha  occ. eigenvalues --   -0.81777  -0.79609  -0.78644  -0.77963  -0.76728
 Alpha  occ. eigenvalues --   -0.75052  -0.74620  -0.74057  -0.73019  -0.72097
 Alpha  occ. eigenvalues --   -0.70461  -0.69666  -0.68274  -0.67660  -0.66752
 Alpha  occ. eigenvalues --   -0.66497  -0.65810  -0.65751  -0.65443  -0.64458
 Alpha  occ. eigenvalues --   -0.63678  -0.63630  -0.62824  -0.61749  -0.61181
 Alpha  occ. eigenvalues --   -0.59956  -0.59050  -0.58619  -0.57988  -0.57409
 Alpha  occ. eigenvalues --   -0.57151  -0.56571  -0.56265  -0.56106  -0.55873
 Alpha  occ. eigenvalues --   -0.55236  -0.54474  -0.53681  -0.53362  -0.52704
 Alpha  occ. eigenvalues --   -0.52228  -0.51898  -0.51672  -0.51180  -0.50870
 Alpha  occ. eigenvalues --   -0.50618  -0.49982  -0.49779  -0.49328  -0.48721
 Alpha  occ. eigenvalues --   -0.48447  -0.47883  -0.47277  -0.47223  -0.46701
 Alpha  occ. eigenvalues --   -0.46523  -0.46194  -0.45703  -0.45659  -0.45480
 Alpha  occ. eigenvalues --   -0.45281  -0.44984  -0.44492  -0.44160  -0.43783
 Alpha  occ. eigenvalues --   -0.43081  -0.42416  -0.41852  -0.40641  -0.40497
 Alpha  occ. eigenvalues --   -0.39990  -0.39909  -0.39702  -0.39646  -0.39190
 Alpha  occ. eigenvalues --   -0.38921  -0.36892  -0.36422  -0.36137  -0.35707
 Alpha  occ. eigenvalues --   -0.35562  -0.35425  -0.33431  -0.32060  -0.31128
 Alpha  occ. eigenvalues --   -0.30066  -0.29349
 Alpha virt. eigenvalues --   -0.13363  -0.11979  -0.08661  -0.07938  -0.07728
 Alpha virt. eigenvalues --   -0.06707  -0.05353  -0.05248  -0.05243  -0.05057
 Alpha virt. eigenvalues --   -0.02514  -0.02077  -0.01366  -0.00938  -0.00319

 Mulliken charges:
               1
     1  N   -0.723883
     2  C   -0.069432
     3  C    0.637978
     4  O   -0.581220
     5  C   -0.415077
     6  C    0.217035
     7  C   -0.180533
     8  C   -0.178286
     9  C   -0.127198
    10  C   -0.130148
    11  C   -0.127714
    12  H    0.328395
    13  H    0.160774
    14  H    0.133794
    15  H    0.203867
    16  H    0.112332
    17  H    0.123367
    18  H    0.137562
    19  H    0.125649
    20  H    0.137247
    21  H    0.300718
    22  N   -0.631021
    23  C   -0.021023
    24  C    0.603558
    25  O   -0.501901
    26  C   -0.304857
    27  C   -0.082734
    28  C   -0.443321
    29  C   -0.450780
    30  H    0.347824
    31  H    0.194614
    32  H    0.143368
    33  H    0.177052
    34  H    0.112073
    35  H    0.154267
    36  H    0.157295
    37  H    0.145671
    38  H    0.157025
    39  H    0.145759
    40  H    0.158801
    41  N   -0.604234
    42  C   -0.067283
    43  C    0.616916
    44  O   -0.545329
    45  C   -0.386338
    46  C    0.626953
    47  N   -0.739447
    48  O   -0.535045
    49  H    0.349899
    50  H    0.217005
    51  H    0.196512
    52  H    0.188623
    53  H    0.359838
    54  H    0.355214
    55  N   -0.613801
    56  C    0.020632
    57  C    0.584281
    58  O   -0.509046
    59  C   -0.276213
    60  C   -0.289107
    61  C   -0.168219
    62  N   -0.596332
    63  C    0.785193
    64  N   -0.751916
    65  N   -0.773933
    66  O   -0.611454
    67  H    0.463915
    68  H    0.387573
    69  H    0.152133
    70  H    0.190600
    71  H    0.173196
    72  H    0.148884
    73  H    0.179359
    74  H    0.168365
    75  H    0.208026
    76  H    0.395268
    77  H    0.381722
    78  H    0.387589
    79  H    0.375832
    80  H    0.407275
 Sum of Mulliken charges =   1.00000

 Dipole moment (field-independent basis, Debye):
    X=             -3.0544    Y=             64.9609    Z=            -28.2154  Tot=             70.8897
 Quadrupole moment (field-independent basis, Debye-Ang):
   XX=           -170.3056   YY=            724.8408   ZZ=            -20.7084
   XY=             19.0669   XZ=             20.6874   YZ=           -394.5957

 Normal termination of Gaussian 16 at Sat Jul 16 16:54:42 2022.
