 Gaussian 16, Revision C.01,
 Gaussian 16:  ES64L-G16RevC.01  3-Jul-2019

 ----------------------------------------------------------------------
 # B3LYP/6-31G* empiricaldispersion=gd3bj guess=read geom=check nosymm
 integral(ultrafinegrid)
 ----------------------------------------------------------------------

 ------------------------------------------------------
 Candidate Structure: Conf:777 Charge calc in gas phase
 ------------------------------------------------------
 Structure from the checkpoint file:  "conf-777.chk"
 Charge =  1 Multiplicity = 1

                          Input orientation:
 ---------------------------------------------------------------------
 Center     Atomic      Atomic             Coordinates (Angstroms)
 Number     Number       Type             X           Y           Z
 ---------------------------------------------------------------------
      1          7           0       -0.253995    4.345971    2.023234
      2          1           0        0.414903    3.628951    2.304530
      3          1           0        0.032588    4.623837    1.085721
      4          6           0       -1.591174    3.769481    1.925504
      5          1           0       -1.800294    3.253835    2.869057
      6          6           0       -1.681897    2.781306    0.758950
      7          6           0       -2.659348    4.881351    1.765038
      8          1           0       -2.555143    5.536609    2.635557
      9          1           0       -3.653363    4.422138    1.811113
     10          8           0       -1.201262    3.078036   -0.339546
     11          6           0       -2.534373    5.690468    0.495961
     12          6           0       -1.546771    6.677580    0.367095
     13          1           0       -0.874155    6.859497    1.199745
     14          6           0       -3.409989    5.479239   -0.576388
     15          1           0       -4.188615    4.726228   -0.487932
     16          6           0       -1.432040    7.427296   -0.804734
     17          1           0       -0.670794    8.199377   -0.877597
     18          6           0       -3.314877    6.242025   -1.741207
     19          1           0       -4.042453    6.099530   -2.537497
     20          6           0       -2.321498    7.219376   -1.860334
     21          1           0       -2.262132    7.835282   -2.754263
     22          7           0       -2.331033    1.605171    0.980958
     23          1           0       -2.475982    1.391762    1.959855
     24          6           0       -2.032384    0.422710    0.170189
     25          1           0       -2.686948   -0.370520    0.547836
     26          6           0       -0.574685   -0.000704    0.486826
     27          6           0       -2.299622    0.601392   -1.338657
     28          1           0       -1.455794    1.129379   -1.786614
     29          1           0       -2.339389   -0.396015   -1.796231
     30          8           0        0.013829    0.466431    1.468971
     31          6           0       -3.597380    1.349157   -1.679813
     32          1           0       -3.557861    2.323005   -1.178589
     33          6           0       -3.659626    1.606029   -3.190610
     34          1           0       -3.674038    0.665807   -3.755104
     35          1           0       -4.563385    2.166512   -3.457313
     36          1           0       -2.786057    2.179825   -3.528672
     37          6           0       -4.843925    0.603465   -1.192108
     38          1           0       -4.905283   -0.396039   -1.640766
     39          1           0       -4.843928    0.487603   -0.103020
     40          1           0       -5.756854    1.145047   -1.463763
     41          7           0       -0.022997   -0.901893   -0.345918
     42          1           0       -0.459319   -1.172218   -1.229733
     43          6           0        1.356198   -1.376653   -0.202945
     44          1           0        1.550761   -1.532494    0.862563
     45          6           0        2.312649   -0.297812   -0.753451
     46          6           0        1.536020   -2.689170   -0.971538
     47          1           0        2.573121   -3.018967   -0.873165
     48          1           0        0.899006   -3.454867   -0.514650
     49          8           0        2.826015   -0.394420   -1.865467
     50          6           0        1.122006   -2.580626   -2.438415
     51          7           0        1.969373   -3.134066   -3.339710
     52          1           0        1.743455   -2.995641   -4.316491
     53          1           0        2.947231   -3.237257   -3.109990
     54          8           0        0.030629   -2.107707   -2.768889
     55          7           0        2.472868    0.775457    0.066079
     56          1           0        1.848344    0.833526    0.873685
     57          6           0        2.889614    2.050945   -0.500165
     58          1           0        3.778254    1.903148   -1.115835
     59          6           0        3.191383    2.996491    0.646517
     60          6           0        1.711166    2.602291   -1.333513
     61          1           0        0.843216    2.634609   -0.672124
     62          1           0        1.503218    1.851701   -2.103106
     63          8           0        2.588860    3.011250    1.698166
     64          6           0        1.869727    3.969319   -2.007801
     65          1           0        2.273836    4.715677   -1.313271
     66          1           0        2.564909    3.901745   -2.854274
     67          6           0        0.481781    4.399915   -2.488159
     68          1           0       -0.012532    3.559890   -2.985350
     69          1           0       -0.145442    4.690893   -1.641208
     70          7           0        0.553738    5.495637   -3.471027
     71          1           0        1.346541    6.123166   -3.432248
     72          7           0       -1.580642    5.114149   -4.260380
     73          1           0       -2.266737    5.209497   -4.995579
     74          1           0       -1.939644    4.882970   -3.337938
     75          7           0       -0.175285    6.594865   -5.379550
     76          1           0       -0.932730    6.941793   -5.949335
     77          1           0        0.764254    6.837204   -5.659714
     78          6           0       -0.400999    5.746011   -4.359186
     79          8           0        4.166385    3.875944    0.340104
     80          1           0        4.274234    4.458471    1.117567
 ---------------------------------------------------------------------

 SCF Done:  E(RB3LYP) =  -1866.79611526     A.U. after    1 cycles

 Alpha  occ. eigenvalues --  -19.29085 -19.23330 -19.20769 -19.20240 -19.19755
 Alpha  occ. eigenvalues --  -19.19508 -14.53096 -14.52619 -14.52180 -14.44611
 Alpha  occ. eigenvalues --  -14.43898 -14.43126 -14.43063 -14.38734 -10.48829
 Alpha  occ. eigenvalues --  -10.41233 -10.37182 -10.37106 -10.37016 -10.36485
 Alpha  occ. eigenvalues --  -10.34375 -10.32319 -10.32065 -10.31986 -10.30470
 Alpha  occ. eigenvalues --  -10.29994 -10.28721 -10.28661 -10.28572 -10.28387
 Alpha  occ. eigenvalues --  -10.28060 -10.28054 -10.27778 -10.27631 -10.27200
 Alpha  occ. eigenvalues --  -10.26522 -10.26424 -10.25431 -10.24501  -1.19954
 Alpha  occ. eigenvalues --   -1.17506  -1.12967  -1.12095  -1.11287  -1.11070
 Alpha  occ. eigenvalues --   -1.10825  -1.06652  -1.05602  -1.01259  -1.00889
 Alpha  occ. eigenvalues --   -1.00367  -0.98050  -0.96748  -0.94479  -0.91091
 Alpha  occ. eigenvalues --   -0.89166  -0.87024  -0.86512  -0.85236  -0.83663
 Alpha  occ. eigenvalues --   -0.82985  -0.80849  -0.79967  -0.78050  -0.75973
 Alpha  occ. eigenvalues --   -0.75790  -0.75091  -0.74434  -0.72625  -0.71669
 Alpha  occ. eigenvalues --   -0.70797  -0.69738  -0.69168  -0.67712  -0.66901
 Alpha  occ. eigenvalues --   -0.66594  -0.66167  -0.65722  -0.65343  -0.65209
 Alpha  occ. eigenvalues --   -0.63657  -0.62265  -0.61379  -0.61200  -0.60773
 Alpha  occ. eigenvalues --   -0.59696  -0.59416  -0.58477  -0.58259  -0.57467
 Alpha  occ. eigenvalues --   -0.57107  -0.56871  -0.55944  -0.55405  -0.55131
 Alpha  occ. eigenvalues --   -0.54708  -0.54316  -0.54040  -0.53383  -0.52684
 Alpha  occ. eigenvalues --   -0.52103  -0.51683  -0.51192  -0.51080  -0.50949
 Alpha  occ. eigenvalues --   -0.50618  -0.50316  -0.49911  -0.49541  -0.49311
 Alpha  occ. eigenvalues --   -0.48599  -0.48056  -0.47711  -0.47502  -0.47029
 Alpha  occ. eigenvalues --   -0.46559  -0.46544  -0.45896  -0.45816  -0.45601
 Alpha  occ. eigenvalues --   -0.45336  -0.45160  -0.44940  -0.44129  -0.44029
 Alpha  occ. eigenvalues --   -0.43809  -0.43503  -0.42948  -0.42868  -0.41624
 Alpha  occ. eigenvalues --   -0.41010  -0.40896  -0.40833  -0.40306  -0.39842
 Alpha  occ. eigenvalues --   -0.37008  -0.36169  -0.35622  -0.35145  -0.34588
 Alpha  occ. eigenvalues --   -0.34384  -0.34239  -0.33565  -0.33294  -0.33166
 Alpha  occ. eigenvalues --   -0.31896  -0.30880
 Alpha virt. eigenvalues --   -0.13324  -0.09924  -0.09578  -0.09113  -0.08648
 Alpha virt. eigenvalues --   -0.07675  -0.06769  -0.05361  -0.05128  -0.04856
 Alpha virt. eigenvalues --   -0.04478  -0.03462  -0.02039  -0.01074  -0.00719

 Mulliken charges:
               1
     1  N   -0.720546
     2  H    0.347387
     3  H    0.299823
     4  C   -0.074666
     5  H    0.149439
     6  C    0.627323
     7  C   -0.346605
     8  H    0.183441
     9  H    0.154479
    10  O   -0.557328
    11  C    0.173011
    12  C   -0.192170
    13  H    0.169098
    14  C   -0.168472
    15  H    0.147086
    16  C   -0.136733
    17  H    0.138654
    18  C   -0.182999
    19  H    0.132247
    20  C   -0.147118
    21  H    0.120773
    22  N   -0.572198
    23  H    0.342766
    24  C   -0.086545
    25  H    0.183776
    26  C    0.635481
    27  C   -0.279552
    28  H    0.157192
    29  H    0.158112
    30  O   -0.561834
    31  C   -0.072422
    32  H    0.138435
    33  C   -0.452679
    34  H    0.160364
    35  H    0.140134
    36  H    0.115351
    37  C   -0.452523
    38  H    0.150195
    39  H    0.147004
    40  H    0.149324
    41  N   -0.637532
    42  H    0.404356
    43  C   -0.077566
    44  H    0.189979
    45  C    0.632765
    46  C   -0.376161
    47  H    0.168960
    48  H    0.195275
    49  O   -0.534890
    50  C    0.631406
    51  N   -0.725530
    52  H    0.348476
    53  H    0.352731
    54  O   -0.541235
    55  N   -0.621247
    56  H    0.392695
    57  C   -0.033896
    58  H    0.195343
    59  C    0.585467
    60  C   -0.327651
    61  H    0.210996
    62  H    0.181128
    63  O   -0.460489
    64  C   -0.311401
    65  H    0.159609
    66  H    0.158435
    67  C   -0.164633
    68  H    0.192843
    69  H    0.230850
    70  N   -0.597543
    71  H    0.361976
    72  N   -0.747926
    73  H    0.372848
    74  H    0.406442
    75  N   -0.763538
    76  H    0.381280
    77  H    0.382718
    78  C    0.808681
    79  O   -0.562853
    80  H    0.422330
 Sum of Mulliken charges =   1.00000

 Dipole moment (field-independent basis, Debye):
    X=             -0.9811    Y=             20.6922    Z=            -16.1498  Tot=             26.2668
 Quadrupole moment (field-independent basis, Debye-Ang):
   XX=           -193.3853   YY=            -72.2950   ZZ=           -139.7968
   XY=             -9.3138   XZ=              0.7784   YZ=            -98.8271

 Normal termination of Gaussian 16 at Tue Oct 18 19:30:36 2022.
