 Gaussian 16, Revision C.01,
 Gaussian 16:  ES64L-G16RevC.01  3-Jul-2019

 ----------------------------------------------------------------------
 # B3LYP/6-31G* empiricaldispersion=gd3bj guess=read geom=check nosymm
 integral(ultrafinegrid)
 ----------------------------------------------------------------------

 ------------------------------------------------------
 Candidate Structure: Conf:962 Charge calc in gas phase
 ------------------------------------------------------
 Structure from the checkpoint file:  "conf-962.chk"
 Charge =  1 Multiplicity = 1

                          Input orientation:
 ---------------------------------------------------------------------
 Center     Atomic      Atomic             Coordinates (Angstroms)
 Number     Number       Type             X           Y           Z
 ---------------------------------------------------------------------
      1          7           0       -4.780500   -1.522616    3.232740
      2          1           0       -5.392847   -2.283097    2.943489
      3          1           0       -3.839088   -1.867645    3.049217
      4          6           0       -5.015564   -0.367574    2.378590
      5          1           0       -6.099644   -0.249036    2.259811
      6          6           0       -4.394136   -0.544420    0.980725
      7          6           0       -4.490563    0.930656    3.050883
      8          1           0       -4.906445    0.934736    4.062539
      9          1           0       -4.903920    1.807559    2.538250
     10          8           0       -3.776635   -1.571118    0.680387
     11          6           0       -2.984260    1.051162    3.107841
     12          6           0       -2.238079    0.283787    4.015036
     13          1           0       -2.757358   -0.405775    4.673842
     14          6           0       -2.303798    1.951392    2.277622
     15          1           0       -2.861404    2.556884    1.568261
     16          6           0       -0.852527    0.427198    4.099415
     17          1           0       -0.292704   -0.162282    4.819921
     18          6           0       -0.920562    2.107021    2.371774
     19          1           0       -0.418680    2.850554    1.758742
     20          6           0       -0.189646    1.350397    3.287803
     21          1           0        0.883519    1.484955    3.372532
     22          7           0       -4.528466    0.495949    0.118987
     23          1           0       -4.988628    1.338242    0.434062
     24          6           0       -3.924479    0.515854   -1.214309
     25          1           0       -4.061811   -0.482616   -1.639216
     26          6           0       -2.406773    0.755016   -1.083723
     27          6           0       -4.590106    1.566595   -2.099397
     28          1           0       -4.368834    2.561599   -1.693376
     29          1           0       -4.102163    1.529063   -3.081244
     30          8           0       -1.878865    1.854413   -1.350707
     31          6           0       -6.108242    1.391558   -2.281792
     32          1           0       -6.590114    1.489198   -1.297811
     33          6           0       -6.648528    2.512700   -3.177943
     34          1           0       -6.218191    2.447463   -4.185027
     35          1           0       -7.736841    2.445122   -3.276465
     36          1           0       -6.406818    3.502429   -2.773516
     37          6           0       -6.471558    0.012737   -2.846215
     38          1           0       -5.963173   -0.164356   -3.802535
     39          1           0       -6.200221   -0.799285   -2.162890
     40          1           0       -7.549222   -0.058025   -3.026094
     41          7           0       -1.724573   -0.305985   -0.634687
     42          1           0       -2.268842   -1.129992   -0.376260
     43          6           0       -0.296108   -0.275407   -0.457384
     44          1           0       -0.024713    0.756523   -0.273633
     45          6           0        0.411372   -0.742978   -1.745572
     46          6           0        0.159835   -1.069984    0.775366
     47          1           0       -0.601218   -0.966731    1.557712
     48          1           0        0.268865   -2.137046    0.551685
     49          8           0       -0.172145   -1.332665   -2.640185
     50          6           0        1.471657   -0.527152    1.340463
     51          7           0        2.008616   -1.241403    2.343942
     52          1           0        2.911590   -0.963585    2.704896
     53          1           0        1.656046   -2.153857    2.594805
     54          8           0        1.999208    0.524354    0.939648
     55          7           0        1.739071   -0.410196   -1.786831
     56          1           0        2.134699   -0.059299   -0.918385
     57          6           0        2.652822   -1.105099   -2.665615
     58          1           0        2.046878   -1.597894   -3.433221
     59          6           0        3.363808   -2.202092   -1.871534
     60          6           0        3.635275   -0.131673   -3.341296
     61          1           0        4.338407   -0.710380   -3.944664
     62          1           0        4.230633    0.363542   -2.562211
     63          8           0        3.168036   -2.439621   -0.698882
     64          6           0        2.901494    0.912648   -4.211285
     65          1           0        3.271975    0.872515   -5.241337
     66          1           0        1.835766    0.664013   -4.258970
     67          6           0        3.071734    2.364014   -3.742579
     68          1           0        4.131374    2.628516   -3.712216
     69          1           0        2.606530    3.057481   -4.454529
     70          7           0        2.551109    2.636315   -2.396934
     71          1           0        3.208256    2.852469   -1.660839
     72          7           0        0.286176    2.595671   -2.963393
     73          1           0       -0.659324    2.365493   -2.640947
     74          1           0        0.489323    2.591287   -3.950360
     75          7           0        0.921908    2.796053   -0.752691
     76          1           0       -0.080437    2.741424   -0.576816
     77          1           0        1.481149    2.288998   -0.065308
     78          6           0        1.257605    2.654737   -2.053934
     79          8           0        4.236174   -2.880519   -2.637422
     80          1           0        4.639160   -3.573295   -2.079489
 ---------------------------------------------------------------------

 SCF Done:  E(RB3LYP) =  -1866.82527118     A.U. after    2 cycles

 Alpha  occ. eigenvalues --  -19.29729 -19.24291 -19.23956 -19.23330 -19.21789
 Alpha  occ. eigenvalues --  -19.21631 -14.50852 -14.49460 -14.48248 -14.47237
 Alpha  occ. eigenvalues --  -14.46282 -14.46091 -14.45326 -14.39222 -10.46052
 Alpha  occ. eigenvalues --  -10.42154 -10.41381 -10.39640 -10.38582 -10.38130
 Alpha  occ. eigenvalues --  -10.35716 -10.33883 -10.33646 -10.33018 -10.31240
 Alpha  occ. eigenvalues --  -10.30982 -10.30481 -10.30131 -10.28247 -10.27837
 Alpha  occ. eigenvalues --  -10.27742 -10.27600 -10.27511 -10.27447 -10.27408
 Alpha  occ. eigenvalues --  -10.27139 -10.27102 -10.24676 -10.24549  -1.20739
 Alpha  occ. eigenvalues --   -1.15433  -1.15020  -1.14558  -1.13577  -1.13250
 Alpha  occ. eigenvalues --   -1.11777  -1.04692  -1.03450  -1.02932  -1.02496
 Alpha  occ. eigenvalues --   -1.02361  -1.02091  -0.97225  -0.93956  -0.91633
 Alpha  occ. eigenvalues --   -0.90138  -0.89252  -0.86444  -0.86302  -0.84101
 Alpha  occ. eigenvalues --   -0.82969  -0.80579  -0.80078  -0.79129  -0.76562
 Alpha  occ. eigenvalues --   -0.75721  -0.74443  -0.73440  -0.72843  -0.72006
 Alpha  occ. eigenvalues --   -0.71050  -0.69958  -0.69133  -0.68815  -0.68404
 Alpha  occ. eigenvalues --   -0.68177  -0.67342  -0.66142  -0.65145  -0.64643
 Alpha  occ. eigenvalues --   -0.63882  -0.63612  -0.62625  -0.61427  -0.61040
 Alpha  occ. eigenvalues --   -0.60871  -0.59743  -0.59336  -0.59164  -0.58718
 Alpha  occ. eigenvalues --   -0.58402  -0.57733  -0.57165  -0.56888  -0.56460
 Alpha  occ. eigenvalues --   -0.55426  -0.54922  -0.54479  -0.54215  -0.53640
 Alpha  occ. eigenvalues --   -0.53618  -0.53104  -0.52789  -0.52516  -0.52436
 Alpha  occ. eigenvalues --   -0.51410  -0.51373  -0.50800  -0.50493  -0.50292
 Alpha  occ. eigenvalues --   -0.50031  -0.49824  -0.49015  -0.48951  -0.47861
 Alpha  occ. eigenvalues --   -0.47552  -0.47503  -0.46882  -0.46558  -0.45982
 Alpha  occ. eigenvalues --   -0.45833  -0.45747  -0.45664  -0.45425  -0.45267
 Alpha  occ. eigenvalues --   -0.44226  -0.43795  -0.42398  -0.41924  -0.41668
 Alpha  occ. eigenvalues --   -0.40989  -0.40663  -0.40545  -0.40389  -0.39734
 Alpha  occ. eigenvalues --   -0.38935  -0.38607  -0.37894  -0.37771  -0.36994
 Alpha  occ. eigenvalues --   -0.36140  -0.35510  -0.34841  -0.34668  -0.33612
 Alpha  occ. eigenvalues --   -0.33295  -0.31987
 Alpha virt. eigenvalues --   -0.11069  -0.10175  -0.09656  -0.09323  -0.08974
 Alpha virt. eigenvalues --   -0.08546  -0.07720  -0.07265  -0.05772  -0.04274
 Alpha virt. eigenvalues --   -0.03266  -0.02464  -0.01579  -0.01203   0.00320

 Mulliken charges:
               1
     1  N   -0.690443
     2  H    0.318080
     3  H    0.309730
     4  C   -0.094836
     5  H    0.171041
     6  C    0.615219
     7  C   -0.351321
     8  H    0.193349
     9  H    0.136368
    10  O   -0.550740
    11  C    0.157408
    12  C   -0.190246
    13  H    0.167679
    14  C   -0.183896
    15  H    0.125246
    16  C   -0.140931
    17  H    0.142244
    18  C   -0.147337
    19  H    0.127446
    20  C   -0.141623
    21  H    0.143839
    22  N   -0.597380
    23  H    0.342712
    24  C   -0.066923
    25  H    0.197161
    26  C    0.652940
    27  C   -0.288564
    28  H    0.152009
    29  H    0.151020
    30  O   -0.605042
    31  C   -0.076092
    32  H    0.120241
    33  C   -0.444142
    34  H    0.147640
    35  H    0.159353
    36  H    0.144704
    37  C   -0.455644
    38  H    0.148398
    39  H    0.151296
    40  H    0.161436
    41  N   -0.586471
    42  H    0.393510
    43  C   -0.062427
    44  H    0.165275
    45  C    0.602352
    46  C   -0.406166
    47  H    0.224103
    48  H    0.199701
    49  O   -0.502577
    50  C    0.661697
    51  N   -0.728536
    52  H    0.363441
    53  H    0.364254
    54  O   -0.575688
    55  N   -0.618467
    56  H    0.360195
    57  C   -0.082541
    58  H    0.222330
    59  C    0.591870
    60  C   -0.275648
    61  H    0.194274
    62  H    0.138742
    63  O   -0.472998
    64  C   -0.274664
    65  H    0.177921
    66  H    0.169916
    67  C   -0.185005
    68  H    0.192518
    69  H    0.178747
    70  N   -0.583880
    71  H    0.367218
    72  N   -0.766977
    73  H    0.424227
    74  H    0.370457
    75  N   -0.793507
    76  H    0.391578
    77  H    0.392413
    78  C    0.782882
    79  O   -0.553521
    80  H    0.428050
 Sum of Mulliken charges =   1.00000

 Dipole moment (field-independent basis, Debye):
    X=              3.1697    Y=              4.1671    Z=             -4.7537  Tot=              7.0717
 Quadrupole moment (field-independent basis, Debye-Ang):
   XX=           -146.8425   YY=           -203.5680   ZZ=           -186.3982
   XY=             -7.8351   XZ=            -15.3646   YZ=            -26.4638

 Normal termination of Gaussian 16 at Tue Oct 18 19:39:07 2022.
