 Gaussian 16, Revision C.01,
 Gaussian 16:  ES64L-G16RevC.01  3-Jul-2019

 ----------------------------------------------------------------------
 # B3LYP/6-31G* empiricaldispersion=gd3bj guess=read geom=check nosymm
 integral(ultrafinegrid)
 ----------------------------------------------------------------------

 ------------------------------------------------------
 Candidate Structure: Conf:320 Charge calc in gas phase
 ------------------------------------------------------
 Structure from the checkpoint file:  "conf-320.chk"
 Charge =  1 Multiplicity = 1

                          Input orientation:
 ---------------------------------------------------------------------
 Center     Atomic      Atomic             Coordinates (Angstroms)
 Number     Number       Type             X           Y           Z
 ---------------------------------------------------------------------
      1          7           0       -1.759680    9.969956   -4.852929
      2          6           0       -1.056104   11.232961   -5.149024
      3          6           0       -2.038275   12.365818   -4.785249
      4          8           0       -3.102481   12.115111   -4.232120
      5          6           0       -0.626234   11.302506   -6.621679
      6          6           0        0.323731   10.233318   -7.123292
      7          6           0        1.130177    9.448874   -6.290778
      8          6           0        0.454900   10.075644   -8.512560
      9          6           0        2.046416    8.537883   -6.826932
     10          6           0        1.384724    9.190779   -9.052240
     11          6           0        2.186009    8.412404   -8.209369
     12          1           0       -2.108081   10.002186   -3.895110
     13          1           0       -0.170627   11.348873   -4.503710
     14          1           0       -0.135102   12.271225   -6.784905
     15          1           0       -1.520736   11.314567   -7.248422
     16          1           0        1.077642    9.561045   -5.211016
     17          1           0       -0.170088   10.674636   -9.170008
     18          1           0        2.668494    7.947884   -6.160152
     19          1           0        1.486979    9.107996  -10.130999
     20          1           0        2.926185    7.734390   -8.625557
     21          1           0       -1.127191    9.179068   -4.950123
     22          7           0       -1.670111   13.633678   -5.111988
     23          6           0       -2.530144   14.772234   -4.772550
     24          6           0       -3.921573   14.615119   -5.416346
     25          8           0       -4.931217   15.010305   -4.854151
     26          6           0       -1.883593   16.103889   -5.185694
     27          6           0       -0.808490   16.659135   -4.232292
     28          6           0        0.401585   15.731629   -4.055138
     29          6           0       -0.357503   18.041591   -4.720632
     30          1           0       -0.747821   13.817474   -5.478276
     31          1           0       -2.728008   14.770166   -3.695857
     32          1           0       -1.474423   16.006624   -6.202786
     33          1           0       -2.691361   16.841015   -5.250693
     34          1           0       -1.282733   16.782427   -3.248187
     35          1           0        0.878241   15.516412   -5.022867
     36          1           0        1.159894   16.206241   -3.423623
     37          1           0        0.130031   14.782672   -3.581396
     38          1           0        0.359968   18.488698   -4.024512
     39          1           0        0.129884   17.970328   -5.701480
     40          1           0       -1.206146   18.727626   -4.817260
     41          7           0       -3.930343   14.045039   -6.658390
     42          6           0       -5.107082   13.309038   -7.083292
     43          6           0       -4.578418   12.080411   -7.840200
     44          8           0       -3.378235   11.976056   -8.131601
     45          6           0       -6.102232   14.189473   -7.865544
     46          6           0       -7.529822   13.656403   -7.811694
     47          7           0       -8.500232   14.579935   -8.004493
     48          8           0       -7.800701   12.466367   -7.628974
     49          1           0       -3.068652   13.626670   -6.992697
     50          1           0       -5.623498   12.942407   -6.188413
     51          1           0       -6.064975   15.185028   -7.414582
     52          1           0       -5.797276   14.295948   -8.914270
     53          1           0       -9.464075   14.282676   -7.930445
     54          1           0       -8.304710   15.569839   -8.009477
     55          7           0       -5.454820   11.089325   -8.076079
     56          6           0       -4.960009    9.757073   -8.388408
     57          6           0       -3.779392    9.438274   -7.440397
     58          8           0       -2.734955    8.889706   -7.818118
     59          6           0       -4.612156    9.578306   -9.879687
     60          6           0       -4.569737    8.102381  -10.359734
     61          6           0       -3.286483    7.725222  -11.114861
     62          7           0       -2.156237    7.837179  -10.185589
     63          6           0       -1.270257    6.900866   -9.879558
     64          7           0       -0.857919    5.989470  -10.779961
     65          7           0       -0.766913    6.854560   -8.628407
     66          8           0       -3.998553    9.779178   -6.208007
     67          1           0       -3.094791    9.782741   -5.665394
     68          1           0       -6.429205   11.258797   -7.809922
     69          1           0       -5.766229    9.063137   -8.121126
     70          1           0       -3.668064   10.099206  -10.070467
     71          1           0       -5.373033   10.120938  -10.446466
     72          1           0       -4.670479    7.417279   -9.509023
     73          1           0       -5.419808    7.901358  -11.019508
     74          1           0       -3.349702    6.698076  -11.489204
     75          1           0       -3.128565    8.390598  -11.971151
     76          1           0       -2.337190    8.485146   -9.401294
     77          1           0       -0.403844    5.140712  -10.476315
     78          1           0       -1.128108    6.061518  -11.749105
     79          1           0        0.218346    6.651054   -8.510231
     80          1           0       -1.138232    7.542079   -7.975842
 ---------------------------------------------------------------------

 SCF Done:  E(RB3LYP) =  -1866.81815505     A.U. after    2 cycles

 Alpha  occ. eigenvalues --  -19.25713 -19.24027 -19.21178 -19.20505 -19.20324
 Alpha  occ. eigenvalues --  -19.17918 -14.50861 -14.48692 -14.48671 -14.44989
 Alpha  occ. eigenvalues --  -14.44556 -14.43980 -14.43954 -14.41797 -10.45978
 Alpha  occ. eigenvalues --  -10.41774 -10.37773 -10.37663 -10.37586 -10.34990
 Alpha  occ. eigenvalues --  -10.34796 -10.33612 -10.33159 -10.31309 -10.30633
 Alpha  occ. eigenvalues --  -10.30066 -10.29939 -10.29068 -10.29044 -10.28934
 Alpha  occ. eigenvalues --  -10.28895 -10.28814 -10.28617 -10.28517 -10.27985
 Alpha  occ. eigenvalues --  -10.26394 -10.26118 -10.24751 -10.23622  -1.18994
 Alpha  occ. eigenvalues --   -1.14747  -1.13092  -1.12762  -1.11831  -1.09954
 Alpha  occ. eigenvalues --   -1.09813  -1.04200  -1.02736  -1.01538  -1.01399
 Alpha  occ. eigenvalues --   -1.00714  -0.98976  -0.98752  -0.95419  -0.90594
 Alpha  occ. eigenvalues --   -0.88834  -0.87743  -0.86731  -0.84679  -0.84332
 Alpha  occ. eigenvalues --   -0.83401  -0.81012  -0.79160  -0.77022  -0.75932
 Alpha  occ. eigenvalues --   -0.75421  -0.74708  -0.72333  -0.71927  -0.71699
 Alpha  occ. eigenvalues --   -0.70429  -0.69555  -0.68311  -0.67747  -0.67286
 Alpha  occ. eigenvalues --   -0.67146  -0.65566  -0.64259  -0.64165  -0.63791
 Alpha  occ. eigenvalues --   -0.63037  -0.62964  -0.62154  -0.61662  -0.61147
 Alpha  occ. eigenvalues --   -0.60722  -0.59900  -0.58940  -0.58587  -0.58084
 Alpha  occ. eigenvalues --   -0.57546  -0.56068  -0.55560  -0.55247  -0.54786
 Alpha  occ. eigenvalues --   -0.54442  -0.54114  -0.53817  -0.53487  -0.52937
 Alpha  occ. eigenvalues --   -0.52817  -0.52182  -0.51941  -0.51681  -0.51360
 Alpha  occ. eigenvalues --   -0.50930  -0.50735  -0.50191  -0.49637  -0.49083
 Alpha  occ. eigenvalues --   -0.49035  -0.48457  -0.48093  -0.47849  -0.47571
 Alpha  occ. eigenvalues --   -0.46867  -0.46443  -0.46029  -0.45538  -0.45378
 Alpha  occ. eigenvalues --   -0.45245  -0.45138  -0.44608  -0.44383  -0.44220
 Alpha  occ. eigenvalues --   -0.43720  -0.43359  -0.43273  -0.41933  -0.41366
 Alpha  occ. eigenvalues --   -0.40083  -0.39866  -0.39537  -0.39424  -0.39312
 Alpha  occ. eigenvalues --   -0.38282  -0.37210  -0.35655  -0.35451  -0.35004
 Alpha  occ. eigenvalues --   -0.34895  -0.34477  -0.34385  -0.34164  -0.33966
 Alpha  occ. eigenvalues --   -0.32141  -0.30992
 Alpha virt. eigenvalues --   -0.11461  -0.10481  -0.10202  -0.09052  -0.06711
 Alpha virt. eigenvalues --   -0.06595  -0.05993  -0.05783  -0.04367  -0.02487
 Alpha virt. eigenvalues --   -0.01798  -0.01053  -0.00385   0.00230   0.00393

 Mulliken charges:
               1
     1  N   -0.787432
     2  C   -0.091734
     3  C    0.637115
     4  O   -0.509819
     5  C   -0.391308
     6  C    0.175666
     7  C   -0.206628
     8  C   -0.191688
     9  C   -0.136764
    10  C   -0.136835
    11  C   -0.171444
    12  H    0.358566
    13  H    0.165683
    14  H    0.157052
    15  H    0.236477
    16  H    0.137282
    17  H    0.148894
    18  H    0.155373
    19  H    0.143713
    20  H    0.148886
    21  H    0.334181
    22  N   -0.650153
    23  C   -0.013355
    24  C    0.606751
    25  O   -0.518364
    26  C   -0.308791
    27  C   -0.069056
    28  C   -0.465629
    29  C   -0.446338
    30  H    0.341250
    31  H    0.191294
    32  H    0.133599
    33  H    0.177326
    34  H    0.145298
    35  H    0.129119
    36  H    0.165125
    37  H    0.144313
    38  H    0.156260
    39  H    0.142420
    40  H    0.153997
    41  N   -0.617211
    42  C   -0.041087
    43  C    0.606836
    44  O   -0.566011
    45  C   -0.377458
    46  C    0.629692
    47  N   -0.737428
    48  O   -0.534963
    49  H    0.351343
    50  H    0.214484
    51  H    0.197948
    52  H    0.185980
    53  H    0.359004
    54  H    0.355185
    55  N   -0.609619
    56  C   -0.036329
    57  C    0.632381
    58  O   -0.574005
    59  C   -0.292768
    60  C   -0.294392
    61  C   -0.166999
    62  N   -0.606668
    63  C    0.747811
    64  N   -0.746497
    65  N   -0.758030
    66  O   -0.573174
    67  H    0.487628
    68  H    0.397410
    69  H    0.186284
    70  H    0.177280
    71  H    0.175552
    72  H    0.162454
    73  H    0.177046
    74  H    0.163831
    75  H    0.185800
    76  H    0.428011
    77  H    0.379455
    78  H    0.378944
    79  H    0.359808
    80  H    0.402168
 Sum of Mulliken charges =   1.00000

 Dipole moment (field-independent basis, Debye):
    X=             -7.7029    Y=             44.3440    Z=            -43.9814  Tot=             62.9292
 Quadrupole moment (field-independent basis, Debye-Ang):
   XX=           -166.1148   YY=            266.5894   ZZ=            201.2144
   XY=            -97.4095   XZ=             99.1087   YZ=           -383.2627

 Normal termination of Gaussian 16 at Sat Jul 16 16:54:51 2022.
