 Gaussian 16, Revision C.01,
 Gaussian 16:  ES64L-G16RevC.01  3-Jul-2019

 ----------------------------------------------------------------------
 # B3LYP/6-31G* empiricaldispersion=gd3bj guess=read geom=check nosymm
 integral(ultrafinegrid)
 ----------------------------------------------------------------------

 ------------------------------------------------------
 Candidate Structure: Conf:386 Charge calc in gas phase
 ------------------------------------------------------
 Structure from the checkpoint file:  "conf-386.chk"
 Charge =  1 Multiplicity = 1

                          Input orientation:
 ---------------------------------------------------------------------
 Center     Atomic      Atomic             Coordinates (Angstroms)
 Number     Number       Type             X           Y           Z
 ---------------------------------------------------------------------
      1          7           0       -4.628645    9.317829   -7.449404
      2          6           0       -3.622582    8.878191   -6.456902
      3          6           0       -3.540555    9.965760   -5.376474
      4          8           0       -4.313317   10.917199   -5.375542
      5          6           0       -2.291983    8.553011   -7.167338
      6          6           0       -2.462446    7.401953   -8.134322
      7          6           0       -2.460879    6.080576   -7.668074
      8          6           0       -2.683063    7.637703   -9.497781
      9          6           0       -2.673295    5.015370   -8.541377
     10          6           0       -2.898048    6.570326  -10.372834
     11          6           0       -2.894752    5.258721   -9.898624
     12          1           0       -5.507100    9.504998   -6.965404
     13          1           0       -3.974752    7.960066   -5.962303
     14          1           0       -1.546286    8.286310   -6.409807
     15          1           0       -1.931037    9.452529   -7.670577
     16          1           0       -2.281641    5.883606   -6.612920
     17          1           0       -2.673089    8.659498   -9.865433
     18          1           0       -2.660384    3.996549   -8.165386
     19          1           0       -3.059246    6.764440  -11.429793
     20          1           0       -3.056719    4.429696  -10.581076
     21          1           0       -4.774184    8.564173   -8.122255
     22          7           0       -2.595468    9.785149   -4.413680
     23          6           0       -2.505329   10.667866   -3.244875
     24          6           0       -2.389963   12.133284   -3.686861
     25          8           0       -2.976294   13.031068   -3.103617
     26          6           0       -1.334552   10.195724   -2.366558
     27          6           0       -1.118944   10.990077   -1.060042
     28          6           0       -0.457356   10.085465   -0.011398
     29          6           0       -0.278969   12.259184   -1.268428
     30          1           0       -2.040222    8.940555   -4.412110
     31          1           0       -3.438446   10.621666   -2.674048
     32          1           0       -1.536317    9.145324   -2.114061
     33          1           0       -0.409783   10.205914   -2.960441
     34          1           0       -2.104678   11.292531   -0.680966
     35          1           0        0.520097    9.730322   -0.362448
     36          1           0       -0.295364   10.627387    0.926238
     37          1           0       -1.074725    9.207021    0.209060
     38          1           0       -0.111574   12.761264   -0.309323
     39          1           0        0.703459   12.006550   -1.687725
     40          1           0       -0.768857   12.973842   -1.932393
     41          7           0       -1.546297   12.344664   -4.747002
     42          6           0       -1.791269   13.488119   -5.603489
     43          6           0       -1.935224   12.925606   -7.028125
     44          8           0       -1.638067   11.752174   -7.282623
     45          6           0       -0.700703   14.572576   -5.460639
     46          6           0       -1.188950   15.967522   -5.835211
     47          7           0       -0.559367   16.989299   -5.211747
     48          8           0       -2.080861   16.172365   -6.664587
     49          1           0       -1.288725   11.518673   -5.280523
     50          1           0       -2.748157   13.928063   -5.304534
     51          1           0       -0.366983   14.559792   -4.418882
     52          1           0        0.175629   14.329753   -6.075704
     53          1           0       -0.864087   17.933617   -5.406810
     54          1           0        0.091624   16.841386   -4.455315
     55          7           0       -2.447013   13.757386   -7.948318
     56          6           0       -2.779583   13.303501   -9.288698
     57          6           0       -3.194718   11.816952   -9.237969
     58          8           0       -2.687716   10.959855   -9.959057
     59          6           0       -1.686370   13.596421  -10.335974
     60          6           0       -2.208590   13.988989  -11.731556
     61          6           0       -2.796095   12.872653  -12.606844
     62          7           0       -3.992610   12.226102  -12.037142
     63          6           0       -5.178781   12.804670  -11.855640
     64          7           0       -5.598474   13.770284  -12.691559
     65          7           0       -5.963482   12.412833  -10.839991
     66          8           0       -4.273214   11.625552   -8.501411
     67          1           0       -4.359415   10.594191   -8.115311
     68          1           0       -2.575642   14.736009   -7.671461
     69          1           0       -3.690775   13.853843   -9.560694
     70          1           0       -1.010797   12.737696  -10.397793
     71          1           0       -1.102328   14.442788   -9.961340
     72          1           0       -2.951398   14.792712  -11.630001
     73          1           0       -1.377121   14.417215  -12.304152
     74          1           0       -3.026516   13.254855  -13.606887
     75          1           0       -2.072064   12.066138  -12.738781
     76          1           0       -3.768955   11.446404  -11.418661
     77          1           0       -6.428122   14.310318  -12.495974
     78          1           0       -5.157982   13.899823  -13.590306
     79          1           0       -6.930186   12.702666  -10.797164
     80          1           0       -5.550317   12.012709   -9.992003
 ---------------------------------------------------------------------

 SCF Done:  E(RB3LYP) =  -1866.80679819     A.U. after    1 cycles

 Alpha  occ. eigenvalues --  -19.25466 -19.22915 -19.20993 -19.20953 -19.20262
 Alpha  occ. eigenvalues --  -19.18100 -14.52245 -14.50996 -14.50323 -14.45356
 Alpha  occ. eigenvalues --  -14.44797 -14.44648 -14.44276 -14.41866 -10.47814
 Alpha  occ. eigenvalues --  -10.41510 -10.38423 -10.37489 -10.37415 -10.35208
 Alpha  occ. eigenvalues --  -10.35130 -10.33519 -10.32647 -10.31388 -10.30630
 Alpha  occ. eigenvalues --  -10.30195 -10.28547 -10.28502 -10.27470 -10.27038
 Alpha  occ. eigenvalues --  -10.26346 -10.26136 -10.26033 -10.25993 -10.25826
 Alpha  occ. eigenvalues --  -10.25637 -10.25250 -10.22971 -10.22678  -1.18057
 Alpha  occ. eigenvalues --   -1.16209  -1.13049  -1.12495  -1.12341  -1.10018
 Alpha  occ. eigenvalues --   -1.09265  -1.05334  -1.04477  -1.01641  -1.01391
 Alpha  occ. eigenvalues --   -1.01096  -0.99444  -0.99083  -0.92708  -0.90787
 Alpha  occ. eigenvalues --   -0.88297  -0.86891  -0.86217  -0.84944  -0.82444
 Alpha  occ. eigenvalues --   -0.81426  -0.80730  -0.79547  -0.77674  -0.76019
 Alpha  occ. eigenvalues --   -0.73795  -0.73661  -0.73569  -0.72718  -0.71866
 Alpha  occ. eigenvalues --   -0.69717  -0.68744  -0.67764  -0.67482  -0.67274
 Alpha  occ. eigenvalues --   -0.65698  -0.65668  -0.65253  -0.64862  -0.64427
 Alpha  occ. eigenvalues --   -0.63501  -0.62507  -0.62190  -0.62078  -0.60826
 Alpha  occ. eigenvalues --   -0.59982  -0.58913  -0.58750  -0.57798  -0.57652
 Alpha  occ. eigenvalues --   -0.57192  -0.56299  -0.55998  -0.55305  -0.55003
 Alpha  occ. eigenvalues --   -0.54108  -0.53800  -0.53371  -0.52861  -0.52533
 Alpha  occ. eigenvalues --   -0.52280  -0.51933  -0.51310  -0.51077  -0.50437
 Alpha  occ. eigenvalues --   -0.50378  -0.50125  -0.49153  -0.48929  -0.48843
 Alpha  occ. eigenvalues --   -0.48200  -0.48085  -0.47726  -0.47392  -0.46959
 Alpha  occ. eigenvalues --   -0.46563  -0.46296  -0.45965  -0.45217  -0.44776
 Alpha  occ. eigenvalues --   -0.44620  -0.44388  -0.44218  -0.43678  -0.43071
 Alpha  occ. eigenvalues --   -0.42782  -0.42175  -0.42032  -0.41310  -0.41036
 Alpha  occ. eigenvalues --   -0.40133  -0.39410  -0.39293  -0.38575  -0.38390
 Alpha  occ. eigenvalues --   -0.37749  -0.36779  -0.36058  -0.35526  -0.34970
 Alpha  occ. eigenvalues --   -0.34662  -0.34334  -0.33921  -0.32515  -0.32129
 Alpha  occ. eigenvalues --   -0.31503  -0.31237
 Alpha virt. eigenvalues --   -0.12609  -0.09758  -0.08007  -0.07845  -0.07283
 Alpha virt. eigenvalues --   -0.06800  -0.06376  -0.05604  -0.04709  -0.04625
 Alpha virt. eigenvalues --   -0.01812  -0.01607  -0.00422  -0.00327   0.00090

 Mulliken charges:
               1
     1  N   -0.798638
     2  C   -0.083343
     3  C    0.654614
     4  O   -0.521422
     5  C   -0.386006
     6  C    0.138026
     7  C   -0.180242
     8  C   -0.216538
     9  C   -0.127208
    10  C   -0.134703
    11  C   -0.127658
    12  H    0.356432
    13  H    0.171493
    14  H    0.146693
    15  H    0.224553
    16  H    0.123656
    17  H    0.171830
    18  H    0.146511
    19  H    0.133244
    20  H    0.145291
    21  H    0.351181
    22  N   -0.659077
    23  C   -0.012751
    24  C    0.624977
    25  O   -0.519175
    26  C   -0.307555
    27  C   -0.075049
    28  C   -0.448763
    29  C   -0.462154
    30  H    0.337226
    31  H    0.187903
    32  H    0.144093
    33  H    0.144379
    34  H    0.150244
    35  H    0.143389
    36  H    0.155857
    37  H    0.144493
    38  H    0.151229
    39  H    0.134718
    40  H    0.169311
    41  N   -0.606841
    42  C   -0.057821
    43  C    0.628488
    44  O   -0.558224
    45  C   -0.381665
    46  C    0.631625
    47  N   -0.736158
    48  O   -0.539093
    49  H    0.353781
    50  H    0.214534
    51  H    0.190775
    52  H    0.189791
    53  H    0.359163
    54  H    0.356445
    55  N   -0.627231
    56  C    0.014483
    57  C    0.587010
    58  O   -0.518685
    59  C   -0.275489
    60  C   -0.287606
    61  C   -0.167992
    62  N   -0.595212
    63  C    0.779880
    64  N   -0.753072
    65  N   -0.778716
    66  O   -0.622082
    67  H    0.489516
    68  H    0.392328
    69  H    0.143367
    70  H    0.188627
    71  H    0.167168
    72  H    0.147193
    73  H    0.175487
    74  H    0.164205
    75  H    0.205934
    76  H    0.392169
    77  H    0.379505
    78  H    0.385897
    79  H    0.369247
    80  H    0.408210
 Sum of Mulliken charges =   1.00000

 Dipole moment (field-independent basis, Debye):
    X=            -17.5301    Y=             59.4524    Z=            -47.1996  Tot=             77.9082
 Quadrupole moment (field-independent basis, Debye-Ang):
   XX=           -124.4047   YY=            573.6490   ZZ=            307.8231
   XY=           -203.7156   XZ=            219.7202   YZ=           -607.7306

 Normal termination of Gaussian 16 at Sat Jul 16 16:54:25 2022.
