 Gaussian 16, Revision C.01,
 Gaussian 16:  ES64L-G16RevC.01  3-Jul-2019

 ----------------------------------------------------------------------
 # B3LYP/6-31G* empiricaldispersion=gd3bj guess=read geom=check nosymm
 integral(ultrafinegrid)
 ----------------------------------------------------------------------

 ------------------------------------------------------
 Candidate Structure: Conf:879 Charge calc in gas phase
 ------------------------------------------------------
 Structure from the checkpoint file:  "conf-879.chk"
 Charge =  1 Multiplicity = 1

                          Input orientation:
 ---------------------------------------------------------------------
 Center     Atomic      Atomic             Coordinates (Angstroms)
 Number     Number       Type             X           Y           Z
 ---------------------------------------------------------------------
      1          7           0       -1.964050   13.218509   -6.786618
      2          6           0       -2.988783   13.740683   -5.861116
      3          6           0       -3.655058   12.527040   -5.184084
      4          8           0       -2.982299   11.744624   -4.527145
      5          6           0       -3.939782   14.751373   -6.540732
      6          6           0       -3.181830   15.917016   -7.132946
      7          6           0       -2.705874   16.945897   -6.309456
      8          6           0       -2.888886   15.961626   -8.501791
      9          6           0       -1.959661   17.995985   -6.841263
     10          6           0       -2.142555   17.013112   -9.037960
     11          6           0       -1.675500   18.032271   -8.208357
     12          1           0       -1.540298   13.996911   -7.291539
     13          1           0       -2.453211   14.258429   -5.058019
     14          1           0       -4.659690   15.116319   -5.797421
     15          1           0       -4.504984   14.243957   -7.333352
     16          1           0       -2.929826   16.927929   -5.245457
     17          1           0       -3.266471   15.177674   -9.154609
     18          1           0       -1.606897   18.790610   -6.190614
     19          1           0       -1.941106   17.042485  -10.105262
     20          1           0       -1.103528   18.856651   -8.623741
     21          1           0       -2.400310   12.611290   -7.485383
     22          7           0       -4.991208   12.345787   -5.397702
     23          6           0       -5.742250   11.290064   -4.711815
     24          6           0       -5.090032    9.917784   -4.917787
     25          8           0       -5.088883    9.071388   -4.035144
     26          6           0       -7.197263   11.315905   -5.207467
     27          6           0       -8.113243   10.229961   -4.616833
     28          6           0       -8.151208   10.269752   -3.084005
     29          6           0       -9.519698   10.373965   -5.210879
     30          1           0       -5.526194   13.064923   -5.862474
     31          1           0       -5.702204   11.458228   -3.632012
     32          1           0       -7.619682   12.303683   -4.969312
     33          1           0       -7.191287   11.226070   -6.302626
     34          1           0       -7.713296    9.252678   -4.917807
     35          1           0       -7.181230   10.006394   -2.653970
     36          1           0       -8.439631   11.266046   -2.723560
     37          1           0       -8.888125    9.554953   -2.702267
     38          1           0       -9.972137   11.330373   -4.919493
     39          1           0       -9.502338   10.330822   -6.306474
     40          1           0      -10.176769    9.574470   -4.852829
     41          7           0       -4.554352    9.693230   -6.157196
     42          6           0       -3.449313    8.757924   -6.241758
     43          6           0       -2.407412    9.391194   -7.175815
     44          8           0       -2.656272   10.419612   -7.823195
     45          6           0       -3.914713    7.341139   -6.648212
     46          6           0       -3.001807    6.242668   -6.116477
     47          7           0       -3.611035    5.073975   -5.813055
     48          8           0       -1.781155    6.382890   -5.991456
     49          1           0       -4.435577   10.496751   -6.765822
     50          1           0       -2.994123    8.684978   -5.247502
     51          1           0       -4.924406    7.213030   -6.250216
     52          1           0       -3.982418    7.245232   -7.739393
     53          1           0       -3.050141    4.332999   -5.413680
     54          1           0       -4.615383    4.989911   -5.766889
     55          7           0       -1.203763    8.796344   -7.181464
     56          6           0       -0.044489    9.407147   -7.811555
     57          6           0       -0.113147   10.932136   -7.589019
     58          8           0        0.027529   11.754908   -8.507928
     59          6           0        0.105477    8.997228   -9.288076
     60          6           0        1.534490    9.186140   -9.861152
     61          6           0        1.582259    9.965834  -11.181758
     62          7           0        1.117197   11.338929  -10.936443
     63          6           0        1.858218   12.439136  -11.033546
     64          7           0        2.813805   12.560028  -11.973089
     65          7           0        1.637209   13.443650  -10.172236
     66          8           0       -0.322881   11.262850   -6.350512
     67          1           0       -0.856455   12.171257   -6.334566
     68          1           0       -1.116510    7.920160   -6.652747
     69          1           0        0.827970    9.053092   -7.248224
     70          1           0       -0.646903    9.541540   -9.870249
     71          1           0       -0.172854    7.942125   -9.353620
     72          1           0        2.172280    9.710525   -9.138457
     73          1           0        1.999588    8.209245  -10.028631
     74          1           0        2.603440    9.994257  -11.572835
     75          1           0        0.942496    9.497939  -11.937335
     76          1           0        0.428961   11.399119  -10.170939
     77          1           0        3.479691   13.317716  -11.948995
     78          1           0        2.832821   11.940851  -12.769315
     79          1           0        1.918862   14.390554  -10.377953
     80          1           0        1.055965   13.257806   -9.355856
 ---------------------------------------------------------------------

 SCF Done:  E(RB3LYP) =  -1866.80667176     A.U. after    1 cycles

 Alpha  occ. eigenvalues --  -19.25304 -19.24234 -19.21128 -19.20469 -19.19462
 Alpha  occ. eigenvalues --  -19.18029 -14.51548 -14.50324 -14.49156 -14.44670
 Alpha  occ. eigenvalues --  -14.44134 -14.44012 -14.43479 -14.41750 -10.46966
 Alpha  occ. eigenvalues --  -10.41904 -10.37902 -10.37612 -10.36903 -10.35027
 Alpha  occ. eigenvalues --  -10.35013 -10.33587 -10.31979 -10.31159 -10.30342
 Alpha  occ. eigenvalues --  -10.30273 -10.29177 -10.28628 -10.28311 -10.28096
 Alpha  occ. eigenvalues --  -10.27445 -10.27353 -10.27143 -10.27071 -10.27012
 Alpha  occ. eigenvalues --  -10.26171 -10.24951 -10.22887 -10.22163  -1.18786
 Alpha  occ. eigenvalues --   -1.15566  -1.12837  -1.11964  -1.11808  -1.09917
 Alpha  occ. eigenvalues --   -1.09793  -1.04760  -1.03788  -1.01534  -1.00999
 Alpha  occ. eigenvalues --   -0.99947  -0.98982  -0.98814  -0.93845  -0.90882
 Alpha  occ. eigenvalues --   -0.88143  -0.86788  -0.86627  -0.84680  -0.82699
 Alpha  occ. eigenvalues --   -0.82305  -0.79835  -0.79499  -0.77662  -0.75797
 Alpha  occ. eigenvalues --   -0.74107  -0.73608  -0.72734  -0.72421  -0.71876
 Alpha  occ. eigenvalues --   -0.69714  -0.68876  -0.68752  -0.67648  -0.67076
 Alpha  occ. eigenvalues --   -0.66446  -0.65398  -0.64759  -0.64530  -0.64194
 Alpha  occ. eigenvalues --   -0.63227  -0.62542  -0.62012  -0.61281  -0.60840
 Alpha  occ. eigenvalues --   -0.59517  -0.59101  -0.58501  -0.57963  -0.57818
 Alpha  occ. eigenvalues --   -0.56574  -0.55918  -0.55417  -0.54959  -0.54553
 Alpha  occ. eigenvalues --   -0.54217  -0.53962  -0.53773  -0.53130  -0.52928
 Alpha  occ. eigenvalues --   -0.52299  -0.51863  -0.51283  -0.51082  -0.50769
 Alpha  occ. eigenvalues --   -0.50298  -0.50067  -0.49702  -0.49081  -0.48877
 Alpha  occ. eigenvalues --   -0.48692  -0.47872  -0.47719  -0.47183  -0.46941
 Alpha  occ. eigenvalues --   -0.46662  -0.45836  -0.45659  -0.45458  -0.45111
 Alpha  occ. eigenvalues --   -0.44659  -0.44369  -0.44090  -0.43982  -0.43207
 Alpha  occ. eigenvalues --   -0.42577  -0.42444  -0.42295  -0.42212  -0.41457
 Alpha  occ. eigenvalues --   -0.39697  -0.39519  -0.38953  -0.38432  -0.38210
 Alpha  occ. eigenvalues --   -0.38121  -0.36400  -0.35648  -0.35357  -0.34599
 Alpha  occ. eigenvalues --   -0.34520  -0.34192  -0.33613  -0.33325  -0.32470
 Alpha  occ. eigenvalues --   -0.32036  -0.31126
 Alpha virt. eigenvalues --   -0.11604  -0.09389  -0.08702  -0.08468  -0.07082
 Alpha virt. eigenvalues --   -0.06897  -0.06289  -0.05835  -0.04401  -0.03313
 Alpha virt. eigenvalues --   -0.01208  -0.00649  -0.00425   0.00257   0.00726

 Mulliken charges:
               1
     1  N   -0.804436
     2  C   -0.047108
     3  C    0.618075
     4  O   -0.502369
     5  C   -0.394817
     6  C    0.153579
     7  C   -0.175400
     8  C   -0.199328
     9  C   -0.127886
    10  C   -0.133695
    11  C   -0.129959
    12  H    0.334501
    13  H    0.186980
    14  H    0.167959
    15  H    0.150772
    16  H    0.141805
    17  H    0.129428
    18  H    0.152421
    19  H    0.135669
    20  H    0.145842
    21  H    0.363117
    22  N   -0.663310
    23  C   -0.008145
    24  C    0.628781
    25  O   -0.525442
    26  C   -0.306166
    27  C   -0.075667
    28  C   -0.461045
    29  C   -0.445038
    30  H    0.345172
    31  H    0.194264
    32  H    0.141950
    33  H    0.140248
    34  H    0.143136
    35  H    0.177891
    36  H    0.135550
    37  H    0.151318
    38  H    0.144394
    39  H    0.139067
    40  H    0.154731
    41  N   -0.612224
    42  C   -0.047668
    43  C    0.622997
    44  O   -0.584181
    45  C   -0.374601
    46  C    0.630781
    47  N   -0.734872
    48  O   -0.536091
    49  H    0.346237
    50  H    0.218678
    51  H    0.190043
    52  H    0.184985
    53  H    0.359515
    54  H    0.356389
    55  N   -0.619359
    56  C   -0.027467
    57  C    0.630665
    58  O   -0.579393
    59  C   -0.291390
    60  C   -0.288200
    61  C   -0.173161
    62  N   -0.600726
    63  C    0.777944
    64  N   -0.749360
    65  N   -0.773804
    66  O   -0.562730
    67  H    0.480523
    68  H    0.400400
    69  H    0.187625
    70  H    0.171830
    71  H    0.175706
    72  H    0.159558
    73  H    0.178622
    74  H    0.165511
    75  H    0.189657
    76  H    0.413259
    77  H    0.377936
    78  H    0.383230
    79  H    0.367427
    80  H    0.408871
 Sum of Mulliken charges =   1.00000

 Dipole moment (field-independent basis, Debye):
    X=             -1.4722    Y=             57.3914    Z=            -48.5701  Tot=             75.1998
 Quadrupole moment (field-independent basis, Debye-Ang):
   XX=           -151.3717   YY=            538.9755   ZZ=            273.4627
   XY=              1.7015   XZ=            -31.6650   YZ=           -579.7692

 Normal termination of Gaussian 16 at Sat Jul 16 16:54:25 2022.
