 Gaussian 16, Revision C.01,
 Gaussian 16:  ES64L-G16RevC.01  3-Jul-2019

 ----------------------------------------------------------------------
 # B3LYP/6-31G* empiricaldispersion=gd3bj guess=read geom=check nosymm
 integral(ultrafinegrid)
 ----------------------------------------------------------------------

 ------------------------------------------------------
 Candidate Structure: Conf:684 Charge calc in gas phase
 ------------------------------------------------------
 Structure from the checkpoint file:  "conf-684.chk"
 Charge =  1 Multiplicity = 1

                          Input orientation:
 ---------------------------------------------------------------------
 Center     Atomic      Atomic             Coordinates (Angstroms)
 Number     Number       Type             X           Y           Z
 ---------------------------------------------------------------------
      1          7           0       -4.561379    2.546244    3.841642
      2          1           0       -5.251188    3.024596    3.263769
      3          1           0       -4.824864    1.561291    3.793204
      4          6           0       -3.251998    2.674251    3.218918
      5          1           0       -3.078377    3.733448    2.989740
      6          6           0       -3.133540    1.839324    1.932145
      7          6           0       -2.135140    2.219322    4.208160
      8          1           0       -2.332534    2.732579    5.153716
      9          1           0       -1.162858    2.566895    3.839585
     10          8           0       -3.951168    0.976247    1.637119
     11          6           0       -2.101180    0.720696    4.398266
     12          6           0       -1.211245   -0.069968    3.659333
     13          1           0       -0.482588    0.414043    3.015300
     14          6           0       -3.010943    0.082544    5.250433
     15          1           0       -3.698836    0.684239    5.837751
     16          6           0       -1.249669   -1.462002    3.733872
     17          1           0       -0.578604   -2.060449    3.123475
     18          6           0       -3.043913   -1.309375    5.340579
     19          1           0       -3.755764   -1.788428    6.006821
     20          6           0       -2.172186   -2.085439    4.575572
     21          1           0       -2.208263   -3.169158    4.637563
     22          7           0       -2.009981    2.046102    1.176647
     23          1           0       -1.325088    2.738770    1.450161
     24          6           0       -1.557702    1.003600    0.269060
     25          1           0       -1.975349    0.062682    0.636112
     26          6           0       -0.035643    0.979383    0.321116
     27          6           0       -2.029051    1.242883   -1.175950
     28          1           0       -3.123024    1.304529   -1.149070
     29          1           0       -1.646290    2.221377   -1.491876
     30          8           0        0.622121    2.021132    0.166328
     31          6           0       -1.586799    0.159267   -2.174308
     32          1           0       -0.489597    0.094972   -2.148122
     33          6           0       -2.152060   -1.228592   -1.844041
     34          1           0       -3.242736   -1.191119   -1.740278
     35          1           0       -1.910114   -1.947792   -2.635155
     36          1           0       -1.742208   -1.632196   -0.914225
     37          6           0       -1.987467    0.580859   -3.596071
     38          1           0       -3.079960    0.639128   -3.689571
     39          1           0       -1.577978    1.573293   -3.830668
     40          1           0       -1.630458   -0.159912   -4.329048
     41          7           0        0.524115   -0.228348    0.504164
     42          1           0       -0.043951   -1.066877    0.638098
     43          6           0        1.966752   -0.442141    0.588299
     44          1           0        2.398367    0.404500    1.134559
     45          6           0        2.606271   -0.472809   -0.816438
     46          6           0        2.258585   -1.744603    1.343828
     47          1           0        3.335426   -1.921367    1.341034
     48          1           0        1.934203   -1.624314    2.382676
     49          8           0        3.157565   -1.470738   -1.269497
     50          6           0        1.486744   -2.929670    0.770783
     51          7           0        2.221816   -3.974621    0.329137
     52          1           0        1.720258   -4.723753   -0.131405
     53          1           0        3.177612   -3.814429    0.042809
     54          8           0        0.250109   -2.935491    0.767565
     55          7           0        2.488475    0.702928   -1.491829
     56          1           0        2.017783    1.476289   -1.016598
     57          6           0        3.031964    0.872455   -2.820594
     58          1           0        3.435797   -0.110473   -3.094925
     59          6           0        4.206379    1.857254   -2.821673
     60          6           0        1.961640    1.311239   -3.833168
     61          1           0        1.732402    2.371168   -3.670192
     62          1           0        1.055220    0.740174   -3.602902
     63          8           0        4.362300    2.737905   -3.642147
     64          6           0        2.395293    1.084895   -5.289810
     65          1           0        3.435245    1.396019   -5.409959
     66          1           0        2.339614    0.018933   -5.543210
     67          6           0        1.592371    1.900309   -6.299871
     68          1           0        1.743400    2.970448   -6.109361
     69          1           0        1.937175    1.668121   -7.314667
     70          7           0        0.154398    1.592968   -6.207787
     71          1           0       -0.154291    1.024779   -5.429300
     72          7           0       -0.444340    2.902254   -8.021494
     73          1           0       -1.140698    3.327134   -8.615761
     74          1           0        0.521595    3.122534   -8.211037
     75          7           0       -2.079182    1.821699   -6.784079
     76          1           0       -2.806125    2.175289   -7.388316
     77          1           0       -2.365734    1.285547   -5.976035
     78          6           0       -0.785575    2.106586   -6.998543
     79          8           0        5.057782    1.622602   -1.811308
     80          1           0        5.781840    2.273132   -1.890277
 ---------------------------------------------------------------------

 SCF Done:  E(RB3LYP) =  -1866.78045829     A.U. after    2 cycles

 Alpha  occ. eigenvalues --  -19.29067 -19.23783 -19.21125 -19.21065 -19.20265
 Alpha  occ. eigenvalues --  -19.17458 -14.54426 -14.53958 -14.53826 -14.45032
 Alpha  occ. eigenvalues --  -14.44868 -14.43685 -14.42285 -14.35998 -10.50563
 Alpha  occ. eigenvalues --  -10.41755 -10.37941 -10.37733 -10.37681 -10.37567
 Alpha  occ. eigenvalues --  -10.34000 -10.33952 -10.33039 -10.31552 -10.30758
 Alpha  occ. eigenvalues --  -10.30756 -10.29926 -10.28983 -10.28546 -10.27878
 Alpha  occ. eigenvalues --  -10.26792 -10.25712 -10.24394 -10.24227 -10.23580
 Alpha  occ. eigenvalues --  -10.23499 -10.23344 -10.23265 -10.23091  -1.20251
 Alpha  occ. eigenvalues --   -1.19101  -1.13393  -1.12450  -1.11773  -1.11252
 Alpha  occ. eigenvalues --   -1.09444  -1.08196  -1.07303  -1.02389  -1.01599
 Alpha  occ. eigenvalues --   -0.98928  -0.98722  -0.93950  -0.93076  -0.90906
 Alpha  occ. eigenvalues --   -0.89877  -0.88345  -0.86795  -0.83693  -0.82284
 Alpha  occ. eigenvalues --   -0.82106  -0.80505  -0.78883  -0.78601  -0.76936
 Alpha  occ. eigenvalues --   -0.76576  -0.76443  -0.75021  -0.73634  -0.72041
 Alpha  occ. eigenvalues --   -0.70269  -0.69068  -0.68411  -0.67494  -0.67211
 Alpha  occ. eigenvalues --   -0.67099  -0.66679  -0.65509  -0.65075  -0.64662
 Alpha  occ. eigenvalues --   -0.63581  -0.63259  -0.62779  -0.61605  -0.61421
 Alpha  occ. eigenvalues --   -0.60512  -0.59096  -0.58336  -0.58045  -0.57672
 Alpha  occ. eigenvalues --   -0.57291  -0.56901  -0.56014  -0.55308  -0.54893
 Alpha  occ. eigenvalues --   -0.54786  -0.54308  -0.53752  -0.53367  -0.52892
 Alpha  occ. eigenvalues --   -0.52073  -0.51944  -0.50964  -0.50761  -0.50236
 Alpha  occ. eigenvalues --   -0.49955  -0.49828  -0.49526  -0.48906  -0.48724
 Alpha  occ. eigenvalues --   -0.48541  -0.48238  -0.47554  -0.47240  -0.47155
 Alpha  occ. eigenvalues --   -0.46751  -0.46395  -0.46126  -0.45900  -0.45629
 Alpha  occ. eigenvalues --   -0.45612  -0.45179  -0.45036  -0.44740  -0.43615
 Alpha  occ. eigenvalues --   -0.43025  -0.42666  -0.42318  -0.42021  -0.41890
 Alpha  occ. eigenvalues --   -0.41281  -0.40842  -0.39721  -0.38460  -0.38303
 Alpha  occ. eigenvalues --   -0.37875  -0.37381  -0.35478  -0.35093  -0.34351
 Alpha  occ. eigenvalues --   -0.33800  -0.33316  -0.31724  -0.31414  -0.29519
 Alpha  occ. eigenvalues --   -0.29493  -0.28285
 Alpha virt. eigenvalues --   -0.13729  -0.10069  -0.09361  -0.08147  -0.06652
 Alpha virt. eigenvalues --   -0.06497  -0.06141  -0.05968  -0.04962  -0.04897
 Alpha virt. eigenvalues --   -0.04872  -0.02878  -0.02852  -0.01266  -0.00848

 Mulliken charges:
               1
     1  N   -0.695052
     2  H    0.303714
     3  H    0.321226
     4  C   -0.090343
     5  H    0.145326
     6  C    0.596021
     7  C   -0.341074
     8  H    0.178114
     9  H    0.131170
    10  O   -0.519366
    11  C    0.156643
    12  C   -0.193236
    13  H    0.105847
    14  C   -0.188289
    15  H    0.150845
    16  C   -0.143858
    17  H    0.138665
    18  C   -0.124051
    19  H    0.138882
    20  C   -0.130769
    21  H    0.135645
    22  N   -0.614255
    23  H    0.341129
    24  C   -0.016847
    25  H    0.191339
    26  C    0.595800
    27  C   -0.258001
    28  H    0.170826
    29  H    0.140105
    30  O   -0.578692
    31  C   -0.106413
    32  H    0.144510
    33  C   -0.461061
    34  H    0.166097
    35  H    0.142101
    36  H    0.180124
    37  C   -0.501245
    38  H    0.169427
    39  H    0.134838
    40  H    0.132778
    41  N   -0.623992
    42  H    0.410145
    43  C   -0.087012
    44  H    0.199174
    45  C    0.636454
    46  C   -0.379998
    47  H    0.178960
    48  H    0.203143
    49  O   -0.528260
    50  C    0.615129
    51  N   -0.718903
    52  H    0.350195
    53  H    0.362323
    54  O   -0.532638
    55  N   -0.634357
    56  H    0.383797
    57  C   -0.048157
    58  H    0.213983
    59  C    0.598591
    60  C   -0.294612
    61  H    0.166874
    62  H    0.154659
    63  O   -0.470429
    64  C   -0.316622
    65  H    0.208391
    66  H    0.169247
    67  C   -0.164162
    68  H    0.199622
    69  H    0.183418
    70  N   -0.622992
    71  H    0.375617
    72  N   -0.763950
    73  H    0.386847
    74  H    0.397801
    75  N   -0.788452
    76  H    0.383816
    77  H    0.412379
    78  C    0.853846
    79  O   -0.545525
    80  H    0.427033
 Sum of Mulliken charges =   1.00000

 Dipole moment (field-independent basis, Debye):
    X=              1.5672    Y=              7.4913    Z=            -28.3781  Tot=             29.3921
 Quadrupole moment (field-independent basis, Debye-Ang):
   XX=           -199.1821   YY=           -193.3379   ZZ=            -18.2482
   XY=            -13.5111   XZ=             28.3646   YZ=            -67.0488

 Normal termination of Gaussian 16 at Tue Oct 18 19:31:21 2022.
