 Gaussian 16, Revision C.01,
 Gaussian 16:  ES64L-G16RevC.01  3-Jul-2019

 ----------------------------------------------------------------------
 # B3LYP/6-31G* empiricaldispersion=gd3bj guess=read geom=check nosymm
 integral(ultrafinegrid)
 ----------------------------------------------------------------------

 ------------------------------------------------------
 Candidate Structure: Conf:549 Charge calc in gas phase
 ------------------------------------------------------
 Structure from the checkpoint file:  "conf-549.chk"
 Charge =  1 Multiplicity = 1

                          Input orientation:
 ---------------------------------------------------------------------
 Center     Atomic      Atomic             Coordinates (Angstroms)
 Number     Number       Type             X           Y           Z
 ---------------------------------------------------------------------
      1          7           0       -3.922263    3.251621    3.136676
      2          1           0       -4.696234    3.495889    2.520523
      3          1           0       -4.081531    2.271546    3.370802
      4          6           0       -2.678669    3.331506    2.386686
      5          1           0       -2.627457    4.322122    1.916110
      6          6           0       -2.594169    2.262890    1.280522
      7          6           0       -1.459964    3.207388    3.344814
      8          1           0       -1.625042    3.933814    4.146100
      9          1           0       -0.546028    3.507407    2.817091
     10          8           0       -3.415904    1.360898    1.181045
     11          6           0       -1.288094    1.814588    3.903361
     12          6           0       -2.099648    1.357352    4.950214
     13          1           0       -2.816163    2.037296    5.402154
     14          6           0       -0.350706    0.934222    3.347779
     15          1           0        0.308479    1.290249    2.560023
     16          6           0       -1.991323    0.045332    5.410959
     17          1           0       -2.627448   -0.293489    6.223794
     18          6           0       -0.239287   -0.379430    3.804182
     19          1           0        0.486334   -1.055765    3.363403
     20          6           0       -1.066842   -0.827195    4.834847
     21          1           0       -0.982110   -1.849103    5.193048
     22          7           0       -1.534441    2.382408    0.413709
     23          1           0       -0.793780    3.036179    0.632352
     24          6           0       -1.174659    1.288526   -0.467872
     25          1           0       -1.908452    0.500590   -0.285400
     26          6           0        0.224013    0.809229   -0.115997
     27          6           0       -1.183395    1.693297   -1.956223
     28          1           0       -0.421370    2.471548   -2.097355
     29          1           0       -0.864764    0.824828   -2.552027
     30          8           0        1.144007    1.621017    0.085357
     31          6           0       -2.540583    2.199404   -2.468289
     32          1           0       -2.818818    3.066934   -1.855539
     33          6           0       -2.396609    2.665212   -3.922578
     34          1           0       -2.125639    1.827315   -4.578088
     35          1           0       -3.337178    3.084246   -4.294717
     36          1           0       -1.623589    3.437712   -4.023522
     37          6           0       -3.644680    1.143601   -2.330832
     38          1           0       -3.368864    0.218683   -2.855450
     39          1           0       -3.850070    0.905011   -1.283124
     40          1           0       -4.577727    1.506412   -2.775010
     41          7           0        0.433423   -0.518931   -0.099913
     42          1           0       -0.355001   -1.145739   -0.186937
     43          6           0        1.759070   -1.068672    0.114098
     44          1           0        2.069930   -0.875714    1.147149
     45          6           0        2.749494   -0.429288   -0.855871
     46          6           0        1.763366   -2.587090   -0.097992
     47          1           0        1.257443   -2.838050   -1.036738
     48          1           0        2.802777   -2.924759   -0.192017
     49          8           0        2.462884   -0.177172   -2.026964
     50          6           0        1.156579   -3.289815    1.120669
     51          7           0        0.392142   -4.378921    0.849730
     52          1           0        0.069820   -4.936555    1.630404
     53          1           0        0.351017   -4.790108   -0.071374
     54          8           0        1.358400   -2.873089    2.252863
     55          7           0        3.974516   -0.186389   -0.319319
     56          1           0        4.149067   -0.587089    0.595597
     57          6           0        5.148905   -0.013971   -1.154822
     58          1           0        4.805433    0.378213   -2.116065
     59          6           0        5.741633   -1.401746   -1.436701
     60          6           0        6.172606    0.948631   -0.519671
     61          1           0        7.161280    0.705029   -0.917626
     62          1           0        6.215702    0.750869    0.559637
     63          8           0        5.287437   -2.438516   -1.008495
     64          6           0        5.935188    2.445630   -0.769029
     65          1           0        6.755588    2.991327   -0.288173
     66          1           0        6.022114    2.652425   -1.842923
     67          6           0        4.623481    3.050456   -0.243326
     68          1           0        4.407080    2.693414    0.765934
     69          1           0        4.721883    4.141094   -0.164883
     70          7           0        3.444810    2.711825   -1.045056
     71          1           0        2.698192    2.161804   -0.605287
     72          7           0        3.918910    4.120050   -2.839612
     73          1           0        3.850971    4.328905   -3.824521
     74          1           0        4.379894    4.799229   -2.252800
     75          7           0        2.315062    2.443733   -3.028017
     76          1           0        1.982995    2.811046   -3.907298
     77          1           0        2.099006    1.476188   -2.772703
     78          6           0        3.225066    3.099294   -2.298195
     79          8           0        6.820291   -1.321767   -2.234288
     80          1           0        7.144231   -2.231197   -2.383296
 ---------------------------------------------------------------------

 SCF Done:  E(RB3LYP) =  -1866.80182297     A.U. after    3 cycles

 Alpha  occ. eigenvalues --  -19.30922 -19.25482 -19.24577 -19.23920 -19.21179
 Alpha  occ. eigenvalues --  -19.18891 -14.51981 -14.50041 -14.49897 -14.48625
 Alpha  occ. eigenvalues --  -14.48224 -14.45623 -14.43699 -14.36904 -10.47186
 Alpha  occ. eigenvalues --  -10.43403 -10.41528 -10.40247 -10.39116 -10.35924
 Alpha  occ. eigenvalues --  -10.35876 -10.35445 -10.35182 -10.32181 -10.31452
 Alpha  occ. eigenvalues --  -10.31348 -10.31053 -10.28926 -10.27520 -10.26487
 Alpha  occ. eigenvalues --  -10.25505 -10.25038 -10.24910 -10.24227 -10.24039
 Alpha  occ. eigenvalues --  -10.23900 -10.23838 -10.23821 -10.23666  -1.21962
 Alpha  occ. eigenvalues --   -1.16955  -1.15743  -1.15195  -1.13158  -1.13083
 Alpha  occ. eigenvalues --   -1.10832  -1.05670  -1.05065  -1.04496  -1.03928
 Alpha  occ. eigenvalues --   -1.00479  -1.00339  -0.94961  -0.92890  -0.90581
 Alpha  occ. eigenvalues --   -0.90441  -0.88917  -0.87352  -0.84132  -0.82853
 Alpha  occ. eigenvalues --   -0.82022  -0.79518  -0.79179  -0.77826  -0.77359
 Alpha  occ. eigenvalues --   -0.75291  -0.74914  -0.73888  -0.73095  -0.72479
 Alpha  occ. eigenvalues --   -0.71256  -0.70769  -0.69580  -0.68634  -0.68314
 Alpha  occ. eigenvalues --   -0.66403  -0.65789  -0.65728  -0.65175  -0.64496
 Alpha  occ. eigenvalues --   -0.64007  -0.63242  -0.63072  -0.62589  -0.62153
 Alpha  occ. eigenvalues --   -0.60948  -0.60415  -0.59529  -0.58284  -0.58021
 Alpha  occ. eigenvalues --   -0.57537  -0.56871  -0.56423  -0.56272  -0.55630
 Alpha  occ. eigenvalues --   -0.55452  -0.54763  -0.54272  -0.54003  -0.53916
 Alpha  occ. eigenvalues --   -0.53147  -0.52770  -0.52380  -0.52115  -0.51776
 Alpha  occ. eigenvalues --   -0.51111  -0.50812  -0.50097  -0.49757  -0.49267
 Alpha  occ. eigenvalues --   -0.49196  -0.48630  -0.48172  -0.47682  -0.47430
 Alpha  occ. eigenvalues --   -0.47180  -0.47049  -0.46672  -0.46531  -0.46370
 Alpha  occ. eigenvalues --   -0.46050  -0.45487  -0.44719  -0.44132  -0.43281
 Alpha  occ. eigenvalues --   -0.43082  -0.42816  -0.42594  -0.40674  -0.40628
 Alpha  occ. eigenvalues --   -0.40065  -0.40036  -0.39901  -0.39335  -0.39022
 Alpha  occ. eigenvalues --   -0.38805  -0.38618  -0.38443  -0.38010  -0.37159
 Alpha  occ. eigenvalues --   -0.36565  -0.35142  -0.33318  -0.32562  -0.30407
 Alpha  occ. eigenvalues --   -0.30183  -0.29194
 Alpha virt. eigenvalues --   -0.12233  -0.10885  -0.10535  -0.09811  -0.07755
 Alpha virt. eigenvalues --   -0.07078  -0.05694  -0.05543  -0.04709  -0.04399
 Alpha virt. eigenvalues --   -0.03234  -0.02661  -0.02338  -0.01675  -0.01238

 Mulliken charges:
               1
     1  N   -0.692708
     2  H    0.308608
     3  H    0.320238
     4  C   -0.088911
     5  H    0.150556
     6  C    0.598839
     7  C   -0.346763
     8  H    0.179980
     9  H    0.124503
    10  O   -0.510426
    11  C    0.159097
    12  C   -0.192384
    13  H    0.152981
    14  C   -0.214086
    15  H    0.113482
    16  C   -0.125477
    17  H    0.139993
    18  C   -0.156780
    19  H    0.169021
    20  C   -0.137082
    21  H    0.134561
    22  N   -0.596374
    23  H    0.334038
    24  C   -0.072617
    25  H    0.192788
    26  C    0.674723
    27  C   -0.265013
    28  H    0.127752
    29  H    0.133217
    30  O   -0.601969
    31  C   -0.065267
    32  H    0.143005
    33  C   -0.444024
    34  H    0.139749
    35  H    0.162702
    36  H    0.122174
    37  C   -0.475077
    38  H    0.129818
    39  H    0.188838
    40  H    0.156425
    41  N   -0.597258
    42  H    0.358747
    43  C   -0.030912
    44  H    0.207161
    45  C    0.628631
    46  C   -0.428505
    47  H    0.172944
    48  H    0.231679
    49  O   -0.565293
    50  C    0.603885
    51  N   -0.740996
    52  H    0.364257
    53  H    0.351460
    54  O   -0.485220
    55  N   -0.580462
    56  H    0.353778
    57  C   -0.062594
    58  H    0.202274
    59  C    0.591432
    60  C   -0.286807
    61  H    0.197020
    62  H    0.160412
    63  O   -0.451965
    64  C   -0.285125
    65  H    0.176333
    66  H    0.159712
    67  C   -0.164051
    68  H    0.194311
    69  H    0.166775
    70  N   -0.619552
    71  H    0.442740
    72  N   -0.754723
    73  H    0.376509
    74  H    0.380856
    75  N   -0.782865
    76  H    0.363626
    77  H    0.434613
    78  C    0.767208
    79  O   -0.556175
    80  H    0.434010
 Sum of Mulliken charges =   1.00000

 Dipole moment (field-independent basis, Debye):
    X=             16.6777    Y=              6.3392    Z=            -10.2146  Tot=             20.5589
 Quadrupole moment (field-independent basis, Debye-Ang):
   XX=           -139.6987   YY=           -149.5645   ZZ=           -203.3776
   XY=             36.5047   XZ=            -29.5207   YZ=            -27.9098

 Normal termination of Gaussian 16 at Tue Oct 18 19:32:01 2022.
