 Gaussian 16, Revision C.01,
 Gaussian 16:  ES64L-G16RevC.01  3-Jul-2019

 ----------------------------------------------------------------------
 # B3LYP/6-31G* empiricaldispersion=gd3 guess=read geom=check nosymm in
 tegral(ultrafinegrid)
 ----------------------------------------------------------------------

 -----------------------------------------------------
 Candidate Structure: Conf:34 Charge calc in gas phase
 -----------------------------------------------------
 Structure from the checkpoint file:  "conf-34.chk"
 Charge =  1 Multiplicity = 1

                          Input orientation:
 ---------------------------------------------------------------------
 Center     Atomic      Atomic             Coordinates (Angstroms)
 Number     Number       Type             X           Y           Z
 ---------------------------------------------------------------------
      1          7           0       -1.031919   -4.442326    2.068974
      2          1           0       -2.036833   -4.550957    2.233560
      3          1           0       -0.866223   -4.389765    1.017756
      4          1           0       -0.541274   -5.237088    2.488920
      5          6           0       -0.488123   -3.100996    2.516992
      6          1           0       -1.176239   -2.675142    3.248683
      7          6           0       -0.484731   -2.283915    1.192790
      8          6           0        0.921132   -3.301596    3.130433
      9          1           0        0.792952   -3.892494    4.050068
     10          1           0        1.515473   -3.901746    2.429530
     11          8           0       -0.545989   -2.933754    0.141999
     12          6           0        1.634400   -2.012401    3.392349
     13          6           0        2.835364   -1.645525    2.834819
     14          1           0        3.479068   -2.201668    2.169058
     15          6           0        1.157154   -0.874332    4.142106
     16          6           0        2.124846    0.158137    3.975499
     17          6           0        0.000116   -0.600344    4.899289
     18          1           0       -0.742116   -1.372949    5.088498
     19          7           0        3.140249   -0.355460    3.190136
     20          1           0        3.989384    0.133156    2.939238
     21          6           0        0.800387    1.675771    5.250466
     22          1           0        0.638621    2.658914    5.681310
     23          6           0        1.958842    1.434601    4.520019
     24          1           0        2.691500    2.218246    4.356360
     25          6           0       -0.166467    0.668467    5.443693
     26          1           0       -1.051298    0.887106    6.033766
     27          7           0       -0.477693   -0.955743    1.342561
     28          1           0       -0.350825   -0.627025    2.296473
     29          6           0       -0.139979    0.048749    0.317541
     30          1           0       -0.523823    0.991502    0.721279
     31          6           0        1.398631    0.091693    0.214139
     32          6           0       -0.783202   -0.196796   -1.067458
     33          1           0       -0.363168   -1.131604   -1.448208
     34          8           0        2.042929   -0.929537    0.007880
     35          6           0       -0.389163    0.918441   -2.065590
     36          1           0        0.700737    0.922088   -2.193574
     37          1           0       -0.800503    0.630820   -3.040671
     38          6           0       -2.304703   -0.357773   -0.946753
     39          1           0       -2.769718    0.497297   -0.442954
     40          1           0       -2.752724   -0.442567   -1.942349
     41          1           0       -2.564596   -1.262860   -0.390528
     42          6           0       -0.867365    2.336715   -1.728251
     43          1           0       -0.574248    3.033707   -2.519775
     44          1           0       -0.435139    2.717127   -0.794287
     45          1           0       -1.956694    2.388879   -1.632209
     46          7           0        1.954498    1.322724    0.363433
     47          1           0        1.383019    2.125876    0.592330
     48          6           0        3.390522    1.542793    0.293115
     49          1           0        3.870015    0.563474    0.336343
     50          6           0        3.782282    2.373474    1.506249
     51          6           0        3.794298    2.263339   -1.010883
     52          1           0        3.415595    1.649188   -1.836791
     53          1           0        3.267690    3.225416   -1.054498
     54          8           0        3.147262    3.313586    1.924257
     55          6           0        5.305260    2.471810   -1.161776
     56          1           0        5.832051    1.514810   -1.060853
     57          1           0        5.676996    3.120624   -0.356078
     58          6           0        5.655310    3.093076   -2.515804
     59          1           0        5.314338    2.426021   -3.316927
     60          1           0        5.111232    4.046326   -2.640323
     61          7           0        7.092434    3.253172   -2.651402
     62          1           0        7.532776    3.713005   -1.860659
     63          7           0        9.000840    3.924753   -3.773209
     64          1           0        9.396738    4.137914   -4.682200
     65          1           0        9.517188    3.189162   -3.301722
     66          7           0        7.023357    3.864486   -4.991244
     67          1           0        6.009922    3.807382   -4.895604
     68          6           0        7.628199    3.682722   -3.876442
     69          8           0        4.937406    1.942098    2.077289
     70          1           0        5.168860    2.578318    2.783483
 ---------------------------------------------------------------------

 SCF Done:  E(RB3LYP) =  -1582.20528839     A.U. after    2 cycles

 Alpha  occ. eigenvalues --  -19.31864 -19.26984 -19.25811 -19.22102 -14.60527
 Alpha  occ. eigenvalues --  -14.49943 -14.48330 -14.47272 -14.40547 -14.38382
 Alpha  occ. eigenvalues --  -14.33285 -10.43782 -10.43557 -10.40932 -10.39504
 Alpha  occ. eigenvalues --  -10.34927 -10.34543 -10.34500 -10.32854 -10.32640
 Alpha  occ. eigenvalues --  -10.32472 -10.29669 -10.29555 -10.29452 -10.29255
 Alpha  occ. eigenvalues --  -10.29031 -10.28990 -10.28953 -10.28407 -10.28345
 Alpha  occ. eigenvalues --  -10.27669 -10.27248 -10.26536 -10.26279  -1.22324
 Alpha  occ. eigenvalues --   -1.19499  -1.14527  -1.14033  -1.13454  -1.08602
 Alpha  occ. eigenvalues --   -1.06586  -1.03716  -1.02467  -0.95097  -0.94162
 Alpha  occ. eigenvalues --   -0.93925  -0.91621  -0.89670  -0.88646  -0.88464
 Alpha  occ. eigenvalues --   -0.84795  -0.83925  -0.83503  -0.82542  -0.80794
 Alpha  occ. eigenvalues --   -0.79704  -0.76432  -0.74560  -0.74060  -0.73717
 Alpha  occ. eigenvalues --   -0.73135  -0.72536  -0.70966  -0.69882  -0.69655
 Alpha  occ. eigenvalues --   -0.68343  -0.67345  -0.66109  -0.65134  -0.64439
 Alpha  occ. eigenvalues --   -0.63437  -0.63093  -0.62511  -0.60925  -0.60404
 Alpha  occ. eigenvalues --   -0.59274  -0.59115  -0.58989  -0.58119  -0.57650
 Alpha  occ. eigenvalues --   -0.57490  -0.56890  -0.56154  -0.55594  -0.54998
 Alpha  occ. eigenvalues --   -0.54319  -0.54040  -0.53500  -0.53206  -0.52583
 Alpha  occ. eigenvalues --   -0.52219  -0.52003  -0.51709  -0.51399  -0.51269
 Alpha  occ. eigenvalues --   -0.50698  -0.50289  -0.50060  -0.49050  -0.48900
 Alpha  occ. eigenvalues --   -0.47942  -0.47401  -0.47183  -0.47051  -0.45763
 Alpha  occ. eigenvalues --   -0.45715  -0.44591  -0.44274  -0.44026  -0.43845
 Alpha  occ. eigenvalues --   -0.43639  -0.42777  -0.42718  -0.42137  -0.41555
 Alpha  occ. eigenvalues --   -0.41261  -0.40823  -0.40121  -0.39273  -0.38124
 Alpha  occ. eigenvalues --   -0.36197  -0.35442  -0.32693  -0.31143  -0.31071
 Alpha  occ. eigenvalues --   -0.30381  -0.28032
 Alpha virt. eigenvalues --   -0.13192  -0.11754  -0.11448  -0.10855  -0.08410
 Alpha virt. eigenvalues --   -0.07803  -0.06969  -0.05148  -0.04597  -0.03878
 Alpha virt. eigenvalues --   -0.02640  -0.02094  -0.01153  -0.00407  -0.00181

 Mulliken charges:
               1
     1  N   -0.756653
     2  H    0.416728
     3  H    0.433308
     4  H    0.415104
     5  C   -0.128206
     6  H    0.212398
     7  C    0.680533
     8  C   -0.367470
     9  H    0.181119
    10  H    0.182307
    11  O   -0.535304
    12  C    0.045101
    13  C    0.045938
    14  H    0.184470
    15  C    0.035825
    16  C    0.308686
    17  C   -0.247512
    18  H    0.121956
    19  N   -0.701775
    20  H    0.359718
    21  C   -0.155709
    22  H    0.156827
    23  C   -0.153692
    24  H    0.148089
    25  C   -0.129948
    26  H    0.149840
    27  N   -0.602538
    28  H    0.373463
    29  C   -0.066343
    30  H    0.157667
    31  C    0.646654
    32  C   -0.092000
    33  H    0.188432
    34  O   -0.530331
    35  C   -0.283804
    36  H    0.150844
    37  H    0.161003
    38  C   -0.457548
    39  H    0.149585
    40  H    0.168332
    41  H    0.141538
    42  C   -0.457409
    43  H    0.170026
    44  H    0.121900
    45  H    0.164997
    46  N   -0.608999
    47  H    0.355260
    48  C   -0.035675
    49  H    0.195456
    50  C    0.591376
    51  C   -0.276563
    52  H    0.173876
    53  H    0.161382
    54  O   -0.452775
    55  C   -0.291930
    56  H    0.164124
    57  H    0.141400
    58  C   -0.120948
    59  H    0.162185
    60  H    0.143662
    61  N   -0.608989
    62  H    0.320355
    63  N   -0.751185
    64  H    0.341535
    65  H    0.320559
    66  N   -0.637259
    67  H    0.276398
    68  C    0.579069
    69  O   -0.576961
    70  H    0.428502
 Sum of Mulliken charges =   1.00000

 Dipole moment (field-independent basis, Debye):
    X=              1.5694    Y=             -9.7148    Z=             12.8399  Tot=             16.1772
 Quadrupole moment (field-independent basis, Debye-Ang):
   XX=           -148.7820   YY=           -135.3953   ZZ=           -182.0115
   XY=             22.7592   XZ=             15.7194   YZ=            -20.3033

 Normal termination of Gaussian 16 at Fri Jun  3 04:42:32 2022.
