 Gaussian 16, Revision C.01,
 Gaussian 16:  ES64L-G16RevC.01  3-Jul-2019

 ----------------------------------------------------------------------
 # B3LYP/6-31G* empiricaldispersion=gd3 guess=read geom=check nosymm in
 tegral(ultrafinegrid)
 ----------------------------------------------------------------------

 ------------------------------------------------------
 Candidate Structure: Conf:879 Charge calc in gas phase
 ------------------------------------------------------
 Structure from the checkpoint file:  "conf-879.chk"
 Charge =  1 Multiplicity = 1

                          Input orientation:
 ---------------------------------------------------------------------
 Center     Atomic      Atomic             Coordinates (Angstroms)
 Number     Number       Type             X           Y           Z
 ---------------------------------------------------------------------
      1          7           0       -2.244853   -3.877118    2.221969
      2          1           0       -3.238195   -3.869137    2.464487
      3          1           0       -2.135964   -4.020318    1.181949
      4          1           0       -1.768067   -4.653729    2.711677
      5          6           0       -1.559357   -2.547466    2.444089
      6          1           0       -2.242786   -1.895158    2.994973
      7          6           0       -1.322077   -2.019371    1.001650
      8          6           0       -0.219857   -2.747883    3.212646
      9          1           0        0.373189   -1.835975    3.087536
     10          1           0       -0.445872   -2.830147    4.281965
     11          8           0       -1.484417   -2.805843    0.067949
     12          6           0        0.524240   -3.959343    2.742841
     13          6           0        1.381567   -4.062338    1.669351
     14          1           0        1.740849   -3.289686    1.002657
     15          6           0        0.336363   -5.294123    3.261910
     16          6           0        1.117208   -6.164270    2.450679
     17          6           0       -0.422796   -5.840051    4.318229
     18          1           0       -0.993139   -5.197643    4.987624
     19          7           0        1.740585   -5.377890    1.501541
     20          1           0        2.381345   -5.713512    0.797543
     21          6           0        0.395028   -8.055054    3.710652
     22          1           0        0.406461   -9.123167    3.903815
     23          6           0        1.160942   -7.543816    2.667849
     24          1           0        1.767973   -8.194442    2.045202
     25          6           0       -0.388197   -7.214693    4.527668
     26          1           0       -0.958830   -7.648225    5.343310
     27          7           0       -0.968530   -0.724380    0.927417
     28          1           0       -0.874682   -0.242306    1.814071
     29          6           0       -0.310000   -0.029736   -0.201727
     30          1           0       -0.533403    1.031304   -0.046362
     31          6           0        1.202140   -0.290361   -0.054939
     32          6           0       -0.819625   -0.440805   -1.601408
     33          1           0       -0.617920   -1.509095   -1.708987
     34          8           0        1.641352   -1.438581   -0.116959
     35          6           0       -0.027168    0.280398   -2.717848
     36          1           0        1.018297   -0.050487   -2.699671
     37          1           0       -0.429764   -0.083111   -3.671437
     38          6           0       -2.332494   -0.211872   -1.718176
     39          1           0       -2.605364    0.831521   -1.522352
     40          1           0       -2.670812   -0.459856   -2.729507
     41          1           0       -2.887124   -0.846181   -1.021058
     42          6           0       -0.077367    1.813258   -2.714582
     43          1           0        0.468059    2.209580   -3.576909
     44          1           0        0.390740    2.243264   -1.820840
     45          1           0       -1.103290    2.191992   -2.770729
     46          7           0        1.968922    0.805282    0.141696
     47          1           0        1.522104    1.696337    0.315376
     48          6           0        3.401397    0.747097    0.388065
     49          1           0        3.677450   -0.309851    0.402767
     50          6           0        3.671856    1.337005    1.768416
     51          6           0        4.221538    1.491907   -0.695691
     52          1           0        4.078606    2.572803   -0.567881
     53          1           0        5.280885    1.291411   -0.501265
     54          8           0        2.846998    1.919816    2.438562
     55          6           0        3.839432    1.102714   -2.127489
     56          1           0        4.445087    1.692588   -2.823338
     57          1           0        2.797686    1.377658   -2.322038
     58          6           0        4.013787   -0.390464   -2.443785
     59          1           0        5.061420   -0.691286   -2.270098
     60          1           0        3.395826   -0.992391   -1.772052
     61          7           0        3.576071   -0.697364   -3.799145
     62          1           0        3.122887   -1.597917   -3.900853
     63          7           0        3.820355   -0.826425   -6.094206
     64          1           0        4.363358   -0.516890   -6.892652
     65          1           0        2.835561   -0.604525   -6.194626
     66          7           0        5.523097    0.217380   -4.910167
     67          1           0        5.902521    0.339412   -3.971683
     68          6           0        4.390414   -0.382611   -4.899308
     69          8           0        4.953017    1.154022    2.131713
     70          1           0        5.080352    1.588566    2.997037
 ---------------------------------------------------------------------

 SCF Done:  E(RB3LYP) =  -1582.20864670     A.U. after    2 cycles

 Alpha  occ. eigenvalues --  -19.29591 -19.27313 -19.24103 -19.23224 -14.58952
 Alpha  occ. eigenvalues --  -14.51043 -14.48685 -14.47868 -14.41296 -14.39260
 Alpha  occ. eigenvalues --  -14.34094 -10.44196 -10.42118 -10.40711 -10.40465
 Alpha  occ. eigenvalues --  -10.35727 -10.34071 -10.34018 -10.33468 -10.32525
 Alpha  occ. eigenvalues --  -10.32491 -10.29712 -10.29634 -10.29520 -10.29274
 Alpha  occ. eigenvalues --  -10.29241 -10.29098 -10.28470 -10.28461 -10.28376
 Alpha  occ. eigenvalues --  -10.27242 -10.26679 -10.26414 -10.26285  -1.20595
 Alpha  occ. eigenvalues --   -1.19609  -1.15212  -1.13315  -1.11759  -1.08646
 Alpha  occ. eigenvalues --   -1.07273  -1.04231  -1.03144  -0.94814  -0.94599
 Alpha  occ. eigenvalues --   -0.93987  -0.91854  -0.89531  -0.89253  -0.88660
 Alpha  occ. eigenvalues --   -0.84635  -0.83953  -0.83122  -0.82397  -0.80896
 Alpha  occ. eigenvalues --   -0.79739  -0.75743  -0.74543  -0.73700  -0.73113
 Alpha  occ. eigenvalues --   -0.72644  -0.72152  -0.71283  -0.70163  -0.69671
 Alpha  occ. eigenvalues --   -0.68398  -0.67601  -0.66052  -0.65104  -0.64440
 Alpha  occ. eigenvalues --   -0.63284  -0.62917  -0.61716  -0.60854  -0.60460
 Alpha  occ. eigenvalues --   -0.59411  -0.59328  -0.58762  -0.57860  -0.57774
 Alpha  occ. eigenvalues --   -0.57456  -0.56388  -0.55963  -0.55385  -0.55264
 Alpha  occ. eigenvalues --   -0.54384  -0.53675  -0.53560  -0.53457  -0.52859
 Alpha  occ. eigenvalues --   -0.52144  -0.52079  -0.51837  -0.51035  -0.51014
 Alpha  occ. eigenvalues --   -0.50654  -0.50292  -0.49979  -0.49581  -0.48493
 Alpha  occ. eigenvalues --   -0.48195  -0.47806  -0.47407  -0.47119  -0.45781
 Alpha  occ. eigenvalues --   -0.45367  -0.44500  -0.44161  -0.43953  -0.43767
 Alpha  occ. eigenvalues --   -0.42975  -0.42523  -0.42075  -0.41933  -0.41681
 Alpha  occ. eigenvalues --   -0.41206  -0.41090  -0.40192  -0.38519  -0.37772
 Alpha  occ. eigenvalues --   -0.37143  -0.36282  -0.32840  -0.31762  -0.31240
 Alpha  occ. eigenvalues --   -0.31210  -0.28830
 Alpha virt. eigenvalues --   -0.13429  -0.11836  -0.10115  -0.09420  -0.08899
 Alpha virt. eigenvalues --   -0.08184  -0.06497  -0.04822  -0.03815  -0.02839
 Alpha virt. eigenvalues --   -0.01517  -0.01457  -0.01107  -0.00680  -0.00314

 Mulliken charges:
               1
     1  N   -0.768718
     2  H    0.408188
     3  H    0.431450
     4  H    0.417403
     5  C   -0.106771
     6  H    0.203969
     7  C    0.671876
     8  C   -0.388539
     9  H    0.192249
    10  H    0.193167
    11  O   -0.521629
    12  C   -0.008892
    13  C    0.025392
    14  H    0.230035
    15  C    0.040813
    16  C    0.325110
    17  C   -0.248302
    18  H    0.129204
    19  N   -0.685798
    20  H    0.350543
    21  C   -0.150036
    22  H    0.158509
    23  C   -0.152617
    24  H    0.156049
    25  C   -0.129763
    26  H    0.152366
    27  N   -0.602862
    28  H    0.351385
    29  C   -0.056222
    30  H    0.159055
    31  C    0.630859
    32  C   -0.089285
    33  H    0.185026
    34  O   -0.536546
    35  C   -0.298957
    36  H    0.168617
    37  H    0.154760
    38  C   -0.459062
    39  H    0.149803
    40  H    0.168271
    41  H    0.147047
    42  C   -0.455709
    43  H    0.173304
    44  H    0.122277
    45  H    0.160830
    46  N   -0.574978
    47  H    0.348779
    48  C   -0.074217
    49  H    0.209759
    50  C    0.588018
    51  C   -0.285163
    52  H    0.155414
    53  H    0.180150
    54  O   -0.467704
    55  C   -0.272221
    56  H    0.174092
    57  H    0.158027
    58  C   -0.169648
    59  H    0.143866
    60  H    0.163705
    61  N   -0.604795
    62  H    0.327485
    63  N   -0.747235
    64  H    0.342758
    65  H    0.318183
    66  N   -0.630484
    67  H    0.276041
    68  C    0.566191
    69  O   -0.552670
    70  H    0.428799
 Sum of Mulliken charges =   1.00000

 Dipole moment (field-independent basis, Debye):
    X=             -4.0525    Y=            -11.8761    Z=              9.4815  Tot=             15.7278
 Quadrupole moment (field-independent basis, Debye-Ang):
   XX=           -174.1232   YY=           -120.0493   ZZ=           -168.3434
   XY=             17.9662   XZ=              1.3357   YZ=            -34.1426

 Normal termination of Gaussian 16 at Fri Jun  3 04:42:34 2022.
