 Gaussian 16, Revision C.01,
 Gaussian 16:  ES64L-G16RevC.01  3-Jul-2019

 ----------------------------------------------------------------------
 # B3LYP/6-31G* empiricaldispersion=gd3 guess=read geom=check nosymm in
 tegral(ultrafinegrid)
 ----------------------------------------------------------------------

 ------------------------------------------------------
 Candidate Structure: Conf:217 Charge calc in gas phase
 ------------------------------------------------------
 Structure from the checkpoint file:  "conf-217.chk"
 Charge =  1 Multiplicity = 1

                          Input orientation:
 ---------------------------------------------------------------------
 Center     Atomic      Atomic             Coordinates (Angstroms)
 Number     Number       Type             X           Y           Z
 ---------------------------------------------------------------------
      1          7           0       -0.910195   -3.672210    2.360307
      2          1           0       -1.554209   -4.437574    2.147367
      3          1           0       -0.147167   -3.657188    1.634306
      4          1           0       -0.519640   -3.821204    3.306613
      5          6           0       -1.549132   -2.308771    2.230189
      6          1           0       -2.625795   -2.458555    2.124127
      7          6           0       -0.906711   -1.732408    0.944902
      8          6           0       -1.238076   -1.403993    3.463077
      9          1           0       -0.272286   -0.916954    3.294111
     10          1           0       -1.995961   -0.613779    3.473718
     11          8           0        0.019163   -2.358025    0.422892
     12          6           0       -1.206128   -2.143705    4.762977
     13          6           0       -2.216386   -2.319969    5.681498
     14          1           0       -3.224551   -1.928034    5.684321
     15          6           0       -0.059018   -2.867811    5.265213
     16          6           0       -0.451351   -3.462198    6.496098
     17          6           0        1.258193   -3.064704    4.794351
     18          1           0        1.593765   -2.602116    3.868211
     19          7           0       -1.767906   -3.107294    6.715775
     20          1           0       -2.304503   -3.343535    7.537885
     21          6           0        1.714669   -4.416953    6.772039
     22          1           0        2.420357   -5.012321    7.342722
     23          6           0        0.425927   -4.237041    7.261247
     24          1           0        0.114700   -4.679988    8.202581
     25          6           0        2.128100   -3.838249    5.553269
     26          1           0        3.146043   -3.995020    5.209743
     27          7           0       -1.333248   -0.525686    0.545864
     28          1           0       -2.189836   -0.160880    0.941681
     29          6           0       -0.773466    0.155867   -0.644416
     30          1           0       -1.158002    1.181803   -0.583034
     31          6           0        0.774601    0.225285   -0.508020
     32          6           0       -1.211581   -0.462227   -1.993201
     33          1           0       -0.558505   -1.321754   -2.179145
     34          8           0        1.522650   -0.039075   -1.434439
     35          6           0       -0.989160    0.572860   -3.119673
     36          1           0       -1.752348    1.360758   -3.028996
     37          1           0       -0.015680    1.050601   -2.978322
     38          6           0       -2.671934   -0.932879   -1.947066
     39          1           0       -3.350310   -0.108705   -1.687283
     40          1           0       -2.981293   -1.313365   -2.923713
     41          1           0       -2.825952   -1.743196   -1.225317
     42          6           0       -1.028857   -0.034077   -4.525763
     43          1           0       -0.839329    0.735743   -5.280730
     44          1           0       -1.998392   -0.487836   -4.758367
     45          1           0       -0.257655   -0.805090   -4.634735
     46          7           0        1.225192    0.625320    0.715061
     47          1           0        0.570287    0.840881    1.451237
     48          6           0        2.654602    0.679604    0.996702
     49          1           0        3.111945   -0.143177    0.431201
     50          6           0        2.961598    0.404752    2.462488
     51          6           0        3.319171    1.989845    0.536217
     52          1           0        4.393803    1.912958    0.719963
     53          1           0        3.176120    2.058311   -0.547502
     54          8           0        4.020004    0.638266    2.989161
     55          6           0        2.761830    3.239164    1.225257
     56          1           0        2.857590    3.138676    2.316867
     57          1           0        1.690193    3.342082    1.010673
     58          6           0        3.468758    4.523238    0.781491
     59          1           0        3.381715    4.627861   -0.307067
     60          1           0        2.964851    5.396075    1.230155
     61          7           0        4.883553    4.473006    1.113353
     62          1           0        5.073716    4.183452    2.067836
     63          7           0        7.020233    5.352740    1.225205
     64          1           0        7.656245    6.034440    0.826197
     65          1           0        7.392536    4.410618    1.162728
     66          7           0        5.477801    6.478623   -0.098351
     67          1           0        4.481197    6.557144   -0.298626
     68          6           0        5.739810    5.496630    0.682094
     69          8           0        1.918688   -0.156790    3.154605
     70          1           0        2.240396   -0.276949    4.069895
 ---------------------------------------------------------------------

 SCF Done:  E(RB3LYP) =  -1582.19683035     A.U. after    1 cycles

 Alpha  occ. eigenvalues --  -19.31149 -19.28086 -19.24520 -19.21523 -14.59842
 Alpha  occ. eigenvalues --  -14.51508 -14.50601 -14.46349 -14.40042 -14.37959
 Alpha  occ. eigenvalues --  -14.32795 -10.44767 -10.42721 -10.41676 -10.39122
 Alpha  occ. eigenvalues --  -10.35253 -10.35083 -10.34990 -10.34215 -10.33677
 Alpha  occ. eigenvalues --  -10.32177 -10.31736 -10.31358 -10.30922 -10.30581
 Alpha  occ. eigenvalues --  -10.29913 -10.29852 -10.28605 -10.28563 -10.27218
 Alpha  occ. eigenvalues --  -10.26858 -10.26682 -10.25937 -10.24301  -1.21343
 Alpha  occ. eigenvalues --   -1.20505  -1.14405  -1.13682  -1.12368  -1.10545
 Alpha  occ. eigenvalues --   -1.07746  -1.02779  -1.01986  -0.96242  -0.95120
 Alpha  occ. eigenvalues --   -0.93656  -0.91668  -0.89679  -0.88574  -0.88021
 Alpha  occ. eigenvalues --   -0.85621  -0.84760  -0.83678  -0.82167  -0.81084
 Alpha  occ. eigenvalues --   -0.79936  -0.75971  -0.75006  -0.74529  -0.74202
 Alpha  occ. eigenvalues --   -0.73317  -0.72033  -0.71266  -0.70984  -0.69468
 Alpha  occ. eigenvalues --   -0.68861  -0.66704  -0.66509  -0.65673  -0.65485
 Alpha  occ. eigenvalues --   -0.63866  -0.63595  -0.63002  -0.60741  -0.59978
 Alpha  occ. eigenvalues --   -0.59541  -0.59046  -0.58819  -0.58708  -0.57490
 Alpha  occ. eigenvalues --   -0.57238  -0.56723  -0.56052  -0.55458  -0.55364
 Alpha  occ. eigenvalues --   -0.55046  -0.54286  -0.53943  -0.53776  -0.53532
 Alpha  occ. eigenvalues --   -0.53193  -0.52553  -0.51940  -0.51473  -0.50803
 Alpha  occ. eigenvalues --   -0.50241  -0.49977  -0.49935  -0.49757  -0.48535
 Alpha  occ. eigenvalues --   -0.47225  -0.47173  -0.46553  -0.46488  -0.46130
 Alpha  occ. eigenvalues --   -0.45679  -0.45430  -0.44256  -0.43776  -0.43473
 Alpha  occ. eigenvalues --   -0.42776  -0.42762  -0.42331  -0.42013  -0.40875
 Alpha  occ. eigenvalues --   -0.40615  -0.40390  -0.40068  -0.39872  -0.38263
 Alpha  occ. eigenvalues --   -0.35395  -0.34855  -0.34547  -0.32979  -0.30620
 Alpha  occ. eigenvalues --   -0.29934  -0.27526
 Alpha virt. eigenvalues --   -0.13990  -0.13232  -0.11282  -0.09889  -0.09664
 Alpha virt. eigenvalues --   -0.09152  -0.06821  -0.06182  -0.04762  -0.03278
 Alpha virt. eigenvalues --   -0.02904  -0.02101  -0.01547  -0.01010   0.00100

 Mulliken charges:
               1
     1  N   -0.764294
     2  H    0.412988
     3  H    0.430871
     4  H    0.418120
     5  C   -0.102492
     6  H    0.209931
     7  C    0.652422
     8  C   -0.406978
     9  H    0.224395
    10  H    0.180680
    11  O   -0.514563
    12  C    0.022270
    13  C    0.020884
    14  H    0.179860
    15  C    0.020426
    16  C    0.326804
    17  C   -0.265307
    18  H    0.143326
    19  N   -0.679217
    20  H    0.355612
    21  C   -0.147895
    22  H    0.165663
    23  C   -0.149985
    24  H    0.161926
    25  C   -0.129480
    26  H    0.160300
    27  N   -0.621105
    28  H    0.351083
    29  C   -0.070907
    30  H    0.176922
    31  C    0.641799
    32  C   -0.064896
    33  H    0.172803
    34  O   -0.497558
    35  C   -0.271045
    36  H    0.128266
    37  H    0.170287
    38  C   -0.465054
    39  H    0.138615
    40  H    0.181848
    41  H    0.116755
    42  C   -0.455448
    43  H    0.163125
    44  H    0.147636
    45  H    0.162137
    46  N   -0.615468
    47  H    0.333525
    48  C   -0.052539
    49  H    0.221369
    50  C    0.589374
    51  C   -0.251219
    52  H    0.186616
    53  H    0.173585
    54  O   -0.437059
    55  C   -0.305461
    56  H    0.140237
    57  H    0.131433
    58  C   -0.125157
    59  H    0.161598
    60  H    0.145296
    61  N   -0.603060
    62  H    0.324092
    63  N   -0.750930
    64  H    0.340393
    65  H    0.319583
    66  N   -0.638427
    67  H    0.277351
    68  C    0.578068
    69  O   -0.598897
    70  H    0.424170
 Sum of Mulliken charges =   1.00000

 Dipole moment (field-independent basis, Debye):
    X=             -9.5587    Y=            -13.6820    Z=             17.6625  Tot=             24.3008
 Quadrupole moment (field-independent basis, Debye-Ang):
   XX=           -178.1162   YY=           -167.6179   ZZ=           -107.5749
   XY=             -0.2363   XZ=            -16.1035   YZ=            -54.9952

 Normal termination of Gaussian 16 at Fri Jun  3 04:42:17 2022.
