 Gaussian 16, Revision C.01,
 Gaussian 16:  ES64L-G16RevC.01  3-Jul-2019

 ----------------------------------------------------------------------
 # B3LYP/6-31G* empiricaldispersion=gd3 guess=read geom=check nosymm in
 tegral(ultrafinegrid)
 ----------------------------------------------------------------------

 ------------------------------------------------------
 Candidate Structure: Conf:746 Charge calc in gas phase
 ------------------------------------------------------
 Structure from the checkpoint file:  "conf-746.chk"
 Charge =  1 Multiplicity = 1

                          Input orientation:
 ---------------------------------------------------------------------
 Center     Atomic      Atomic             Coordinates (Angstroms)
 Number     Number       Type             X           Y           Z
 ---------------------------------------------------------------------
      1          7           0       -1.835311   -2.388387    3.341533
      2          1           0       -2.566868   -1.877756    3.843955
      3          1           0       -2.284834   -2.990910    2.615388
      4          1           0       -1.278240   -2.944338    4.012164
      5          6           0       -0.913248   -1.499394    2.543163
      6          1           0       -0.789089   -0.554989    3.075146
      7          6           0       -1.576952   -1.385573    1.156478
      8          6           0        0.432926   -2.253388    2.401787
      9          1           0        0.246930   -3.170955    1.831492
     10          1           0        1.082791   -1.644680    1.772393
     11          8           0       -2.245030   -2.352814    0.788096
     12          6           0        1.057295   -2.556276    3.727329
     13          6           0        1.241873   -3.808901    4.279690
     14          1           0        1.001525   -4.781776    3.870842
     15          6           0        1.636002   -1.608717    4.650581
     16          6           0        2.166479   -2.359468    5.733485
     17          6           0        1.766010   -0.204867    4.663020
     18          1           0        1.345636    0.400937    3.865282
     19          7           0        1.900645   -3.692808    5.480583
     20          1           0        2.200588   -4.466169    6.055666
     21          6           0        2.958867   -0.373899    6.785925
     22          1           0        3.473935    0.125051    7.600851
     23          6           0        2.828489   -1.757135    6.808424
     24          1           0        3.231482   -2.347589    7.626000
     25          6           0        2.432044    0.394678    5.726659
     26          1           0        2.542570    1.474781    5.749678
     27          7           0       -1.319106   -0.242858    0.484799
     28          1           0       -0.705430    0.394108    0.993021
     29          6           0       -1.059139   -0.149272   -0.983053
     30          1           0       -1.265289    0.893821   -1.253897
     31          6           0        0.461760   -0.426186   -1.002098
     32          6           0       -1.916135   -1.056213   -1.878357
     33          1           0       -1.694438   -2.094900   -1.614069
     34          8           0        0.906073   -1.527263   -0.702615
     35          6           0       -1.580294   -0.844050   -3.373414
     36          1           0       -2.335583   -1.401967   -3.939808
     37          1           0       -1.739998    0.213580   -3.631952
     38          6           0       -3.409109   -0.775291   -1.644171
     39          1           0       -3.658744    0.259868   -1.910066
     40          1           0       -4.015758   -1.434139   -2.273598
     41          1           0       -3.700856   -0.948011   -0.606459
     42          6           0       -0.191184   -1.294130   -3.846962
     43          1           0       -0.156124   -1.310565   -4.941312
     44          1           0        0.045352   -2.300471   -3.485162
     45          1           0        0.607219   -0.624411   -3.512668
     46          7           0        1.262533    0.672899   -1.162653
     47          1           0        0.802063    1.571188   -1.241404
     48          6           0        2.561542    0.691406   -0.501859
     49          1           0        3.127935   -0.190138   -0.810653
     50          6           0        2.323485    0.586271    1.012851
     51          6           0        3.329626    1.975033   -0.875165
     52          1           0        3.365254    2.011143   -1.971288
     53          1           0        2.744226    2.846169   -0.545767
     54          8           0        1.271487    0.892348    1.557951
     55          6           0        4.745234    2.061845   -0.295892
     56          1           0        5.321026    1.171266   -0.580894
     57          1           0        4.708219    2.079978    0.797009
     58          6           0        5.483211    3.324966   -0.767048
     59          1           0        5.637960    3.301412   -1.851901
     60          1           0        4.867600    4.206485   -0.560579
     61          7           0        6.794698    3.503757   -0.140917
     62          1           0        7.500771    2.879043   -0.513430
     63          7           0        5.887132    4.433538    1.807052
     64          1           0        6.100493    4.613376    2.783007
     65          1           0        5.739014    5.304811    1.305596
     66          7           0        7.792874    3.131702    2.019115
     67          1           0        8.391261    2.473049    1.516804
     68          6           0        6.901911    3.639886    1.251096
     69          8           0        3.383414    0.118433    1.670779
     70          1           0        3.189480    0.101521    2.632280
 ---------------------------------------------------------------------

 SCF Done:  E(RB3LYP) =  -1582.20876605     A.U. after    1 cycles

 Alpha  occ. eigenvalues --  -19.31254 -19.26386 -19.25905 -19.22766 -14.59602
 Alpha  occ. eigenvalues --  -14.49238 -14.48860 -14.47130 -14.41282 -14.39974
 Alpha  occ. eigenvalues --  -14.34360 -10.44050 -10.42831 -10.39729 -10.39555
 Alpha  occ. eigenvalues --  -10.34746 -10.34679 -10.34021 -10.33754 -10.32785
 Alpha  occ. eigenvalues --  -10.32654 -10.30500 -10.29673 -10.29673 -10.29648
 Alpha  occ. eigenvalues --  -10.29249 -10.29074 -10.28581 -10.28531 -10.28221
 Alpha  occ. eigenvalues --  -10.26924 -10.26380 -10.25344 -10.24677  -1.22519
 Alpha  occ. eigenvalues --   -1.18298  -1.15049  -1.13568  -1.13374  -1.09218
 Alpha  occ. eigenvalues --   -1.05546  -1.03834  -1.03426  -0.94852  -0.94753
 Alpha  occ. eigenvalues --   -0.93568  -0.91140  -0.90267  -0.89347  -0.88342
 Alpha  occ. eigenvalues --   -0.84234  -0.84046  -0.83289  -0.81960  -0.79995
 Alpha  occ. eigenvalues --   -0.78844  -0.76619  -0.73620  -0.72999  -0.72934
 Alpha  occ. eigenvalues --   -0.72636  -0.72034  -0.70061  -0.69769  -0.69539
 Alpha  occ. eigenvalues --   -0.68192  -0.67836  -0.65859  -0.65303  -0.64892
 Alpha  occ. eigenvalues --   -0.64438  -0.63096  -0.61853  -0.61600  -0.60715
 Alpha  occ. eigenvalues --   -0.60356  -0.59586  -0.59098  -0.57906  -0.57614
 Alpha  occ. eigenvalues --   -0.56908  -0.56229  -0.55280  -0.54646  -0.54340
 Alpha  occ. eigenvalues --   -0.53667  -0.53538  -0.53173  -0.52711  -0.52350
 Alpha  occ. eigenvalues --   -0.52037  -0.51936  -0.51568  -0.50979  -0.50731
 Alpha  occ. eigenvalues --   -0.50115  -0.49594  -0.49437  -0.48988  -0.48849
 Alpha  occ. eigenvalues --   -0.48777  -0.48312  -0.47239  -0.46245  -0.45800
 Alpha  occ. eigenvalues --   -0.44989  -0.44557  -0.44184  -0.44009  -0.43860
 Alpha  occ. eigenvalues --   -0.43421  -0.42641  -0.42074  -0.41568  -0.41072
 Alpha  occ. eigenvalues --   -0.40575  -0.40485  -0.39653  -0.39030  -0.38297
 Alpha  occ. eigenvalues --   -0.37560  -0.35336  -0.33155  -0.32577  -0.31810
 Alpha  occ. eigenvalues --   -0.31637  -0.28656
 Alpha virt. eigenvalues --   -0.13561  -0.12384  -0.11429  -0.09881  -0.08223
 Alpha virt. eigenvalues --   -0.07958  -0.05468  -0.04129  -0.03481  -0.02143
 Alpha virt. eigenvalues --   -0.01713  -0.01382  -0.01117  -0.00954   0.00040

 Mulliken charges:
               1
     1  N   -0.734623
     2  H    0.414750
     3  H    0.420313
     4  H    0.393110
     5  C   -0.133885
     6  H    0.213241
     7  C    0.658772
     8  C   -0.378962
     9  H    0.192834
    10  H    0.225325
    11  O   -0.521556
    12  C    0.001009
    13  C   -0.005916
    14  H    0.180639
    15  C    0.088968
    16  C    0.314161
    17  C   -0.295163
    18  H    0.168140
    19  N   -0.677385
    20  H    0.351989
    21  C   -0.144873
    22  H    0.160133
    23  C   -0.151123
    24  H    0.156405
    25  C   -0.137185
    26  H    0.152887
    27  N   -0.610755
    28  H    0.376273
    29  C   -0.059568
    30  H    0.153444
    31  C    0.617137
    32  C   -0.090056
    33  H    0.173248
    34  O   -0.521192
    35  C   -0.267150
    36  H    0.158309
    37  H    0.132403
    38  C   -0.454839
    39  H    0.142968
    40  H    0.164552
    41  H    0.158296
    42  C   -0.464699
    43  H    0.161657
    44  H    0.164558
    45  H    0.146856
    46  N   -0.585522
    47  H    0.338535
    48  C   -0.035251
    49  H    0.214991
    50  C    0.615837
    51  C   -0.307999
    52  H    0.176020
    53  H    0.151436
    54  O   -0.513618
    55  C   -0.272179
    56  H    0.144965
    57  H    0.181405
    58  C   -0.141666
    59  H    0.155867
    60  H    0.153575
    61  N   -0.577002
    62  H    0.315491
    63  N   -0.744105
    64  H    0.339244
    65  H    0.326226
    66  N   -0.624069
    67  H    0.268477
    68  C    0.539130
    69  O   -0.549050
    70  H    0.435815
 Sum of Mulliken charges =   1.00000

 Dipole moment (field-independent basis, Debye):
    X=              0.0624    Y=             -5.0144    Z=             12.1380  Tot=             13.1331
 Quadrupole moment (field-independent basis, Debye-Ang):
   XX=           -178.4949   YY=           -152.0097   ZZ=           -114.0650
   XY=              7.1303   XZ=            -12.4775   YZ=            -52.0921

 Normal termination of Gaussian 16 at Fri Jun  3 04:42:21 2022.
