 Gaussian 16, Revision C.01,
 Gaussian 16:  ES64L-G16RevC.01  3-Jul-2019

 ----------------------------------------------------------------------
 # B3LYP/6-31G* empiricaldispersion=gd3 guess=read geom=check nosymm in
 tegral(ultrafinegrid)
 ----------------------------------------------------------------------

 ------------------------------------------------------
 Candidate Structure: Conf:929 Charge calc in gas phase
 ------------------------------------------------------
 Structure from the checkpoint file:  "conf-929.chk"
 Charge =  1 Multiplicity = 1

                          Input orientation:
 ---------------------------------------------------------------------
 Center     Atomic      Atomic             Coordinates (Angstroms)
 Number     Number       Type             X           Y           Z
 ---------------------------------------------------------------------
      1          7           0       -1.779412   -3.879110    1.946442
      2          1           0       -2.697049   -3.686541    2.357226
      3          1           0       -1.857483   -3.806823    0.886030
      4          1           0       -1.477492   -4.813533    2.237249
      5          6           0       -0.747788   -2.807729    2.242153
      6          1           0       -1.094451   -2.213994    3.090060
      7          6           0       -0.741442   -1.982434    0.926297
      8          6           0        0.612931   -3.469834    2.558639
      9          1           0        0.444712   -4.181976    3.382106
     10          1           0        0.931231   -4.043979    1.679839
     11          8           0       -1.270427   -2.505958   -0.062576
     12          6           0        1.667393   -2.478385    2.930043
     13          6           0        2.836952   -2.256269    2.238828
     14          1           0        3.171478   -2.699355    1.312392
     15          6           0        1.676289   -1.585029    4.065517
     16          6           0        2.895313   -0.851983    3.992729
     17          6           0        0.798160   -1.334818    5.137517
     18          1           0       -0.126294   -1.898292    5.249403
     19          7           0        3.578103   -1.293783    2.873043
     20          1           0        4.472512   -0.924189    2.537069
     21          6           0        2.360829    0.336976    5.983238
     22          1           0        2.606143    1.072958    6.742912
     23          6           0        3.256615    0.107503    4.944999
     24          1           0        4.205981    0.634170    4.883470
     25          6           0        1.145889   -0.374719    6.079507
     26          1           0        0.479300   -0.175081    6.913340
     27          7           0       -0.220632   -0.754855    1.013547
     28          1           0        0.294647   -0.566958    1.869305
     29          6           0        0.121942    0.116531   -0.124870
     30          1           0        0.217317    1.117421    0.314217
     31          6           0        1.521832   -0.334657   -0.616718
     32          6           0       -0.981979    0.202133   -1.215569
     33          1           0       -1.068117   -0.782205   -1.682266
     34          8           0        1.889328   -1.501267   -0.525196
     35          6           0       -0.622700    1.237435   -2.315741
     36          1           0       -1.554508    1.714818   -2.640606
     37          1           0       -0.029611    2.060416   -1.885919
     38          6           0       -2.328423    0.558938   -0.565266
     39          1           0       -2.285972    1.544613   -0.084433
     40          1           0       -3.109502    0.595825   -1.331062
     41          1           0       -2.637810   -0.173798    0.184817
     42          6           0        0.072462    0.651027   -3.550384
     43          1           0        0.265709    1.436104   -4.289900
     44          1           0       -0.574040   -0.095693   -4.025852
     45          1           0        1.025395    0.168195   -3.322608
     46          7           0        2.331066    0.655783   -1.070142
     47          1           0        1.969531    1.593134   -1.166062
     48          6           0        3.749739    0.428136   -1.339634
     49          1           0        4.110923    1.324799   -1.857948
     50          6           0        3.900780   -0.712721   -2.359171
     51          6           0        4.516530    0.252102   -0.014599
     52          1           0        4.066682    0.957783    0.695227
     53          1           0        4.302365   -0.748793    0.358888
     54          8           0        3.195877   -0.852812   -3.328314
     55          6           0        6.029468    0.500244   -0.058464
     56          1           0        6.250948    1.390435   -0.662481
     57          1           0        6.541549   -0.337517   -0.543194
     58          6           0        6.600939    0.746543    1.342406
     59          1           0        7.667804    1.005136    1.280486
     60          1           0        6.083982    1.603474    1.788739
     61          7           0        6.384308   -0.404113    2.229919
     62          1           0        6.828938   -1.247446    1.871846
     63          7           0        6.639532   -1.484137    4.271150
     64          1           0        6.711908   -1.372477    5.276044
     65          1           0        5.902966   -2.129369    4.006583
     66          7           0        6.812103    0.827316    4.280077
     67          1           0        6.947535    1.638349    3.678832
     68          6           0        6.636338   -0.255291    3.620254
     69          8           0        4.959645   -1.505408   -2.086567
     70          1           0        5.002774   -2.166303   -2.804264
 ---------------------------------------------------------------------

 SCF Done:  E(RB3LYP) =  -1582.20968622     A.U. after    3 cycles

 Alpha  occ. eigenvalues --  -19.28977 -19.26838 -19.22790 -19.22589 -14.59979
 Alpha  occ. eigenvalues --  -14.49836 -14.47144 -14.46636 -14.44800 -14.42036
 Alpha  occ. eigenvalues --  -14.37136 -10.43555 -10.41380 -10.40376 -10.39669
 Alpha  occ. eigenvalues --  -10.36518 -10.35213 -10.34578 -10.33809 -10.31717
 Alpha  occ. eigenvalues --  -10.31488 -10.30965 -10.29134 -10.28728 -10.28665
 Alpha  occ. eigenvalues --  -10.28344 -10.28260 -10.28061 -10.27242 -10.27180
 Alpha  occ. eigenvalues --  -10.27016 -10.26908 -10.26668 -10.24201  -1.19773
 Alpha  occ. eigenvalues --   -1.19337  -1.14683  -1.13707  -1.10688  -1.07310
 Alpha  occ. eigenvalues --   -1.06392  -1.06053  -1.03520  -0.97483  -0.94379
 Alpha  occ. eigenvalues --   -0.92679  -0.92469  -0.91262  -0.89382  -0.87468
 Alpha  occ. eigenvalues --   -0.84770  -0.83285  -0.82489  -0.81737  -0.80418
 Alpha  occ. eigenvalues --   -0.79014  -0.76618  -0.74056  -0.73468  -0.73112
 Alpha  occ. eigenvalues --   -0.72438  -0.71188  -0.70476  -0.70115  -0.68414
 Alpha  occ. eigenvalues --   -0.67752  -0.66950  -0.66725  -0.66048  -0.65244
 Alpha  occ. eigenvalues --   -0.63498  -0.63281  -0.62552  -0.62189  -0.60615
 Alpha  occ. eigenvalues --   -0.59428  -0.58556  -0.57981  -0.57825  -0.57330
 Alpha  occ. eigenvalues --   -0.56800  -0.56415  -0.55724  -0.55089  -0.54804
 Alpha  occ. eigenvalues --   -0.54332  -0.53437  -0.53028  -0.52580  -0.52406
 Alpha  occ. eigenvalues --   -0.51997  -0.51938  -0.51310  -0.50856  -0.50758
 Alpha  occ. eigenvalues --   -0.50352  -0.49980  -0.49721  -0.49370  -0.48806
 Alpha  occ. eigenvalues --   -0.48365  -0.47920  -0.47842  -0.47151  -0.45436
 Alpha  occ. eigenvalues --   -0.44952  -0.44478  -0.44311  -0.44138  -0.43622
 Alpha  occ. eigenvalues --   -0.42760  -0.42509  -0.42199  -0.41455  -0.41073
 Alpha  occ. eigenvalues --   -0.40749  -0.40214  -0.39785  -0.37098  -0.36823
 Alpha  occ. eigenvalues --   -0.36110  -0.35647  -0.35218  -0.34050  -0.31984
 Alpha  occ. eigenvalues --   -0.31448  -0.29865
 Alpha virt. eigenvalues --   -0.12644  -0.11174  -0.10332  -0.08694  -0.08459
 Alpha virt. eigenvalues --   -0.07028  -0.06278  -0.04797  -0.03854  -0.03680
 Alpha virt. eigenvalues --   -0.02437  -0.01741  -0.01178  -0.00994  -0.00847

 Mulliken charges:
               1
     1  N   -0.758383
     2  H    0.415716
     3  H    0.433592
     4  H    0.412930
     5  C   -0.129495
     6  H    0.217867
     7  C    0.678159
     8  C   -0.369841
     9  H    0.174220
    10  H    0.189970
    11  O   -0.536325
    12  C    0.004794
    13  C    0.025070
    14  H    0.187688
    15  C    0.069371
    16  C    0.274673
    17  C   -0.228129
    18  H    0.106414
    19  N   -0.729508
    20  H    0.401786
    21  C   -0.158508
    22  H    0.152702
    23  C   -0.172658
    24  H    0.181630
    25  C   -0.132529
    26  H    0.142684
    27  N   -0.589304
    28  H    0.369631
    29  C   -0.089767
    30  H    0.161778
    31  C    0.651576
    32  C   -0.074315
    33  H    0.187617
    34  O   -0.529227
    35  C   -0.286127
    36  H    0.161953
    37  H    0.109939
    38  C   -0.455537
    39  H    0.149409
    40  H    0.170639
    41  H    0.134483
    42  C   -0.481983
    43  H    0.154022
    44  H    0.155604
    45  H    0.196063
    46  N   -0.595474
    47  H    0.349028
    48  C   -0.065066
    49  H    0.188034
    50  C    0.622494
    51  C   -0.258056
    52  H    0.140300
    53  H    0.172259
    54  O   -0.438071
    55  C   -0.297779
    56  H    0.152736
    57  H    0.173976
    58  C   -0.146006
    59  H    0.169664
    60  H    0.157619
    61  N   -0.641012
    62  H    0.336942
    63  N   -0.742450
    64  H    0.351544
    65  H    0.324659
    66  N   -0.629415
    67  H    0.292063
    68  C    0.575436
    69  O   -0.569496
    70  H    0.425723
 Sum of Mulliken charges =   1.00000

 Dipole moment (field-independent basis, Debye):
    X=              2.5987    Y=             -9.1623    Z=              7.2457  Tot=             11.9666
 Quadrupole moment (field-independent basis, Debye-Ang):
   XX=           -138.7838   YY=           -139.9104   ZZ=           -182.6135
   XY=             18.2642   XZ=            -22.4405   YZ=            -33.5376

 Normal termination of Gaussian 16 at Fri Jun  3 04:42:57 2022.
