 Gaussian 16, Revision C.01,
 Gaussian 16:  ES64L-G16RevC.01  3-Jul-2019

 ----------------------------------------------------------------------
 # B3LYP/6-31G* empiricaldispersion=gd3 guess=read geom=check nosymm in
 tegral(ultrafinegrid)
 ----------------------------------------------------------------------

 ------------------------------------------------------
 Candidate Structure: Conf:404 Charge calc in gas phase
 ------------------------------------------------------
 Structure from the checkpoint file:  "conf-404.chk"
 Charge =  1 Multiplicity = 1

                          Input orientation:
 ---------------------------------------------------------------------
 Center     Atomic      Atomic             Coordinates (Angstroms)
 Number     Number       Type             X           Y           Z
 ---------------------------------------------------------------------
      1          7           0        0.188890   -2.685931    2.765128
      2          1           0        0.078294   -3.103438    3.697898
      3          1           0        0.000688   -3.357386    2.008760
      4          1           0        1.164447   -2.361131    2.617151
      5          6           0       -0.746119   -1.515904    2.591415
      6          1           0       -1.744760   -1.894726    2.826152
      7          6           0       -0.668793   -1.198549    1.084154
      8          6           0       -0.362732   -0.369800    3.550977
      9          1           0        0.465191    0.199392    3.114431
     10          1           0       -1.233641    0.300884    3.600331
     11          8           0       -0.268288   -2.068169    0.314087
     12          6           0        0.050331   -0.840122    4.915773
     13          6           0        1.147182   -0.365397    5.600954
     14          1           0        1.831170    0.432770    5.322054
     15          6           0       -0.554224   -1.863561    5.739116
     16          6           0        0.247084   -1.963224    6.913647
     17          6           0       -1.671582   -2.716978    5.616231
     18          1           0       -2.349472   -2.640556    4.769132
     19          7           0        1.261454   -1.034097    6.795724
     20          1           0        1.958268   -0.842322    7.499842
     21          6           0       -1.128902   -3.710013    7.775718
     22          1           0       -1.370164   -4.429182    8.552242
     23          6           0       -0.028156   -2.875721    7.935119
     24          1           0        0.594572   -2.929642    8.823460
     25          6           0       -1.943432   -3.630376    6.628884
     26          1           0       -2.807732   -4.282215    6.544150
     27          7           0       -0.997568    0.051418    0.698600
     28          1           0       -1.427257    0.681361    1.361151
     29          6           0       -0.736456    0.528639   -0.676510
     30          1           0       -0.889453    1.613183   -0.620880
     31          6           0        0.775157    0.290881   -0.970731
     32          6           0       -1.655924   -0.053850   -1.782951
     33          1           0       -1.113076   -0.884067   -2.244664
     34          8           0        1.191124   -0.215873   -1.993747
     35          6           0       -1.943124    1.012499   -2.864967
     36          1           0       -2.574821    0.541142   -3.627998
     37          1           0       -2.558243    1.807203   -2.414331
     38          6           0       -2.980334   -0.585226   -1.217423
     39          1           0       -3.531215    0.191020   -0.670718
     40          1           0       -3.620840   -0.923945   -2.037885
     41          1           0       -2.827043   -1.438460   -0.550219
     42          6           0       -0.723477    1.636141   -3.552983
     43          1           0       -1.047363    2.319866   -4.344774
     44          1           0       -0.081348    0.869349   -3.993896
     45          1           0       -0.104392    2.216539   -2.857847
     46          7           0        1.613574    0.741583    0.028639
     47          1           0        1.189365    0.958395    0.920886
     48          6           0        2.994596    0.298032    0.093786
     49          1           0        3.388503    0.253283   -0.922725
     50          6           0        3.065455   -1.089903    0.727377
     51          6           0        3.823574    1.228544    1.000131
     52          1           0        3.381724    1.172205    2.000128
     53          1           0        4.838289    0.824635    1.090873
     54          8           0        2.387569   -1.416871    1.693021
     55          6           0        3.878879    2.684796    0.524493
     56          1           0        2.867523    3.033554    0.277841
     57          1           0        4.465089    2.755230   -0.400942
     58          6           0        4.489313    3.626178    1.579665
     59          1           0        5.489691    3.284384    1.856956
     60          1           0        4.603376    4.629725    1.157669
     61          7           0        3.677960    3.755650    2.800039
     62          1           0        2.777933    4.190169    2.631135
     63          7           0        4.839534    2.167974    4.054006
     64          1           0        4.784876    1.574506    4.873024
     65          1           0        5.622034    2.810946    4.100943
     66          7           0        2.555729    2.352635    4.389814
     67          1           0        1.716896    2.792112    4.006625
     68          6           0        3.615116    2.760857    3.770562
     69          8           0        3.998031   -1.865638    0.182116
     70          1           0        4.037021   -2.710096    0.671394
 ---------------------------------------------------------------------

 SCF Done:  E(RB3LYP) =  -1582.22226922     A.U. after    1 cycles

 Alpha  occ. eigenvalues --  -19.32212 -19.27301 -19.25353 -19.21974 -14.57497
 Alpha  occ. eigenvalues --  -14.49630 -14.47838 -14.46451 -14.44538 -14.43588
 Alpha  occ. eigenvalues --  -14.38624 -10.44754 -10.42682 -10.39349 -10.39129
 Alpha  occ. eigenvalues --  -10.37980 -10.34509 -10.34435 -10.33188 -10.31794
 Alpha  occ. eigenvalues --  -10.31777 -10.31435 -10.29451 -10.29036 -10.28939
 Alpha  occ. eigenvalues --  -10.28896 -10.28560 -10.28427 -10.27804 -10.27742
 Alpha  occ. eigenvalues --  -10.27525 -10.25792 -10.25721 -10.23948  -1.23401
 Alpha  occ. eigenvalues --   -1.18018  -1.14490  -1.14016  -1.12171  -1.07833
 Alpha  occ. eigenvalues --   -1.07174  -1.05972  -1.03110  -0.98118  -0.93969
 Alpha  occ. eigenvalues --   -0.93938  -0.93040  -0.90530  -0.89553  -0.87597
 Alpha  occ. eigenvalues --   -0.84871  -0.83389  -0.82745  -0.81601  -0.79861
 Alpha  occ. eigenvalues --   -0.78647  -0.77965  -0.73741  -0.73266  -0.72539
 Alpha  occ. eigenvalues --   -0.71780  -0.70719  -0.70460  -0.69718  -0.69579
 Alpha  occ. eigenvalues --   -0.68886  -0.68626  -0.67034  -0.65322  -0.64392
 Alpha  occ. eigenvalues --   -0.64059  -0.64001  -0.63256  -0.62095  -0.61097
 Alpha  occ. eigenvalues --   -0.59944  -0.58826  -0.58337  -0.57860  -0.57568
 Alpha  occ. eigenvalues --   -0.56775  -0.56369  -0.56249  -0.55943  -0.54783
 Alpha  occ. eigenvalues --   -0.53963  -0.53880  -0.53394  -0.53074  -0.53002
 Alpha  occ. eigenvalues --   -0.52903  -0.52626  -0.51674  -0.51194  -0.51043
 Alpha  occ. eigenvalues --   -0.50561  -0.50087  -0.49403  -0.49224  -0.48608
 Alpha  occ. eigenvalues --   -0.48456  -0.48188  -0.47844  -0.47386  -0.45753
 Alpha  occ. eigenvalues --   -0.45170  -0.45027  -0.44835  -0.44283  -0.43835
 Alpha  occ. eigenvalues --   -0.43442  -0.43337  -0.43064  -0.41744  -0.40976
 Alpha  occ. eigenvalues --   -0.40595  -0.40184  -0.39046  -0.38926  -0.37476
 Alpha  occ. eigenvalues --   -0.36774  -0.36186  -0.35087  -0.34896  -0.32205
 Alpha  occ. eigenvalues --   -0.32083  -0.30448
 Alpha virt. eigenvalues --   -0.12364  -0.11602  -0.10877  -0.09048  -0.07661
 Alpha virt. eigenvalues --   -0.06745  -0.05998  -0.05002  -0.04437  -0.03522
 Alpha virt. eigenvalues --   -0.02830  -0.02389  -0.01595  -0.00818  -0.00449

 Mulliken charges:
               1
     1  N   -0.749617
     2  H    0.411705
     3  H    0.412721
     4  H    0.442289
     5  C   -0.135214
     6  H    0.225544
     7  C    0.675245
     8  C   -0.378176
     9  H    0.179726
    10  H    0.173439
    11  O   -0.527964
    12  C   -0.013618
    13  C    0.009118
    14  H    0.233252
    15  C    0.054119
    16  C    0.317631
    17  C   -0.256241
    18  H    0.123789
    19  N   -0.686965
    20  H    0.345729
    21  C   -0.150188
    22  H    0.155172
    23  C   -0.154770
    24  H    0.151521
    25  C   -0.130516
    26  H    0.148657
    27  N   -0.641108
    28  H    0.348707
    29  C   -0.050578
    30  H    0.172923
    31  C    0.629201
    32  C   -0.077788
    33  H    0.183410
    34  O   -0.482729
    35  C   -0.267260
    36  H    0.154196
    37  H    0.127467
    38  C   -0.458771
    39  H    0.131621
    40  H    0.170177
    41  H    0.143555
    42  C   -0.452999
    43  H    0.156004
    44  H    0.180411
    45  H    0.126747
    46  N   -0.600851
    47  H    0.328907
    48  C   -0.044984
    49  H    0.214767
    50  C    0.628761
    51  C   -0.307439
    52  H    0.171799
    53  H    0.174694
    54  O   -0.529718
    55  C   -0.266308
    56  H    0.144359
    57  H    0.163393
    58  C   -0.159783
    59  H    0.168507
    60  H    0.174971
    61  N   -0.573421
    62  H    0.316535
    63  N   -0.726756
    64  H    0.340212
    65  H    0.341833
    66  N   -0.653508
    67  H    0.263318
    68  C    0.560189
    69  O   -0.523249
    70  H    0.424198
 Sum of Mulliken charges =   1.00000

 Dipole moment (field-independent basis, Debye):
    X=              5.8569    Y=             -2.0005    Z=             15.3512  Tot=             16.5518
 Quadrupole moment (field-independent basis, Debye-Ang):
   XX=           -147.7730   YY=           -154.3473   ZZ=           -129.7820
   XY=             11.0977   XZ=             27.5449   YZ=            -27.7183

 Normal termination of Gaussian 16 at Fri Jun  3 04:42:19 2022.
