 Gaussian 16, Revision C.01,
 Gaussian 16:  ES64L-G16RevC.01  3-Jul-2019

 ----------------------------------------------------------------------
 # B3LYP/6-31G* empiricaldispersion=gd3 guess=read geom=check nosymm in
 tegral(ultrafinegrid)
 ----------------------------------------------------------------------

 ------------------------------------------------------
 Candidate Structure: Conf:920 Charge calc in gas phase
 ------------------------------------------------------
 Structure from the checkpoint file:  "conf-920.chk"
 Charge =  1 Multiplicity = 1

                          Input orientation:
 ---------------------------------------------------------------------
 Center     Atomic      Atomic             Coordinates (Angstroms)
 Number     Number       Type             X           Y           Z
 ---------------------------------------------------------------------
      1          7           0       -1.307607   -2.472720    3.024606
      2          1           0       -1.802385   -3.365365    3.090373
      3          1           0       -0.318806   -2.654104    2.709368
      4          1           0       -1.320784   -2.012678    3.950980
      5          6           0       -1.861974   -1.566089    1.951498
      6          1           0       -2.818627   -1.981958    1.628674
      7          6           0       -0.783953   -1.620983    0.841801
      8          6           0       -2.038782   -0.100197    2.464285
      9          1           0       -1.103104    0.440937    2.286298
     10          1           0       -2.797372    0.367837    1.828759
     11          8           0        0.286183   -2.177877    1.098828
     12          6           0       -2.402164    0.009952    3.910779
     13          6           0       -3.644199    0.184995    4.479007
     14          1           0       -4.610857    0.295976    4.006547
     15          6           0       -1.451950   -0.047000    5.000873
     16          6           0       -2.194061    0.105727    6.204071
     17          6           0       -0.049368   -0.197676    5.071708
     18          1           0        0.558710   -0.324098    4.179699
     19          7           0       -3.522084    0.239399    5.846954
     20          1           0       -4.283054    0.406484    6.489311
     21          6           0       -0.197088   -0.023744    7.499369
     22          1           0        0.310024   -0.012969    8.459027
     23          6           0       -1.579760    0.118552    7.460356
     24          1           0       -2.158694    0.240260    8.370999
     25          6           0        0.561037   -0.180292    6.319770
     26          1           0        1.639856   -0.282216    6.382879
     27          7           0       -1.043614   -0.948203   -0.287176
     28          1           0       -1.991376   -0.639323   -0.459263
     29          6           0       -0.064299   -0.825791   -1.393286
     30          1           0       -0.444717    0.007473   -1.996703
     31          6           0        1.305188   -0.384360   -0.793634
     32          6           0        0.066685   -2.084526   -2.292583
     33          1           0        0.930009   -2.647854   -1.924958
     34          8           0        2.344325   -0.969844   -1.034407
     35          6           0        0.333511   -1.674698   -3.759521
     36          1           0        0.445350   -2.598317   -4.340731
     37          1           0       -0.569343   -1.179934   -4.150787
     38          6           0       -1.176228   -2.983692   -2.227982
     39          1           0       -2.086641   -2.446539   -2.526378
     40          1           0       -1.057308   -3.826414   -2.915870
     41          1           0       -1.334377   -3.402675   -1.228375
     42          6           0        1.555600   -0.783921   -4.010485
     43          1           0        1.685795   -0.621745   -5.085539
     44          1           0        2.466180   -1.237586   -3.611328
     45          1           0        1.453749    0.203947   -3.544763
     46          7           0        1.229466    0.716796    0.014439
     47          1           0        0.345713    1.189422    0.144296
     48          6           0        2.366211    1.182832    0.801872
     49          1           0        3.163011    0.449860    0.668719
     50          6           0        1.991367    1.168686    2.279594
     51          6           0        2.847038    2.579800    0.366874
     52          1           0        3.073162    2.521335   -0.704756
     53          1           0        2.019880    3.292617    0.484611
     54          8           0        2.613751    0.641282    3.170033
     55          6           0        4.076735    3.065103    1.143758
     56          1           0        4.913953    2.371138    0.999089
     57          1           0        3.860873    3.070906    2.219328
     58          6           0        4.500542    4.475219    0.711901
     59          1           0        4.702845    4.472054   -0.366072
     60          1           0        3.673437    5.173925    0.885631
     61          7           0        5.707409    4.950519    1.395293
     62          1           0        6.487310    5.144548    0.781823
     63          7           0        4.556892    5.571806    3.331409
     64          1           0        4.601429    6.200820    4.127158
     65          1           0        4.519425    4.604946    3.640052
     66          7           0        6.441148    6.796056    2.750767
     67          1           0        7.089997    6.976881    1.982124
     68          6           0        5.642915    5.830875    2.479504
     69          8           0        0.832577    1.859760    2.503470
     70          1           0        0.685810    1.870887    3.469907
 ---------------------------------------------------------------------

 SCF Done:  E(RB3LYP) =  -1582.19210979     A.U. after    1 cycles

 Alpha  occ. eigenvalues --  -19.30584 -19.27883 -19.24726 -19.21498 -14.59688
 Alpha  occ. eigenvalues --  -14.51375 -14.50448 -14.46449 -14.40294 -14.38915
 Alpha  occ. eigenvalues --  -14.33162 -10.44592 -10.42449 -10.41549 -10.39163
 Alpha  occ. eigenvalues --  -10.35205 -10.34960 -10.34960 -10.33998 -10.33332
 Alpha  occ. eigenvalues --  -10.32663 -10.31610 -10.31151 -10.30427 -10.30342
 Alpha  occ. eigenvalues --  -10.29580 -10.29458 -10.28674 -10.28458 -10.27932
 Alpha  occ. eigenvalues --  -10.27205 -10.26444 -10.26196 -10.24409  -1.21073
 Alpha  occ. eigenvalues --   -1.20348  -1.14278  -1.13614  -1.12220  -1.10379
 Alpha  occ. eigenvalues --   -1.07594  -1.02800  -1.02276  -0.96017  -0.94914
 Alpha  occ. eigenvalues --   -0.93724  -0.91557  -0.89592  -0.89394  -0.88455
 Alpha  occ. eigenvalues --   -0.85333  -0.84613  -0.83562  -0.81859  -0.81042
 Alpha  occ. eigenvalues --   -0.80270  -0.75132  -0.74808  -0.74307  -0.73954
 Alpha  occ. eigenvalues --   -0.73174  -0.71881  -0.71050  -0.70733  -0.69374
 Alpha  occ. eigenvalues --   -0.69125  -0.67501  -0.66771  -0.65824  -0.65010
 Alpha  occ. eigenvalues --   -0.64902  -0.63718  -0.62842  -0.60511  -0.59583
 Alpha  occ. eigenvalues --   -0.59362  -0.59225  -0.58588  -0.58457  -0.57500
 Alpha  occ. eigenvalues --   -0.57223  -0.56576  -0.56155  -0.55728  -0.55061
 Alpha  occ. eigenvalues --   -0.54820  -0.54068  -0.53872  -0.53674  -0.52736
 Alpha  occ. eigenvalues --   -0.52680  -0.52141  -0.51489  -0.51182  -0.50477
 Alpha  occ. eigenvalues --   -0.50222  -0.49940  -0.49727  -0.49295  -0.49030
 Alpha  occ. eigenvalues --   -0.48770  -0.47750  -0.46840  -0.46120  -0.45755
 Alpha  occ. eigenvalues --   -0.45301  -0.45142  -0.44690  -0.44501  -0.43795
 Alpha  occ. eigenvalues --   -0.42981  -0.42731  -0.41946  -0.41498  -0.41381
 Alpha  occ. eigenvalues --   -0.40771  -0.40337  -0.39920  -0.39658  -0.38819
 Alpha  occ. eigenvalues --   -0.35254  -0.34677  -0.34281  -0.32787  -0.31696
 Alpha  occ. eigenvalues --   -0.30542  -0.27427
 Alpha virt. eigenvalues --   -0.13773  -0.13063  -0.11129  -0.10406  -0.09477
 Alpha virt. eigenvalues --   -0.08888  -0.06772  -0.05892  -0.04528  -0.03176
 Alpha virt. eigenvalues --   -0.02718  -0.02002  -0.01691  -0.00876  -0.00486

 Mulliken charges:
               1
     1  N   -0.762999
     2  H    0.413007
     3  H    0.433714
     4  H    0.418518
     5  C   -0.102255
     6  H    0.210132
     7  C    0.647754
     8  C   -0.398094
     9  H    0.209730
    10  H    0.182840
    11  O   -0.513917
    12  C    0.013685
    13  C    0.022500
    14  H    0.180316
    15  C    0.024208
    16  C    0.328051
    17  C   -0.279763
    18  H    0.152525
    19  N   -0.678865
    20  H    0.355437
    21  C   -0.148496
    22  H    0.165224
    23  C   -0.150300
    24  H    0.161068
    25  C   -0.135530
    26  H    0.169904
    27  N   -0.618097
    28  H    0.350343
    29  C   -0.063047
    30  H    0.175218
    31  C    0.642606
    32  C   -0.081143
    33  H    0.187520
    34  O   -0.487934
    35  C   -0.266899
    36  H    0.155809
    37  H    0.128666
    38  C   -0.459524
    39  H    0.131677
    40  H    0.177677
    41  H    0.126699
    42  C   -0.454832
    43  H    0.158416
    44  H    0.183659
    45  H    0.129631
    46  N   -0.624179
    47  H    0.335295
    48  C   -0.032923
    49  H    0.219731
    50  C    0.593754
    51  C   -0.281565
    52  H    0.167641
    53  H    0.150400
    54  O   -0.450689
    55  C   -0.265136
    56  H    0.160336
    57  H    0.141741
    58  C   -0.135299
    59  H    0.146241
    60  H    0.170132
    61  N   -0.592882
    62  H    0.319822
    63  N   -0.742196
    64  H    0.339013
    65  H    0.320019
    66  N   -0.621925
    67  H    0.267974
    68  C    0.542169
    69  O   -0.589071
    70  H    0.426758
 Sum of Mulliken charges =   1.00000

 Dipole moment (field-independent basis, Debye):
    X=            -12.3263    Y=             -5.0643    Z=             11.8359  Tot=             17.8234
 Quadrupole moment (field-independent basis, Debye-Ang):
   XX=           -167.3634   YY=           -197.9646   ZZ=           -110.7732
   XY=              8.8925   XZ=            -52.0854   YZ=            -25.3305

 Normal termination of Gaussian 16 at Fri Jun  3 04:42:24 2022.
