 Gaussian 16, Revision C.01,
 Gaussian 16:  ES64L-G16RevC.01  3-Jul-2019

 ----------------------------------------------------------------------
 # B3LYP/6-31G* empiricaldispersion=gd3 guess=read geom=check nosymm in
 tegral(ultrafinegrid)
 ----------------------------------------------------------------------

 ------------------------------------------------------
 Candidate Structure: Conf:126 Charge calc in gas phase
 ------------------------------------------------------
 Structure from the checkpoint file:  "conf-126.chk"
 Charge =  1 Multiplicity = 1

                          Input orientation:
 ---------------------------------------------------------------------
 Center     Atomic      Atomic             Coordinates (Angstroms)
 Number     Number       Type             X           Y           Z
 ---------------------------------------------------------------------
      1          7           0       -1.875187   -3.526485    1.862493
      2          1           0       -2.733467   -4.061760    1.712781
      3          1           0       -1.244537   -3.643537    1.026221
      4          1           0       -1.419067   -3.873964    2.723713
      5          6           0       -2.110377   -2.033761    1.920249
      6          1           0       -3.190357   -1.870824    1.916160
      7          6           0       -1.439068   -1.513780    0.624583
      8          6           0       -1.465881   -1.396868    3.189981
      9          1           0       -0.411092   -1.193107    2.976173
     10          1           0       -1.952383   -0.427564    3.340852
     11          8           0       -0.814466   -2.316877   -0.073862
     12          6           0       -1.573161   -2.258353    4.408181
     13          6           0       -2.561451   -2.284125    5.366222
     14          1           0       -3.431056   -1.651171    5.481204
     15          6           0       -0.641064   -3.310984    4.745311
     16          6           0       -1.133367   -3.938532    5.922627
     17          6           0        0.561680   -3.773625    4.167670
     18          1           0        0.982962   -3.284049    3.291653
     19          7           0       -2.300655   -3.287135    6.270555
     20          1           0       -2.849629   -3.478754    7.096095
     21          6           0        0.710312   -5.447834    5.935327
     22          1           0        1.252611   -6.275100    6.382265
     23          6           0       -0.466232   -5.006764    6.530239
     24          1           0       -0.849597   -5.473371    7.432721
     25          6           0        1.220840   -4.838855    4.769133
     26          1           0        2.150737   -5.204140    4.344060
     27          7           0       -1.486378   -0.191564    0.414352
     28          1           0       -2.134277    0.361234    0.960407
     29          6           0       -0.827477    0.468054   -0.737100
     30          1           0       -0.779651    1.527722   -0.456174
     31          6           0        0.637006   -0.044331   -0.845388
     32          6           0       -1.582243    0.347577   -2.078961
     33          1           0       -1.272028   -0.596387   -2.540135
     34          8           0        1.132877   -0.395106   -1.906458
     35          6           0       -1.134575    1.514207   -2.988017
     36          1           0       -1.655785    2.428471   -2.666917
     37          1           0       -0.068827    1.708099   -2.839926
     38          6           0       -3.103832    0.338274   -1.885605
     39          1           0       -3.446610    1.234139   -1.349922
     40          1           0       -3.605040    0.330262   -2.857317
     41          1           0       -3.449596   -0.545039   -1.335827
     42          6           0       -1.379234    1.268967   -4.478357
     43          1           0       -0.976870    2.099299   -5.065631
     44          1           0       -2.444640    1.164834   -4.713209
     45          1           0       -0.871202    0.353905   -4.806296
     46          7           0        1.317245   -0.039490    0.331070
     47          1           0        0.844905    0.262919    1.169677
     48          6           0        2.673670   -0.568509    0.454731
     49          1           0        2.662769   -1.600489    0.071174
     50          6           0        3.056563   -0.690190    1.926381
     51          6           0        3.730449    0.220715   -0.345653
     52          1           0        4.714355   -0.151207   -0.047153
     53          1           0        3.591798   -0.062639   -1.390623
     54          8           0        4.179148   -0.645919    2.357042
     55          6           0        3.645666    1.753009   -0.172092
     56          1           0        4.396354    2.089361    0.551066
     57          1           0        2.664132    2.033611    0.227803
     58          6           0        3.834490    2.521667   -1.486432
     59          1           0        3.812773    3.594402   -1.269354
     60          1           0        4.826519    2.288474   -1.912132
     61          7           0        2.749443    2.222667   -2.416998
     62          1           0        2.516866    1.240607   -2.501826
     63          7           0        3.044519    4.215787   -3.638283
     64          1           0        2.899127    4.618500   -4.557609
     65          1           0        4.010153    4.309257   -3.344783
     66          7           0        1.806919    2.508546   -4.591497
     67          1           0        1.435502    1.574659   -4.412345
     68          6           0        2.524789    2.919910   -3.604930
     69          8           0        1.973375   -0.918435    2.739598
     70          1           0        2.328089   -1.005975    3.645991
 ---------------------------------------------------------------------

 SCF Done:  E(RB3LYP) =  -1582.19752702     A.U. after    1 cycles

 Alpha  occ. eigenvalues --  -19.31591 -19.28078 -19.25177 -19.22064 -14.59797
 Alpha  occ. eigenvalues --  -14.51456 -14.50554 -14.46791 -14.39987 -14.38700
 Alpha  occ. eigenvalues --  -14.32569 -10.44756 -10.43260 -10.41663 -10.39578
 Alpha  occ. eigenvalues --  -10.35100 -10.35039 -10.35012 -10.34559 -10.34153
 Alpha  occ. eigenvalues --  -10.32680 -10.31685 -10.31264 -10.30818 -10.30508
 Alpha  occ. eigenvalues --  -10.29834 -10.29785 -10.28804 -10.27978 -10.27202
 Alpha  occ. eigenvalues --  -10.26748 -10.26470 -10.24936 -10.22994  -1.21809
 Alpha  occ. eigenvalues --   -1.20471  -1.14454  -1.13972  -1.12955  -1.10488
 Alpha  occ. eigenvalues --   -1.07724  -1.03326  -1.02204  -0.96199  -0.95093
 Alpha  occ. eigenvalues --   -0.93857  -0.91537  -0.89535  -0.88976  -0.88230
 Alpha  occ. eigenvalues --   -0.85538  -0.84599  -0.83470  -0.82176  -0.80882
 Alpha  occ. eigenvalues --   -0.79436  -0.76478  -0.74942  -0.74474  -0.74168
 Alpha  occ. eigenvalues --   -0.73136  -0.71683  -0.71226  -0.70710  -0.69433
 Alpha  occ. eigenvalues --   -0.68836  -0.66524  -0.66300  -0.65543  -0.65262
 Alpha  occ. eigenvalues --   -0.65039  -0.63808  -0.63423  -0.60679  -0.59981
 Alpha  occ. eigenvalues --   -0.59846  -0.59454  -0.59193  -0.58900  -0.57969
 Alpha  occ. eigenvalues --   -0.57302  -0.56648  -0.56009  -0.55713  -0.55166
 Alpha  occ. eigenvalues --   -0.55061  -0.54097  -0.53856  -0.53568  -0.53446
 Alpha  occ. eigenvalues --   -0.52824  -0.52360  -0.52114  -0.51562  -0.51143
 Alpha  occ. eigenvalues --   -0.50319  -0.50016  -0.49404  -0.49223  -0.48923
 Alpha  occ. eigenvalues --   -0.48449  -0.47141  -0.46523  -0.45873  -0.45664
 Alpha  occ. eigenvalues --   -0.45628  -0.45334  -0.43990  -0.43575  -0.43325
 Alpha  occ. eigenvalues --   -0.43098  -0.42500  -0.42417  -0.42099  -0.40861
 Alpha  occ. eigenvalues --   -0.40114  -0.39986  -0.39587  -0.39261  -0.38593
 Alpha  occ. eigenvalues --   -0.35900  -0.35449  -0.34480  -0.32907  -0.31846
 Alpha  occ. eigenvalues --   -0.29849  -0.26689
 Alpha virt. eigenvalues --   -0.14000  -0.13131  -0.11180  -0.10497  -0.09724
 Alpha virt. eigenvalues --   -0.09356  -0.06938  -0.06239  -0.05127  -0.03240
 Alpha virt. eigenvalues --   -0.03100  -0.02016  -0.01454  -0.01024   0.00281

 Mulliken charges:
               1
     1  N   -0.765262
     2  H    0.413286
     3  H    0.430590
     4  H    0.418109
     5  C   -0.101107
     6  H    0.212806
     7  C    0.650234
     8  C   -0.407182
     9  H    0.216911
    10  H    0.182415
    11  O   -0.516710
    12  C    0.023946
    13  C    0.019383
    14  H    0.179706
    15  C    0.019608
    16  C    0.326433
    17  C   -0.256258
    18  H    0.142407
    19  N   -0.679318
    20  H    0.355457
    21  C   -0.147850
    22  H    0.164981
    23  C   -0.150852
    24  H    0.161434
    25  C   -0.130609
    26  H    0.158311
    27  N   -0.621705
    28  H    0.352663
    29  C   -0.073951
    30  H    0.186386
    31  C    0.658552
    32  C   -0.060581
    33  H    0.170961
    34  O   -0.520054
    35  C   -0.279702
    36  H    0.132763
    37  H    0.164827
    38  C   -0.465568
    39  H    0.135661
    40  H    0.183560
    41  H    0.118661
    42  C   -0.464433
    43  H    0.192682
    44  H    0.140706
    45  H    0.152385
    46  N   -0.626562
    47  H    0.342946
    48  C   -0.023771
    49  H    0.206264
    50  C    0.577158
    51  C   -0.291693
    52  H    0.184025
    53  H    0.176074
    54  O   -0.424716
    55  C   -0.278319
    56  H    0.163058
    57  H    0.137187
    58  C   -0.143119
    59  H    0.167108
    60  H    0.143426
    61  N   -0.629745
    62  H    0.351654
    63  N   -0.745666
    64  H    0.341545
    65  H    0.322482
    66  N   -0.659951
    67  H    0.276263
    68  C    0.580370
    69  O   -0.599139
    70  H    0.428440
 Sum of Mulliken charges =   1.00000

 Dipole moment (field-independent basis, Debye):
    X=             -8.3955    Y=            -11.4633    Z=             17.4515  Tot=             22.5043
 Quadrupole moment (field-independent basis, Debye-Ang):
   XX=           -153.6849   YY=           -142.5821   ZZ=           -138.0865
   XY=             31.3053   XZ=            -35.0459   YZ=            -49.9720

 Normal termination of Gaussian 16 at Fri Jun  3 04:42:19 2022.
