 Gaussian 16, Revision C.01,
 Gaussian 16:  ES64L-G16RevC.01  3-Jul-2019

 ----------------------------------------------------------------------
 # B3LYP/6-31G* empiricaldispersion=gd3 guess=read geom=check nosymm in
 tegral(ultrafinegrid)
 ----------------------------------------------------------------------

 ------------------------------------------------------
 Candidate Structure: Conf:448 Charge calc in gas phase
 ------------------------------------------------------
 Structure from the checkpoint file:  "conf-448.chk"
 Charge =  1 Multiplicity = 1

                          Input orientation:
 ---------------------------------------------------------------------
 Center     Atomic      Atomic             Coordinates (Angstroms)
 Number     Number       Type             X           Y           Z
 ---------------------------------------------------------------------
      1          7           0       -1.329043   -3.692855    2.788090
      2          1           0       -2.197138   -3.848282    3.304381
      3          1           0       -1.455391   -3.958179    1.772456
      4          1           0       -0.574591   -4.277458    3.186371
      5          6           0       -0.923716   -2.235950    2.700587
      6          1           0       -1.664133   -1.644208    3.246498
      7          6           0       -1.026286   -1.932992    1.175029
      8          6           0        0.498237   -2.037594    3.287016
      9          1           0        0.845699   -1.034486    3.026430
     10          1           0        0.419056   -2.065308    4.380433
     11          8           0       -1.259343   -2.876700    0.416960
     12          6           0        1.451310   -3.091386    2.809750
     13          6           0        2.143953   -3.124167    1.619158
     14          1           0        2.193474   -2.389163    0.826972
     15          6           0        1.681877   -4.359173    3.463557
     16          6           0        2.532134   -5.115946    2.608876
     17          6           0        1.247736   -4.931872    4.677591
     18          1           0        0.632983   -4.364389    5.374551
     19          7           0        2.795982   -4.329209    1.505622
     20          1           0        3.372834   -4.598025    0.722215
     21          6           0        2.500209   -6.950794    4.130720
     22          1           0        2.807370   -7.953966    4.409507
     23          6           0        2.953045   -6.408689    2.932547
     24          1           0        3.606981   -6.971262    2.272672
     25          6           0        1.657636   -6.222001    4.995121
     26          1           0        1.338173   -6.672456    5.929982
     27          7           0       -0.917450   -0.635379    0.841773
     28          1           0       -0.572826   -0.022116    1.574528
     29          6           0       -0.699426   -0.078252   -0.520346
     30          1           0       -1.083899    0.948418   -0.466754
     31          6           0        0.833978   -0.066464   -0.656025
     32          6           0       -1.441855   -0.794688   -1.664942
     33          1           0       -1.027729   -1.802794   -1.752074
     34          8           0        1.471337   -1.109631   -0.730671
     35          6           0       -1.238420   -0.055468   -3.009741
     36          1           0       -1.954585   -0.496733   -3.713103
     37          1           0       -1.546899    0.995005   -2.897432
     38          6           0       -2.944356   -0.883529   -1.353989
     39          1           0       -3.386282    0.116391   -1.256822
     40          1           0       -3.463372   -1.396373   -2.169779
     41          1           0       -3.146474   -1.440904   -0.436672
     42          6           0        0.158400   -0.128197   -3.643616
     43          1           0        0.115112    0.219608   -4.681064
     44          1           0        0.537743   -1.155690   -3.647390
     45          1           0        0.892582    0.496306   -3.126684
     46          7           0        1.426894    1.161285   -0.574893
     47          1           0        0.835777    1.950430   -0.344941
     48          6           0        2.802502    1.251625   -0.115863
     49          1           0        3.390234    0.508522   -0.662671
     50          6           0        2.838573    0.857198    1.365965
     51          6           0        3.392265    2.651673   -0.344929
     52          1           0        2.787473    3.394034    0.196884
     53          1           0        4.391512    2.687340    0.096844
     54          8           0        1.851721    0.684020    2.058793
     55          6           0        3.470714    3.025299   -1.830062
     56          1           0        2.470175    3.020325   -2.278634
     57          1           0        4.049911    2.261121   -2.368542
     58          6           0        4.102357    4.403428   -2.051247
     59          1           0        4.028139    4.677141   -3.116241
     60          1           0        3.534570    5.154316   -1.488732
     61          7           0        5.473660    4.431556   -1.564574
     62          1           0        6.065888    3.720316   -1.983520
     63          7           0        7.489018    5.468278   -1.103321
     64          1           0        7.947606    6.354597   -0.923492
     65          1           0        7.642314    4.802598   -0.353141
     66          7           0        5.685165    6.845129   -1.593607
     67          1           0        4.749581    6.848238   -1.998410
     68          6           0        6.146721    5.660793   -1.438385
     69          8           0        4.092920    0.731588    1.814964
     70          1           0        4.055995    0.498119    2.762522
 ---------------------------------------------------------------------

 SCF Done:  E(RB3LYP) =  -1582.21086638     A.U. after    1 cycles

 Alpha  occ. eigenvalues --  -19.31433 -19.26720 -19.26299 -19.23233 -14.58179
 Alpha  occ. eigenvalues --  -14.50222 -14.48352 -14.47651 -14.41277 -14.39066
 Alpha  occ. eigenvalues --  -14.33934 -10.43935 -10.43538 -10.40272 -10.39951
 Alpha  occ. eigenvalues --  -10.35388 -10.34892 -10.33327 -10.32836 -10.32179
 Alpha  occ. eigenvalues --  -10.32146 -10.29736 -10.29353 -10.29297 -10.29251
 Alpha  occ. eigenvalues --  -10.29190 -10.28891 -10.28797 -10.28157 -10.28097
 Alpha  occ. eigenvalues --  -10.28063 -10.27022 -10.26298 -10.25245  -1.22550
 Alpha  occ. eigenvalues --   -1.19008  -1.15455  -1.13497  -1.12575  -1.08308
 Alpha  occ. eigenvalues --   -1.06506  -1.04393  -1.03098  -0.94823  -0.94315
 Alpha  occ. eigenvalues --   -0.93455  -0.91446  -0.89833  -0.89229  -0.88144
 Alpha  occ. eigenvalues --   -0.84605  -0.83695  -0.83196  -0.82057  -0.80709
 Alpha  occ. eigenvalues --   -0.79282  -0.76670  -0.73378  -0.73207  -0.72876
 Alpha  occ. eigenvalues --   -0.72265  -0.71309  -0.70387  -0.70044  -0.69307
 Alpha  occ. eigenvalues --   -0.69190  -0.67056  -0.65440  -0.65325  -0.64190
 Alpha  occ. eigenvalues --   -0.64097  -0.63255  -0.61856  -0.61054  -0.60874
 Alpha  occ. eigenvalues --   -0.59939  -0.59784  -0.58780  -0.58065  -0.57349
 Alpha  occ. eigenvalues --   -0.57040  -0.56870  -0.56294  -0.54727  -0.54268
 Alpha  occ. eigenvalues --   -0.54212  -0.53834  -0.53312  -0.52947  -0.52531
 Alpha  occ. eigenvalues --   -0.52356  -0.52199  -0.51588  -0.51315  -0.51057
 Alpha  occ. eigenvalues --   -0.50519  -0.50016  -0.49460  -0.49185  -0.48994
 Alpha  occ. eigenvalues --   -0.48787  -0.48024  -0.46922  -0.45943  -0.45598
 Alpha  occ. eigenvalues --   -0.45458  -0.44434  -0.44142  -0.43809  -0.43494
 Alpha  occ. eigenvalues --   -0.43429  -0.43327  -0.42390  -0.42132  -0.41664
 Alpha  occ. eigenvalues --   -0.41370  -0.41023  -0.39838  -0.39643  -0.38200
 Alpha  occ. eigenvalues --   -0.37835  -0.35891  -0.32526  -0.31868  -0.30969
 Alpha  occ. eigenvalues --   -0.30863  -0.28723
 Alpha virt. eigenvalues --   -0.13164  -0.11448  -0.11076  -0.09467  -0.09298
 Alpha virt. eigenvalues --   -0.07836  -0.05311  -0.04440  -0.03308  -0.02858
 Alpha virt. eigenvalues --   -0.01944  -0.00988  -0.00418  -0.00146   0.00453

 Mulliken charges:
               1
     1  N   -0.770213
     2  H    0.406284
     3  H    0.430527
     4  H    0.417006
     5  C   -0.102504
     6  H    0.206970
     7  C    0.667566
     8  C   -0.417636
     9  H    0.229416
    10  H    0.183283
    11  O   -0.524139
    12  C   -0.011344
    13  C    0.017301
    14  H    0.224102
    15  C    0.039516
    16  C    0.324656
    17  C   -0.244863
    18  H    0.127723
    19  N   -0.686491
    20  H    0.349835
    21  C   -0.150031
    22  H    0.156919
    23  C   -0.153757
    24  H    0.154212
    25  C   -0.130705
    26  H    0.150683
    27  N   -0.604313
    28  H    0.359689
    29  C   -0.058875
    30  H    0.152712
    31  C    0.641224
    32  C   -0.092304
    33  H    0.183284
    34  O   -0.519877
    35  C   -0.269003
    36  H    0.159595
    37  H    0.131224
    38  C   -0.455346
    39  H    0.145380
    40  H    0.168669
    41  H    0.145649
    42  C   -0.465733
    43  H    0.161824
    44  H    0.163591
    45  H    0.148923
    46  N   -0.577691
    47  H    0.337167
    48  C   -0.058638
    49  H    0.211924
    50  C    0.605388
    51  C   -0.287941
    52  H    0.145896
    53  H    0.196459
    54  O   -0.493989
    55  C   -0.286471
    56  H    0.153967
    57  H    0.148516
    58  C   -0.133581
    59  H    0.156796
    60  H    0.157364
    61  N   -0.606818
    62  H    0.322652
    63  N   -0.748215
    64  H    0.343000
    65  H    0.317623
    66  N   -0.633313
    67  H    0.279334
    68  C    0.575596
    69  O   -0.544206
    70  H    0.428553
 Sum of Mulliken charges =   1.00000

 Dipole moment (field-independent basis, Debye):
    X=              1.1269    Y=            -10.2881    Z=              9.6126  Tot=             14.1251
 Quadrupole moment (field-independent basis, Debye-Ang):
   XX=           -161.9015   YY=           -158.6955   ZZ=           -155.1621
   XY=             -9.1576   XZ=             -2.0153   YZ=            -35.2517

 Normal termination of Gaussian 16 at Fri Jun  3 04:42:21 2022.
