 Gaussian 16, Revision C.01,
 Gaussian 16:  ES64L-G16RevC.01  3-Jul-2019

 ----------------------------------------------------------------------
 # B3LYP/6-31G* empiricaldispersion=gd3 guess=read geom=check nosymm in
 tegral(ultrafinegrid)
 ----------------------------------------------------------------------

 ------------------------------------------------------
 Candidate Structure: Conf:727 Charge calc in gas phase
 ------------------------------------------------------
 Structure from the checkpoint file:  "conf-727.chk"
 Charge =  1 Multiplicity = 1

                          Input orientation:
 ---------------------------------------------------------------------
 Center     Atomic      Atomic             Coordinates (Angstroms)
 Number     Number       Type             X           Y           Z
 ---------------------------------------------------------------------
      1          7           0       -0.794657    0.016011    3.676668
      2          1           0        0.234040    0.113544    3.597847
      3          1           0       -1.197468    0.907908    3.345203
      4          1           0       -1.101849   -0.179536    4.639627
      5          6           0       -1.272206   -1.036249    2.708891
      6          1           0       -0.605216   -1.893904    2.824190
      7          6           0       -1.127983   -0.354395    1.339951
      8          6           0       -2.732507   -1.435068    3.023539
      9          1           0       -3.378707   -0.575881    2.803092
     10          1           0       -3.007111   -2.222638    2.313554
     11          8           0       -1.329789    0.862258    1.274301
     12          6           0       -2.906582   -1.888775    4.441333
     13          6           0       -2.813720   -3.174346    4.924153
     14          1           0       -2.675601   -4.104098    4.388805
     15          6           0       -3.113360   -1.031854    5.586957
     16          6           0       -3.127509   -1.871598    6.735158
     17          6           0       -3.304981    0.355642    5.755166
     18          1           0       -3.354930    1.020302    4.894301
     19          7           0       -2.942544   -3.166492    6.293571
     20          1           0       -2.960936   -3.988795    6.878657
     21          6           0       -3.481464    0.004875    8.160939
     22          1           0       -3.627840    0.428017    9.149829
     23          6           0       -3.310257   -1.367747    8.026682
     24          1           0       -3.322518   -2.023918    8.891961
     25          6           0       -3.483450    0.858529    7.037587
     26          1           0       -3.643147    1.922991    7.180028
     27          7           0       -0.803348   -1.142012    0.300716
     28          1           0       -0.479135   -2.082669    0.496133
     29          6           0       -0.305212   -0.557033   -0.965912
     30          1           0       -0.884246    0.354862   -1.134352
     31          6           0        1.164572   -0.242971   -0.615179
     32          6           0       -0.462123   -1.514181   -2.157657
     33          1           0        0.304026   -2.293268   -2.046409
     34          8           0        2.036354   -1.100096   -0.664335
     35          6           0       -0.216187   -0.776837   -3.493663
     36          1           0       -0.330198   -1.518615   -4.293492
     37          1           0       -1.024618   -0.046127   -3.642228
     38          6           0       -1.854602   -2.163799   -2.173496
     39          1           0       -2.643478   -1.403361   -2.224958
     40          1           0       -1.956335   -2.809747   -3.051179
     41          1           0       -2.043445   -2.779832   -1.287942
     42          6           0        1.140696   -0.079517   -3.654209
     43          1           0        1.257637    0.281874   -4.680857
     44          1           0        1.968673   -0.760501   -3.432627
     45          1           0        1.238815    0.792357   -2.997015
     46          7           0        1.379686    1.010978   -0.117835
     47          1           0        0.570669    1.581536    0.099945
     48          6           0        2.624773    1.314373    0.552621
     49          1           0        3.441122    0.888440   -0.037681
     50          6           0        2.678948    0.643925    1.926010
     51          6           0        2.826939    2.838124    0.689429
     52          1           0        2.011136    3.253250    1.299798
     53          1           0        3.757404    3.013986    1.240694
     54          8           0        1.715165    0.214631    2.546028
     55          6           0        2.864639    3.533655   -0.675195
     56          1           0        1.941571    3.321879   -1.224354
     57          1           0        3.692527    3.127882   -1.272343
     58          6           0        3.010010    5.058686   -0.558574
     59          1           0        2.238249    5.449110    0.112812
     60          1           0        3.974930    5.324424   -0.111894
     61          7           0        2.915204    5.752496   -1.844907
     62          1           0        3.752345    5.657870   -2.408843
     63          7           0        0.574501    5.687938   -1.854772
     64          1           0       -0.225498    5.742624   -2.477468
     65          1           0        0.563287    6.456196   -1.189551
     66          7           0        1.667605    5.502539   -3.890672
     67          1           0        2.584477    5.347883   -4.314440
     68          6           0        1.750635    5.639858   -2.619986
     69          8           0        3.923150    0.610057    2.404726
     70          1           0        3.911884    0.192266    3.287046
 ---------------------------------------------------------------------

 SCF Done:  E(RB3LYP) =  -1582.22359705     A.U. after    1 cycles

 Alpha  occ. eigenvalues --  -19.32363 -19.27737 -19.26031 -19.21986 -14.57887
 Alpha  occ. eigenvalues --  -14.49869 -14.49073 -14.46466 -14.41417 -14.40107
 Alpha  occ. eigenvalues --  -14.34501 -10.45200 -10.43074 -10.39614 -10.39055
 Alpha  occ. eigenvalues --  -10.34783 -10.34018 -10.33861 -10.33473 -10.33438
 Alpha  occ. eigenvalues --  -10.32716 -10.30124 -10.29854 -10.29825 -10.29822
 Alpha  occ. eigenvalues --  -10.29602 -10.29186 -10.28547 -10.28498 -10.28441
 Alpha  occ. eigenvalues --  -10.27115 -10.26259 -10.26215 -10.24449  -1.23666
 Alpha  occ. eigenvalues --   -1.18399  -1.14766  -1.14116  -1.12607  -1.09023
 Alpha  occ. eigenvalues --   -1.06124  -1.03582  -1.03394  -0.94977  -0.94726
 Alpha  occ. eigenvalues --   -0.93669  -0.91199  -0.90393  -0.89544  -0.88435
 Alpha  occ. eigenvalues --   -0.84276  -0.84094  -0.83269  -0.82048  -0.80328
 Alpha  occ. eigenvalues --   -0.79142  -0.76703  -0.73439  -0.72979  -0.72770
 Alpha  occ. eigenvalues --   -0.72189  -0.71873  -0.70765  -0.70006  -0.69356
 Alpha  occ. eigenvalues --   -0.68874  -0.67726  -0.66569  -0.66031  -0.64664
 Alpha  occ. eigenvalues --   -0.63907  -0.62726  -0.62391  -0.61759  -0.60566
 Alpha  occ. eigenvalues --   -0.60496  -0.59591  -0.59101  -0.58007  -0.57703
 Alpha  occ. eigenvalues --   -0.57482  -0.55809  -0.55518  -0.55211  -0.54795
 Alpha  occ. eigenvalues --   -0.53942  -0.53777  -0.53439  -0.52868  -0.52484
 Alpha  occ. eigenvalues --   -0.52450  -0.52104  -0.51589  -0.50962  -0.50720
 Alpha  occ. eigenvalues --   -0.50010  -0.49899  -0.49594  -0.49306  -0.49147
 Alpha  occ. eigenvalues --   -0.48872  -0.48393  -0.47395  -0.46313  -0.45894
 Alpha  occ. eigenvalues --   -0.45236  -0.45040  -0.44523  -0.44318  -0.43944
 Alpha  occ. eigenvalues --   -0.43571  -0.43076  -0.42462  -0.41580  -0.41150
 Alpha  occ. eigenvalues --   -0.41025  -0.40947  -0.40340  -0.39485  -0.38507
 Alpha  occ. eigenvalues --   -0.36729  -0.34846  -0.33044  -0.32727  -0.31755
 Alpha  occ. eigenvalues --   -0.31420  -0.28813
 Alpha virt. eigenvalues --   -0.12947  -0.12200  -0.11918  -0.08591  -0.07982
 Alpha virt. eigenvalues --   -0.06773  -0.05020  -0.04475  -0.03888  -0.02455
 Alpha virt. eigenvalues --   -0.01835  -0.01179  -0.01016  -0.00375   0.00181

 Mulliken charges:
               1
     1  N   -0.758446
     2  H    0.438960
     3  H    0.409288
     4  H    0.410019
     5  C   -0.113948
     6  H    0.198176
     7  C    0.669900
     8  C   -0.372418
     9  H    0.196095
    10  H    0.194019
    11  O   -0.547222
    12  C    0.036745
    13  C    0.017284
    14  H    0.175027
    15  C    0.041669
    16  C    0.322266
    17  C   -0.248360
    18  H    0.127473
    19  N   -0.680343
    20  H    0.351617
    21  C   -0.149606
    22  H    0.158578
    23  C   -0.151611
    24  H    0.155817
    25  C   -0.129141
    26  H    0.151621
    27  N   -0.597669
    28  H    0.352566
    29  C   -0.058319
    30  H    0.186279
    31  C    0.626312
    32  C   -0.115937
    33  H    0.160387
    34  O   -0.523034
    35  C   -0.258897
    36  H    0.156342
    37  H    0.141887
    38  C   -0.449294
    39  H    0.154547
    40  H    0.171323
    41  H    0.129273
    42  C   -0.471299
    43  H    0.166002
    44  H    0.169226
    45  H    0.144124
    46  N   -0.594141
    47  H    0.359510
    48  C   -0.041713
    49  H    0.218252
    50  C    0.620955
    51  C   -0.306494
    52  H    0.144417
    53  H    0.177270
    54  O   -0.535865
    55  C   -0.267410
    56  H    0.181408
    57  H    0.146099
    58  C   -0.141289
    59  H    0.151130
    60  H    0.156010
    61  N   -0.575532
    62  H    0.316160
    63  N   -0.745160
    64  H    0.340469
    65  H    0.325227
    66  N   -0.620337
    67  H    0.269879
    68  C    0.536026
    69  O   -0.528809
    70  H    0.426657
 Sum of Mulliken charges =   1.00000

 Dipole moment (field-independent basis, Debye):
    X=             -1.2999    Y=             -2.4828    Z=             17.5875  Tot=             17.8094
 Quadrupole moment (field-independent basis, Debye-Ang):
   XX=           -168.6237   YY=           -159.1756   ZZ=           -102.5592
   XY=             28.6791   XZ=            -22.4290   YZ=            -15.5893

 Normal termination of Gaussian 16 at Fri Jun  3 04:42:21 2022.
