 Gaussian 16, Revision C.01,
 Gaussian 16:  ES64L-G16RevC.01  3-Jul-2019

 ----------------------------------------------------------------------
 # B3LYP/6-31G* empiricaldispersion=gd3 guess=read geom=check nosymm in
 tegral(ultrafinegrid)
 ----------------------------------------------------------------------

 ------------------------------------------------------
 Candidate Structure: Conf:883 Charge calc in gas phase
 ------------------------------------------------------
 Structure from the checkpoint file:  "conf-883.chk"
 Charge =  1 Multiplicity = 1

                          Input orientation:
 ---------------------------------------------------------------------
 Center     Atomic      Atomic             Coordinates (Angstroms)
 Number     Number       Type             X           Y           Z
 ---------------------------------------------------------------------
      1          7           0       -0.245057    0.416742    3.234161
      2          1           0        0.772413    0.330775    3.036471
      3          1           0       -0.561114    1.326515    2.855813
      4          1           0       -0.456388    0.347459    4.241674
      5          6           0       -1.036939   -0.625569    2.482099
      6          1           0       -0.507585   -1.571838    2.611852
      7          6           0       -0.991434   -0.095960    1.040974
      8          6           0       -2.456865   -0.696140    3.082480
      9          1           0       -2.983493    0.233390    2.836238
     10          1           0       -2.984371   -1.507797    2.566688
     11          8           0       -1.145753    1.122148    0.889600
     12          6           0       -2.410898   -0.921127    4.563396
     13          6           0       -2.790024   -0.031060    5.548391
     14          1           0       -3.246303    0.945739    5.455023
     15          6           0       -1.913953   -2.098203    5.236934
     16          6           0       -2.026589   -1.853751    6.631399
     17          6           0       -1.397117   -3.331239    4.798544
     18          1           0       -1.328371   -3.562863    3.738066
     19          7           0       -2.561501   -0.587092    6.785064
     20          1           0       -2.811813   -0.164026    7.666589
     21          6           0       -1.119689   -3.998631    7.126495
     22          1           0       -0.807421   -4.753218    7.841803
     23          6           0       -1.632439   -2.793400    7.589675
     24          1           0       -1.728374   -2.592033    8.652523
     25          6           0       -1.005123   -4.267338    5.745614
     26          1           0       -0.612100   -5.226787    5.423419
     27          7           0       -0.699965   -0.974747    0.076116
     28          1           0       -0.517237   -1.932880    0.349926
     29          6           0       -0.108933   -0.555931   -1.210934
     30          1           0       -0.472791    0.449822   -1.430817
     31          6           0        1.417237   -0.449711   -0.960299
     32          6           0       -0.482807   -1.514222   -2.356279
     33          1           0        0.210519   -1.274110   -3.171331
     34          8           0        2.229264   -1.204120   -1.473060
     35          6           0       -1.924532   -1.250696   -2.837705
     36          1           0       -2.240872   -2.101895   -3.453594
     37          1           0       -2.595214   -1.245587   -1.965727
     38          6           0       -0.277465   -2.993886   -1.989759
     39          1           0       -1.036105   -3.341672   -1.274075
     40          1           0       -0.388302   -3.617103   -2.882216
     41          1           0        0.720934   -3.173941   -1.581334
     42          6           0       -2.093923    0.041382   -3.646003
     43          1           0       -3.142521    0.188511   -3.926118
     44          1           0       -1.506777   -0.005419   -4.571107
     45          1           0       -1.761346    0.929604   -3.098441
     46          7           0        1.773447    0.515552   -0.037947
     47          1           0        1.141989    1.304925    0.079578
     48          6           0        3.176288    0.744370    0.261661
     49          1           0        3.718137   -0.095134   -0.194844
     50          6           0        3.503461    0.656647    1.747791
     51          6           0        3.714684    2.068584   -0.325660
     52          1           0        3.117241    2.878657    0.109663
     53          1           0        4.739415    2.211659    0.026516
     54          8           0        4.524263    1.048077    2.249335
     55          6           0        3.637742    2.106470   -1.866363
     56          1           0        2.919012    1.361316   -2.215595
     57          1           0        4.602505    1.822493   -2.301389
     58          6           0        3.230037    3.482040   -2.438346
     59          1           0        4.028789    4.216584   -2.299483
     60          1           0        3.074257    3.397530   -3.519614
     61          7           0        2.029405    4.059149   -1.814809
     62          1           0        2.246595    4.627834   -1.006185
     63          7           0        0.228777    3.479207   -0.434288
     64          1           0       -0.697014    3.062043   -0.445341
     65          1           0        0.192694    4.444430   -0.119528
     66          7           0        0.448569    2.370814   -2.450774
     67          1           0        1.030326    2.276904   -3.281892
     68          6           0        0.889851    3.281957   -1.658654
     69          8           0        2.553528    0.008155    2.535541
     70          1           0        3.013358   -0.097018    3.393326
 ---------------------------------------------------------------------

 SCF Done:  E(RB3LYP) =  -1582.22021362     A.U. after    1 cycles

 Alpha  occ. eigenvalues --  -19.32972 -19.26158 -19.26076 -19.22240 -14.58810
 Alpha  occ. eigenvalues --  -14.49707 -14.49244 -14.45898 -14.44057 -14.43787
 Alpha  occ. eigenvalues --  -14.37732 -10.44017 -10.43094 -10.39909 -10.38977
 Alpha  occ. eigenvalues --  -10.37303 -10.34470 -10.34051 -10.33627 -10.32794
 Alpha  occ. eigenvalues --  -10.32643 -10.31093 -10.30614 -10.29509 -10.29183
 Alpha  occ. eigenvalues --  -10.28971 -10.28704 -10.28351 -10.28162 -10.27619
 Alpha  occ. eigenvalues --  -10.27377 -10.25551 -10.25493 -10.23591  -1.22697
 Alpha  occ. eigenvalues --   -1.18515  -1.14117  -1.13925  -1.13175  -1.09195
 Alpha  occ. eigenvalues --   -1.06829  -1.06176  -1.02694  -0.97840  -0.94793
 Alpha  occ. eigenvalues --   -0.93604  -0.93320  -0.90545  -0.88881  -0.88236
 Alpha  occ. eigenvalues --   -0.84459  -0.84016  -0.83397  -0.81756  -0.79816
 Alpha  occ. eigenvalues --   -0.78741  -0.77753  -0.73607  -0.72954  -0.72779
 Alpha  occ. eigenvalues --   -0.72463  -0.71735  -0.70766  -0.69949  -0.69601
 Alpha  occ. eigenvalues --   -0.68607  -0.67885  -0.66557  -0.66516  -0.64776
 Alpha  occ. eigenvalues --   -0.63914  -0.63158  -0.62666  -0.62088  -0.60918
 Alpha  occ. eigenvalues --   -0.60628  -0.59370  -0.59067  -0.58082  -0.57896
 Alpha  occ. eigenvalues --   -0.57425  -0.56208  -0.56057  -0.55740  -0.55389
 Alpha  occ. eigenvalues --   -0.54396  -0.54324  -0.53532  -0.53278  -0.53174
 Alpha  occ. eigenvalues --   -0.52699  -0.52623  -0.52253  -0.51752  -0.51617
 Alpha  occ. eigenvalues --   -0.50811  -0.50407  -0.49416  -0.49028  -0.48890
 Alpha  occ. eigenvalues --   -0.48626  -0.48093  -0.46897  -0.46474  -0.45672
 Alpha  occ. eigenvalues --   -0.44871  -0.44647  -0.44133  -0.44021  -0.43982
 Alpha  occ. eigenvalues --   -0.43783  -0.43328  -0.42809  -0.41251  -0.40608
 Alpha  occ. eigenvalues --   -0.40456  -0.40285  -0.39786  -0.39478  -0.38415
 Alpha  occ. eigenvalues --   -0.36127  -0.35922  -0.34997  -0.34420  -0.32958
 Alpha  occ. eigenvalues --   -0.31798  -0.31630
 Alpha virt. eigenvalues --   -0.13739  -0.11936  -0.11392  -0.08640  -0.07862
 Alpha virt. eigenvalues --   -0.07651  -0.05894  -0.05170  -0.04340  -0.04088
 Alpha virt. eigenvalues --   -0.03118  -0.02168  -0.01953  -0.01038  -0.00327

 Mulliken charges:
               1
     1  N   -0.766239
     2  H    0.439725
     3  H    0.407861
     4  H    0.395008
     5  C   -0.122837
     6  H    0.201683
     7  C    0.662116
     8  C   -0.359685
     9  H    0.188202
    10  H    0.202747
    11  O   -0.549053
    12  C   -0.008197
    13  C   -0.007085
    14  H    0.177133
    15  C    0.093452
    16  C    0.310431
    17  C   -0.215887
    18  H    0.120279
    19  N   -0.676874
    20  H    0.351163
    21  C   -0.147633
    22  H    0.158020
    23  C   -0.154087
    24  H    0.153691
    25  C   -0.134691
    26  H    0.151057
    27  N   -0.582836
    28  H    0.350930
    29  C   -0.122220
    30  H    0.243198
    31  C    0.622494
    32  C   -0.068745
    33  H    0.163699
    34  O   -0.493858
    35  C   -0.264049
    36  H    0.149155
    37  H    0.125349
    38  C   -0.495368
    39  H    0.126013
    40  H    0.175521
    41  H    0.175417
    42  C   -0.469831
    43  H    0.152449
    44  H    0.149652
    45  H    0.177125
    46  N   -0.648235
    47  H    0.381054
    48  C   -0.085043
    49  H    0.237666
    50  C    0.608287
    51  C   -0.271649
    52  H    0.127499
    53  H    0.190278
    54  O   -0.418770
    55  C   -0.290960
    56  H    0.169641
    57  H    0.166983
    58  C   -0.171565
    59  H    0.168794
    60  H    0.175330
    61  N   -0.567830
    62  H    0.320993
    63  N   -0.777768
    64  H    0.361049
    65  H    0.328943
    66  N   -0.653599
    67  H    0.296952
    68  C    0.567680
    69  O   -0.623478
    70  H    0.423352
 Sum of Mulliken charges =   1.00000

 Dipole moment (field-independent basis, Debye):
    X=             -1.2323    Y=              2.7441    Z=             15.2342  Tot=             15.5284
 Quadrupole moment (field-independent basis, Debye-Ang):
   XX=           -185.7463   YY=           -164.6574   ZZ=            -98.0213
   XY=             11.8175   XZ=            -26.8919   YZ=             -7.9367

 Normal termination of Gaussian 16 at Fri Jun  3 04:42:23 2022.
