 Gaussian 16, Revision C.01,
 Gaussian 16:  ES64L-G16RevC.01  3-Jul-2019

 ----------------------------------------------------------------------
 # B3LYP/6-31G* empiricaldispersion=gd3 guess=read geom=check nosymm in
 tegral(ultrafinegrid)
 ----------------------------------------------------------------------

 ------------------------------------------------------
 Candidate Structure: Conf:304 Charge calc in gas phase
 ------------------------------------------------------
 Structure from the checkpoint file:  "conf-304.chk"
 Charge =  1 Multiplicity = 1

                          Input orientation:
 ---------------------------------------------------------------------
 Center     Atomic      Atomic             Coordinates (Angstroms)
 Number     Number       Type             X           Y           Z
 ---------------------------------------------------------------------
      1          7           0        0.463116   -2.837468    2.499862
      2          1           0        0.430876   -3.217292    3.451643
      3          1           0        0.254418   -3.543098    1.779479
      4          1           0        1.414715   -2.473417    2.286298
      5          6           0       -0.523473   -1.707046    2.340352
      6          1           0       -1.485706   -2.097361    2.685038
      7          6           0       -0.565276   -1.474887    0.816428
      8          6           0       -0.076645   -0.510350    3.208749
      9          1           0        0.734847    0.011185    2.692291
     10          1           0       -0.927554    0.180387    3.281429
     11          8           0       -0.170664   -2.374448    0.075614
     12          6           0        0.384775   -0.950836    4.564593
     13          6           0        1.656491   -0.805965    5.071026
     14          1           0        2.513600   -0.308355    4.637863
     15          6           0       -0.369896   -1.703196    5.540018
     16          6           0        0.513790   -1.974947    6.621090
     17          6           0       -1.697033   -2.170861    5.611056
     18          1           0       -2.412270   -1.949074    4.822336
     19          7           0        1.736912   -1.414751    6.301930
     20          1           0        2.544209   -1.397969    6.907376
     21          6           0       -1.199303   -3.147491    7.788563
     22          1           0       -1.544298   -3.707484    8.652190
     23          6           0        0.113192   -2.693062    7.752335
     24          1           0        0.799564   -2.885763    8.571598
     25          6           0       -2.096323   -2.888705    6.730419
     26          1           0       -3.118134   -3.248644    6.801628
     27          7           0       -0.965813   -0.264071    0.383415
     28          1           0       -1.390421    0.384390    1.031767
     29          6           0       -0.881935    0.106067   -1.046987
     30          1           0       -1.054911    1.189369   -1.068637
     31          6           0        0.580225   -0.154184   -1.515068
     32          6           0       -1.920053   -0.585619   -1.959675
     33          1           0       -1.538558   -1.588577   -2.177493
     34          8           0        0.854647   -0.715674   -2.556973
     35          6           0       -2.027040    0.197975   -3.287315
     36          1           0       -2.542469    1.151089   -3.093752
     37          1           0       -1.021035    0.443765   -3.640008
     38          6           0       -3.281218   -0.702102   -1.260740
     39          1           0       -3.663734    0.283798   -0.963798
     40          1           0       -4.018289   -1.150609   -1.931621
     41          1           0       -3.232847   -1.333589   -0.367164
     42          6           0       -2.752625   -0.571155   -4.396090
     43          1           0       -2.769627    0.014263   -5.321123
     44          1           0       -3.791443   -0.799487   -4.134465
     45          1           0       -2.240633   -1.516592   -4.608987
     46          7           0        1.537754    0.336812   -0.650896
     47          1           0        1.223800    0.657992    0.254907
     48          6           0        2.908930   -0.132529   -0.707268
     49          1           0        3.086048   -0.509515   -1.716765
     50          6           0        3.088957   -1.287349    0.275270
     51          6           0        3.901484    1.006477   -0.388511
     52          1           0        3.677661    1.802231   -1.107141
     53          1           0        3.681507    1.402043    0.614330
     54          8           0        2.524400   -1.354976    1.364819
     55          6           0        5.377996    0.610267   -0.492928
     56          1           0        5.550555    0.124425   -1.459829
     57          1           0        5.637852   -0.122583    0.281706
     58          6           0        6.326686    1.819988   -0.358338
     59          1           0        6.174448    2.310274    0.610522
     60          1           0        7.364688    1.469064   -0.366066
     61          7           0        6.180931    2.834712   -1.387975
     62          1           0        5.369929    3.432932   -1.289968
     63          7           0        6.018859    3.550334   -3.585573
     64          1           0        6.374439    3.399098   -4.523876
     65          1           0        6.206763    4.499910   -3.277351
     66          7           0        7.173107    1.573933   -3.195768
     67          1           0        7.397298    0.877651   -2.486493
     68          6           0        6.514856    2.566615   -2.720604
     69          8           0        3.959997   -2.196665   -0.151931
     70          1           0        4.082556   -2.878172    0.536924
 ---------------------------------------------------------------------

 SCF Done:  E(RB3LYP) =  -1582.21151833     A.U. after    2 cycles

 Alpha  occ. eigenvalues --  -19.33374 -19.28576 -19.26146 -19.21995 -14.58772
 Alpha  occ. eigenvalues --  -14.50317 -14.49442 -14.46579 -14.41838 -14.39494
 Alpha  occ. eigenvalues --  -14.34301 -10.45930 -10.43488 -10.40310 -10.39369
 Alpha  occ. eigenvalues --  -10.34956 -10.34711 -10.34229 -10.33979 -10.33893
 Alpha  occ. eigenvalues --  -10.33009 -10.30648 -10.30330 -10.29949 -10.29809
 Alpha  occ. eigenvalues --  -10.29631 -10.29326 -10.28689 -10.28526 -10.27845
 Alpha  occ. eigenvalues --  -10.27808 -10.26211 -10.25392 -10.23819  -1.24574
 Alpha  occ. eigenvalues --   -1.18856  -1.15506  -1.14192  -1.13238  -1.09398
 Alpha  occ. eigenvalues --   -1.06572  -1.03684  -1.03329  -0.95196  -0.95124
 Alpha  occ. eigenvalues --   -0.94013  -0.91013  -0.89935  -0.89720  -0.88545
 Alpha  occ. eigenvalues --   -0.84560  -0.84313  -0.83612  -0.82200  -0.80022
 Alpha  occ. eigenvalues --   -0.79353  -0.78052  -0.74467  -0.74125  -0.73446
 Alpha  occ. eigenvalues --   -0.73137  -0.71788  -0.70659  -0.70212  -0.69534
 Alpha  occ. eigenvalues --   -0.68729  -0.68072  -0.65539  -0.65409  -0.64733
 Alpha  occ. eigenvalues --   -0.64048  -0.63808  -0.62937  -0.62353  -0.61090
 Alpha  occ. eigenvalues --   -0.59860  -0.59521  -0.59186  -0.58565  -0.57917
 Alpha  occ. eigenvalues --   -0.57566  -0.57265  -0.56580  -0.55532  -0.54987
 Alpha  occ. eigenvalues --   -0.54602  -0.53882  -0.53785  -0.53357  -0.53072
 Alpha  occ. eigenvalues --   -0.52986  -0.52519  -0.52143  -0.52031  -0.50999
 Alpha  occ. eigenvalues --   -0.50773  -0.49919  -0.49389  -0.49274  -0.49061
 Alpha  occ. eigenvalues --   -0.48678  -0.47660  -0.46511  -0.46014  -0.45932
 Alpha  occ. eigenvalues --   -0.45746  -0.45520  -0.44416  -0.44254  -0.44108
 Alpha  occ. eigenvalues --   -0.43547  -0.43484  -0.42742  -0.42623  -0.42002
 Alpha  occ. eigenvalues --   -0.41006  -0.40153  -0.39627  -0.39208  -0.38497
 Alpha  occ. eigenvalues --   -0.36332  -0.35030  -0.33279  -0.31993  -0.31836
 Alpha  occ. eigenvalues --   -0.31806  -0.28818
 Alpha virt. eigenvalues --   -0.13638  -0.12616  -0.11834  -0.09256  -0.08346
 Alpha virt. eigenvalues --   -0.07534  -0.06473  -0.05247  -0.04893  -0.03802
 Alpha virt. eigenvalues --   -0.02787  -0.02236  -0.02015  -0.01057  -0.00500

 Mulliken charges:
               1
     1  N   -0.748411
     2  H    0.413595
     3  H    0.416425
     4  H    0.433509
     5  C   -0.130025
     6  H    0.226049
     7  C    0.673436
     8  C   -0.377247
     9  H    0.183476
    10  H    0.180244
    11  O   -0.527355
    12  C    0.004324
    13  C    0.010038
    14  H    0.173946
    15  C    0.062822
    16  C    0.312474
    17  C   -0.229337
    18  H    0.126417
    19  N   -0.679351
    20  H    0.350342
    21  C   -0.147844
    22  H    0.159586
    23  C   -0.153900
    24  H    0.154684
    25  C   -0.132842
    26  H    0.153099
    27  N   -0.639434
    28  H    0.351824
    29  C   -0.059925
    30  H    0.177735
    31  C    0.625532
    32  C   -0.066414
    33  H    0.174279
    34  O   -0.478953
    35  C   -0.271628
    36  H    0.127667
    37  H    0.168281
    38  C   -0.462484
    39  H    0.137263
    40  H    0.177770
    41  H    0.127732
    42  C   -0.454523
    43  H    0.160898
    44  H    0.148649
    45  H    0.160163
    46  N   -0.600286
    47  H    0.328307
    48  C   -0.055003
    49  H    0.231769
    50  C    0.622803
    51  C   -0.281341
    52  H    0.180841
    53  H    0.133378
    54  O   -0.538189
    55  C   -0.274927
    56  H    0.174575
    57  H    0.133633
    58  C   -0.162468
    59  H    0.148871
    60  H    0.173092
    61  N   -0.581708
    62  H    0.319141
    63  N   -0.754874
    64  H    0.343949
    65  H    0.323145
    66  N   -0.632689
    67  H    0.274159
    68  C    0.572798
    69  O   -0.512820
    70  H    0.421257
 Sum of Mulliken charges =   1.00000

 Dipole moment (field-independent basis, Debye):
    X=              3.8775    Y=             -4.9936    Z=             16.4919  Tot=             17.6623
 Quadrupole moment (field-independent basis, Debye-Ang):
   XX=           -167.6510   YY=           -156.2535   ZZ=           -136.0126
   XY=              2.6750   XZ=             31.2061   YZ=            -43.8081

 Normal termination of Gaussian 16 at Fri Jun  3 04:42:28 2022.
