 Gaussian 16, Revision C.01,
 Gaussian 16:  ES64L-G16RevC.01  3-Jul-2019

 ----------------------------------------------------------------------
 # B3LYP/6-31G* empiricaldispersion=gd3 guess=read geom=check nosymm in
 tegral(ultrafinegrid)
 ----------------------------------------------------------------------

 ------------------------------------------------------
 Candidate Structure: Conf:112 Charge calc in gas phase
 ------------------------------------------------------
 Structure from the checkpoint file:  "conf-112.chk"
 Charge =  1 Multiplicity = 1

                          Input orientation:
 ---------------------------------------------------------------------
 Center     Atomic      Atomic             Coordinates (Angstroms)
 Number     Number       Type             X           Y           Z
 ---------------------------------------------------------------------
      1          7           0       -0.213335   -4.716256    0.628843
      2          1           0       -0.850115   -5.311892    1.163488
      3          1           0       -0.711978   -4.342125   -0.241644
      4          1           0        0.607254   -5.267938    0.362996
      5          6           0        0.152308   -3.424390    1.332009
      6          1           0       -0.270917   -3.457178    2.338144
      7          6           0       -0.548465   -2.353006    0.443468
      8          6           0        1.682144   -3.234683    1.369234
      9          1           0        2.144122   -4.185946    1.675849
     10          1           0        2.016961   -3.012926    0.349131
     11          8           0       -1.086831   -2.749462   -0.596936
     12          6           0        2.127780   -2.120270    2.273819
     13          6           0        1.661962   -1.807899    3.537038
     14          1           0        0.866649   -2.249767    4.123288
     15          6           0        3.244988   -1.248647    2.015491
     16          6           0        3.399251   -0.421639    3.158183
     17          6           0        4.139976   -1.107835    0.940058
     18          1           0        4.030724   -1.707808    0.042076
     19          7           0        2.409179   -0.773787    4.057183
     20          1           0        2.296465   -0.384694    4.981338
     21          6           0        5.286675    0.645713    2.180099
     22          1           0        6.090677    1.374932    2.220850
     23          6           0        4.411849    0.540058    3.253711
     24          1           0        4.513503    1.167896    4.134008
     25          6           0        5.158140   -0.170188    1.033740
     26          1           0        5.828228   -0.042958    0.188133
     27          7           0       -0.499277   -1.102959    0.920401
     28          1           0        0.071337   -1.005859    1.757883
     29          6           0       -0.498301    0.112344    0.085212
     30          1           0       -0.659896    0.942725    0.783266
     31          6           0        0.927806    0.198354   -0.521025
     32          6           0       -1.611175    0.161283   -0.991297
     33          1           0       -1.411142   -0.641300   -1.707673
     34          8           0        1.472575   -0.803943   -0.978811
     35          6           0       -1.553769    1.507225   -1.746052
     36          1           0       -1.731883    2.329203   -1.035798
     37          1           0       -0.544213    1.657337   -2.144959
     38          6           0       -2.983030   -0.078852   -0.345941
     39          1           0       -3.224894    0.716329    0.370943
     40          1           0       -3.769066   -0.095758   -1.105155
     41          1           0       -3.017853   -1.037015    0.179067
     42          6           0       -2.551647    1.607249   -2.905673
     43          1           0       -2.389741    2.531068   -3.470587
     44          1           0       -3.589683    1.613527   -2.559606
     45          1           0       -2.432407    0.766013   -3.599038
     46          7           0        1.477157    1.431615   -0.497006
     47          1           0        1.021387    2.171424    0.023789
     48          6           0        2.819739    1.737961   -0.966795
     49          1           0        3.424094    0.828599   -0.913825
     50          6           0        3.417144    2.744772    0.006393
     51          6           0        2.843257    2.268265   -2.416089
     52          1           0        2.132749    3.098552   -2.507571
     53          1           0        3.838058    2.691575   -2.577797
     54          8           0        2.805394    3.298173    0.894320
     55          6           0        2.560279    1.159984   -3.454753
     56          1           0        1.541533    1.250812   -3.851142
     57          1           0        2.612490    0.178279   -2.973570
     58          6           0        3.556480    1.159653   -4.630000
     59          1           0        3.337452    0.309921   -5.284518
     60          1           0        3.453934    2.062381   -5.241846
     61          7           0        4.971744    1.095778   -4.212933
     62          1           0        5.354981    2.011079   -4.007465
     63          7           0        4.966950   -1.134667   -3.544704
     64          1           0        5.389157   -1.809127   -2.917468
     65          1           0        5.087918   -1.379657   -4.521221
     66          7           0        5.964234    0.404678   -2.127292
     67          1           0        6.027096    1.407706   -1.947869
     68          6           0        5.347930    0.164812   -3.230883
     69          8           0        4.720738    2.968975   -0.255825
     70          1           0        5.036008    3.620537    0.398960
 ---------------------------------------------------------------------

 SCF Done:  E(RB3LYP) =  -1582.21082611     A.U. after    1 cycles

 Alpha  occ. eigenvalues --  -19.28916 -19.26849 -19.23304 -19.21473 -14.59690
 Alpha  occ. eigenvalues --  -14.49038 -14.48066 -14.45865 -14.41459 -14.40955
 Alpha  occ. eigenvalues --  -14.35744 -10.43403 -10.41201 -10.40555 -10.38670
 Alpha  occ. eigenvalues --  -10.34839 -10.34345 -10.33600 -10.32931 -10.32338
 Alpha  occ. eigenvalues --  -10.31099 -10.29747 -10.29222 -10.28502 -10.27744
 Alpha  occ. eigenvalues --  -10.27416 -10.27371 -10.26783 -10.26754 -10.26688
 Alpha  occ. eigenvalues --  -10.25843 -10.25604 -10.25488 -10.24972  -1.19796
 Alpha  occ. eigenvalues --   -1.19262  -1.13742  -1.13192  -1.10930  -1.07937
 Alpha  occ. eigenvalues --   -1.06043  -1.04221  -1.02439  -0.95293  -0.94346
 Alpha  occ. eigenvalues --   -0.92403  -0.91119  -0.90753  -0.87976  -0.87764
 Alpha  occ. eigenvalues --   -0.83612  -0.82225  -0.82014  -0.81331  -0.79981
 Alpha  occ. eigenvalues --   -0.79187  -0.75097  -0.74020  -0.73469  -0.72802
 Alpha  occ. eigenvalues --   -0.71787  -0.71216  -0.69579  -0.68734  -0.68146
 Alpha  occ. eigenvalues --   -0.67835  -0.66448  -0.65718  -0.65146  -0.64720
 Alpha  occ. eigenvalues --   -0.63274  -0.61992  -0.61837  -0.61225  -0.59690
 Alpha  occ. eigenvalues --   -0.58361  -0.57808  -0.57402  -0.57124  -0.56405
 Alpha  occ. eigenvalues --   -0.56303  -0.55310  -0.54809  -0.54313  -0.54241
 Alpha  occ. eigenvalues --   -0.53367  -0.53009  -0.52806  -0.52169  -0.51905
 Alpha  occ. eigenvalues --   -0.51697  -0.51105  -0.50990  -0.50896  -0.50386
 Alpha  occ. eigenvalues --   -0.50097  -0.49749  -0.48957  -0.48504  -0.48376
 Alpha  occ. eigenvalues --   -0.47700  -0.46881  -0.46043  -0.45189  -0.45110
 Alpha  occ. eigenvalues --   -0.44257  -0.43637  -0.43164  -0.42686  -0.42432
 Alpha  occ. eigenvalues --   -0.42285  -0.41994  -0.41539  -0.41252  -0.40988
 Alpha  occ. eigenvalues --   -0.40863  -0.40162  -0.39567  -0.36896  -0.36722
 Alpha  occ. eigenvalues --   -0.34976  -0.34861  -0.34093  -0.31949  -0.31259
 Alpha  occ. eigenvalues --   -0.29946  -0.29753
 Alpha virt. eigenvalues --   -0.12612  -0.11112  -0.10410  -0.08135  -0.07635
 Alpha virt. eigenvalues --   -0.06598  -0.05971  -0.04633  -0.03033  -0.02742
 Alpha virt. eigenvalues --   -0.01942  -0.01568  -0.01540  -0.00933  -0.00518

 Mulliken charges:
               1
     1  N   -0.764612
     2  H    0.413957
     3  H    0.436428
     4  H    0.414206
     5  C   -0.126778
     6  H    0.210205
     7  C    0.672395
     8  C   -0.365389
     9  H    0.175963
    10  H    0.219316
    11  O   -0.534272
    12  C    0.015888
    13  C   -0.020626
    14  H    0.157624
    15  C    0.095403
    16  C    0.308073
    17  C   -0.220162
    18  H    0.143382
    19  N   -0.683756
    20  H    0.346324
    21  C   -0.161820
    22  H    0.138402
    23  C   -0.149892
    24  H    0.144585
    25  C   -0.160633
    26  H    0.199860
    27  N   -0.590516
    28  H    0.360135
    29  C   -0.078074
    30  H    0.156851
    31  C    0.642115
    32  C   -0.084330
    33  H    0.176838
    34  O   -0.540481
    35  C   -0.279508
    36  H    0.131715
    37  H    0.152974
    38  C   -0.454899
    39  H    0.145457
    40  H    0.170865
    41  H    0.147808
    42  C   -0.453215
    43  H    0.158793
    44  H    0.159841
    45  H    0.152878
    46  N   -0.595350
    47  H    0.351059
    48  C   -0.068533
    49  H    0.233364
    50  C    0.600203
    51  C   -0.265087
    52  H    0.152475
    53  H    0.146608
    54  O   -0.469431
    55  C   -0.302103
    56  H    0.145107
    57  H    0.201948
    58  C   -0.150355
    59  H    0.160571
    60  H    0.157788
    61  N   -0.578684
    62  H    0.318412
    63  N   -0.725331
    64  H    0.335762
    65  H    0.334682
    66  N   -0.644847
    67  H    0.282870
    68  C    0.541405
    69  O   -0.566725
    70  H    0.424873
 Sum of Mulliken charges =   1.00000

 Dipole moment (field-independent basis, Debye):
    X=              3.5686    Y=            -10.0012    Z=              4.1359  Tot=             11.3958
 Quadrupole moment (field-independent basis, Debye-Ang):
   XX=           -178.4961   YY=           -109.6152   ZZ=           -152.8392
   XY=             16.6708   XZ=             -5.5575   YZ=            -20.9894

 Normal termination of Gaussian 16 at Fri Jun  3 04:42:21 2022.
