 Gaussian 16, Revision C.01,
 Gaussian 16:  ES64L-G16RevC.01  3-Jul-2019

 ----------------------------------------------------------------------
 # B3LYP/6-31G* empiricaldispersion=gd3 guess=read geom=check nosymm in
 tegral(ultrafinegrid)
 ----------------------------------------------------------------------

 ------------------------------------------------------
 Candidate Structure: Conf:684 Charge calc in gas phase
 ------------------------------------------------------
 Structure from the checkpoint file:  "conf-684.chk"
 Charge =  1 Multiplicity = 1

                          Input orientation:
 ---------------------------------------------------------------------
 Center     Atomic      Atomic             Coordinates (Angstroms)
 Number     Number       Type             X           Y           Z
 ---------------------------------------------------------------------
      1          7           0       -2.611647   -2.310284    3.002821
      2          1           0       -3.238710   -1.499147    2.969287
      3          1           0       -2.798107   -2.901401    2.167268
      4          1           0       -2.804337   -2.842346    3.858003
      5          6           0       -1.134796   -1.932451    2.861114
      6          1           0       -0.934451   -1.058115    3.483061
      7          6           0       -1.013219   -1.682409    1.334651
      8          6           0       -0.317374   -3.165932    3.293514
      9          1           0       -0.490530   -3.339197    4.364376
     10          1           0       -0.722388   -4.028860    2.749461
     11          8           0       -1.470382   -2.575410    0.615536
     12          6           0        1.150298   -3.047129    3.024585
     13          6           0        1.767102   -3.304356    1.821904
     14          1           0        1.334267   -3.567560    0.868277
     15          6           0        2.188119   -2.697920    3.959479
     16          6           0        3.421557   -2.787586    3.254060
     17          6           0        2.206633   -2.309832    5.310456
     18          1           0        1.282586   -2.222293    5.876942
     19          7           0        3.122916   -3.155703    1.957794
     20          1           0        3.768678   -3.153207    1.182464
     21          6           0        4.644160   -2.169746    5.205443
     22          1           0        5.583100   -1.967026    5.711055
     23          6           0        4.653929   -2.539274    3.865746
     24          1           0        5.584278   -2.624306    3.312128
     25          6           0        3.431510   -2.045116    5.920242
     26          1           0        3.458864   -1.757298    6.967184
     27          7           0       -0.513773   -0.487383    0.991833
     28          1           0       -0.072794    0.015703    1.767449
     29          6           0        0.032172   -0.030112   -0.321047
     30          1           0       -0.286890    1.016677   -0.417046
     31          6           0        1.546078   -0.084858   -0.015359
     32          6           0       -0.441010   -0.772299   -1.577442
     33          1           0       -0.145845   -1.822560   -1.487779
     34          8           0        2.188751   -1.122474   -0.062496
     35          6           0        0.199373   -0.172399   -2.855222
     36          1           0       -0.288268   -0.674087   -3.699787
     37          1           0       -0.094744    0.885074   -2.932900
     38          6           0       -1.970567   -0.670261   -1.717234
     39          1           0       -2.279073    0.376768   -1.833011
     40          1           0       -2.299613   -1.210731   -2.610457
     41          1           0       -2.498071   -1.098961   -0.864283
     42          6           0        1.718371   -0.296710   -3.033931
     43          1           0        1.988558   -0.049498   -4.065980
     44          1           0        2.065477   -1.312761   -2.822191
     45          1           0        2.276902    0.384785   -2.385077
     46          7           0        2.040901    1.093498    0.480929
     47          1           0        1.394572    1.869946    0.552810
     48          6           0        3.106468    1.098492    1.469787
     49          1           0        3.872743    0.387322    1.149049
     50          6           0        2.534456    0.585108    2.803139
     51          6           0        3.698067    2.520336    1.582678
     52          1           0        3.813228    2.880347    0.552839
     53          1           0        2.961475    3.176880    2.059667
     54          8           0        1.345991    0.396170    3.023433
     55          6           0        5.049119    2.622870    2.300867
     56          1           0        5.794280    2.024781    1.757939
     57          1           0        4.979949    2.195292    3.306491
     58          6           0        5.565002    4.070860    2.414841
     59          1           0        6.598525    4.049437    2.778453
     60          1           0        5.599765    4.551161    1.430582
     61          7           0        4.798909    4.921561    3.311591
     62          1           0        4.804728    4.628493    4.280961
     63          7           0        2.995707    6.171740    4.041667
     64          1           0        2.260312    6.796839    3.728829
     65          1           0        3.615746    6.644464    4.692752
     66          7           0        3.158613    5.789048    1.760546
     67          1           0        3.673173    5.270293    1.050474
     68          6           0        3.654948    5.619656    2.934501
     69          8           0        3.488579    0.364411    3.699891
     70          1           0        3.108955   -0.085150    4.486738
 ---------------------------------------------------------------------

 SCF Done:  E(RB3LYP) =  -1582.20373968     A.U. after    1 cycles

 Alpha  occ. eigenvalues --  -19.30173 -19.25732 -19.25599 -19.22612 -14.61708
 Alpha  occ. eigenvalues --  -14.49352 -14.47331 -14.46760 -14.41908 -14.39996
 Alpha  occ. eigenvalues --  -14.34606 -10.43306 -10.42983 -10.40328 -10.39620
 Alpha  occ. eigenvalues --  -10.34748 -10.34407 -10.34344 -10.33495 -10.31690
 Alpha  occ. eigenvalues --  -10.31389 -10.29943 -10.28725 -10.28640 -10.28570
 Alpha  occ. eigenvalues --  -10.28566 -10.28390 -10.28210 -10.27808 -10.27689
 Alpha  occ. eigenvalues --  -10.27201 -10.26481 -10.25801 -10.24613  -1.21687
 Alpha  occ. eigenvalues --   -1.18469  -1.14963  -1.14503  -1.12653  -1.07567
 Alpha  occ. eigenvalues --   -1.05837  -1.03922  -1.03578  -0.95306  -0.94258
 Alpha  occ. eigenvalues --   -0.93297  -0.91045  -0.90175  -0.89178  -0.87689
 Alpha  occ. eigenvalues --   -0.84381  -0.83190  -0.82695  -0.81672  -0.80267
 Alpha  occ. eigenvalues --   -0.78991  -0.76697  -0.74846  -0.74207  -0.73008
 Alpha  occ. eigenvalues --   -0.72377  -0.71699  -0.69942  -0.69432  -0.68823
 Alpha  occ. eigenvalues --   -0.68443  -0.66669  -0.65490  -0.64835  -0.64517
 Alpha  occ. eigenvalues --   -0.63291  -0.62913  -0.62463  -0.61361  -0.61063
 Alpha  occ. eigenvalues --   -0.60660  -0.59384  -0.58183  -0.57717  -0.57359
 Alpha  occ. eigenvalues --   -0.56770  -0.56395  -0.56037  -0.54552  -0.53738
 Alpha  occ. eigenvalues --   -0.53329  -0.53117  -0.52663  -0.52416  -0.52095
 Alpha  occ. eigenvalues --   -0.51842  -0.51639  -0.51204  -0.50856  -0.50612
 Alpha  occ. eigenvalues --   -0.50350  -0.49914  -0.49431  -0.49186  -0.48661
 Alpha  occ. eigenvalues --   -0.47901  -0.47774  -0.47529  -0.45885  -0.45204
 Alpha  occ. eigenvalues --   -0.45035  -0.43996  -0.43846  -0.43502  -0.43231
 Alpha  occ. eigenvalues --   -0.42898  -0.42735  -0.42015  -0.41587  -0.41249
 Alpha  occ. eigenvalues --   -0.40584  -0.40254  -0.39069  -0.38964  -0.37403
 Alpha  occ. eigenvalues --   -0.36884  -0.35168  -0.32501  -0.32163  -0.31895
 Alpha  occ. eigenvalues --   -0.30160  -0.28860
 Alpha virt. eigenvalues --   -0.13712  -0.11534  -0.10719  -0.10452  -0.08545
 Alpha virt. eigenvalues --   -0.07161  -0.06702  -0.04761  -0.03761  -0.03164
 Alpha virt. eigenvalues --   -0.01143  -0.00931  -0.00409   0.00154   0.00371

 Mulliken charges:
               1
     1  N   -0.740136
     2  H    0.420998
     3  H    0.424244
     4  H    0.416771
     5  C   -0.121401
     6  H    0.220239
     7  C    0.655605
     8  C   -0.374993
     9  H    0.170207
    10  H    0.187712
    11  O   -0.537215
    12  C    0.040586
    13  C    0.042193
    14  H    0.189283
    15  C    0.092524
    16  C    0.304579
    17  C   -0.235783
    18  H    0.122109
    19  N   -0.673712
    20  H    0.352146
    21  C   -0.152109
    22  H    0.152117
    23  C   -0.145434
    24  H    0.149711
    25  C   -0.181142
    26  H    0.148484
    27  N   -0.628308
    28  H    0.390510
    29  C   -0.051220
    30  H    0.157471
    31  C    0.622441
    32  C   -0.089441
    33  H    0.166480
    34  O   -0.520211
    35  C   -0.268924
    36  H    0.157028
    37  H    0.135660
    38  C   -0.454879
    39  H    0.142969
    40  H    0.166796
    41  H    0.144964
    42  C   -0.456033
    43  H    0.159564
    44  H    0.161969
    45  H    0.146574
    46  N   -0.588799
    47  H    0.341093
    48  C   -0.056411
    49  H    0.204284
    50  C    0.634711
    51  C   -0.310664
    52  H    0.170413
    53  H    0.178016
    54  O   -0.517364
    55  C   -0.266165
    56  H    0.145263
    57  H    0.162137
    58  C   -0.160773
    59  H    0.166315
    60  H    0.163658
    61  N   -0.586401
    62  H    0.321280
    63  N   -0.753304
    64  H    0.340190
    65  H    0.324191
    66  N   -0.649637
    67  H    0.270913
    68  C    0.575417
    69  O   -0.553334
    70  H    0.433975
 Sum of Mulliken charges =   1.00000

 Dipole moment (field-independent basis, Debye):
    X=             -0.0363    Y=             -4.7175    Z=             14.7644  Tot=             15.4998
 Quadrupole moment (field-independent basis, Debye-Ang):
   XX=           -127.3437   YY=           -177.1905   ZZ=           -129.9318
   XY=             26.6826   XZ=             -0.5915   YZ=             -8.6375

 Normal termination of Gaussian 16 at Fri Jun  3 04:42:24 2022.
