 Gaussian 16, Revision C.01,
 Gaussian 16:  ES64L-G16RevC.01  3-Jul-2019

 ----------------------------------------------------------------------
 # B3LYP/6-31G* empiricaldispersion=gd3 guess=read geom=check nosymm in
 tegral(ultrafinegrid)
 ----------------------------------------------------------------------

 ------------------------------------------------------
 Candidate Structure: Conf:669 Charge calc in gas phase
 ------------------------------------------------------
 Structure from the checkpoint file:  "conf-669.chk"
 Charge =  1 Multiplicity = 1

                          Input orientation:
 ---------------------------------------------------------------------
 Center     Atomic      Atomic             Coordinates (Angstroms)
 Number     Number       Type             X           Y           Z
 ---------------------------------------------------------------------
      1          7           0       -2.466382   -3.533180    2.677262
      2          1           0       -3.421979   -3.360369    3.001965
      3          1           0       -2.509290   -4.085261    1.790446
      4          1           0       -1.935333   -4.026179    3.414656
      5          6           0       -1.725729   -2.280389    2.279507
      6          1           0       -2.053739   -1.461534    2.921859
      7          6           0       -2.035843   -2.096300    0.780641
      8          6           0       -0.213061   -2.566751    2.455339
      9          1           0        0.061023   -3.374224    1.766440
     10          1           0        0.323667   -1.684695    2.104021
     11          8           0       -2.258960   -3.121321    0.135210
     12          6           0        0.138193   -2.912548    3.867841
     13          6           0        0.569081   -4.140682    4.330741
     14          1           0        0.761193   -5.053312    3.781485
     15          6           0        0.136648   -2.020802    5.003141
     16          6           0        0.590858   -2.772558    6.119049
     17          6           0       -0.194675   -0.662543    5.181584
     18          1           0       -0.567142   -0.068413    4.352219
     19          7           0        0.836293   -4.059582    5.677074
     20          1           0        1.213740   -4.807357    6.240270
     21          6           0        0.415775   -0.865178    7.536368
     22          1           0        0.520186   -0.395570    8.509519
     23          6           0        0.734889   -2.209588    7.391809
     24          1           0        1.087145   -2.798573    8.233507
     25          6           0       -0.046282   -0.099558    6.444409
     26          1           0       -0.300891    0.944794    6.600430
     27          7           0       -1.990714   -0.821589    0.337717
     28          1           0       -1.739192   -0.150567    1.063140
     29          6           0       -1.436562   -0.389447   -0.979716
     30          1           0       -1.870768    0.599804   -1.171674
     31          6           0        0.060834   -0.267442   -0.617438
     32          6           0       -1.758871   -1.296605   -2.176571
     33          1           0       -1.298291   -2.271865   -1.990572
     34          8           0        0.728140   -1.259446   -0.355745
     35          6           0       -1.179082   -0.716822   -3.488411
     36          1           0       -1.578147   -1.336127   -4.300592
     37          1           0       -1.595578    0.288443   -3.652528
     38          6           0       -3.279590   -1.467133   -2.320362
     39          1           0       -3.766107   -0.501444   -2.508106
     40          1           0       -3.502736   -2.120737   -3.169625
     41          1           0       -3.727487   -1.915241   -1.431294
     42          6           0        0.349993   -0.676675   -3.618644
     43          1           0        0.631686   -0.468046   -4.656067
     44          1           0        0.798909   -1.633482   -3.331512
     45          1           0        0.806852    0.102998   -3.000911
     46          7           0        0.521326    1.009543   -0.421575
     47          1           0       -0.156469    1.757852   -0.503023
     48          6           0        1.573606    1.228312    0.558283
     49          1           0        2.356276    0.484569    0.384260
     50          6           0        0.998638    0.953657    1.955943
     51          6           0        2.170842    2.641871    0.458441
     52          1           0        1.371895    3.382895    0.608790
     53          1           0        2.875504    2.770553    1.286991
     54          8           0       -0.188222    0.769979    2.187044
     55          6           0        2.879713    2.885663   -0.878297
     56          1           0        2.177133    2.713293   -1.704853
     57          1           0        3.695661    2.163199   -1.003407
     58          6           0        3.447926    4.303387   -0.969810
     59          1           0        2.635144    5.040103   -0.835133
     60          1           0        4.158975    4.464028   -0.150005
     61          7           0        4.159861    4.488244   -2.221460
     62          1           0        3.649304    4.169997   -3.039067
     63          7           0        5.331023    5.751186   -3.765954
     64          1           0        5.906030    6.576302   -3.896636
     65          1           0        5.810587    4.908751   -4.066764
     66          7           0        5.036027    6.669337   -1.651856
     67          1           0        4.502697    6.571379   -0.788485
     68          6           0        4.841788    5.692713   -2.458066
     69          8           0        1.944087    0.921428    2.895254
     70          1           0        1.531735    0.712249    3.759371
 ---------------------------------------------------------------------

 SCF Done:  E(RB3LYP) =  -1582.20839495     A.U. after    1 cycles

 Alpha  occ. eigenvalues --  -19.31856 -19.27073 -19.26184 -19.23075 -14.59860
 Alpha  occ. eigenvalues --  -14.49480 -14.49143 -14.47523 -14.40706 -14.38478
 Alpha  occ. eigenvalues --  -14.33406 -10.44645 -10.43099 -10.40090 -10.39846
 Alpha  occ. eigenvalues --  -10.35170 -10.34952 -10.34261 -10.33035 -10.32969
 Alpha  occ. eigenvalues --  -10.32762 -10.30754 -10.29911 -10.29869 -10.29500
 Alpha  occ. eigenvalues --  -10.29497 -10.29367 -10.28878 -10.28829 -10.28464
 Alpha  occ. eigenvalues --  -10.27876 -10.26647 -10.25572 -10.25004  -1.23135
 Alpha  occ. eigenvalues --   -1.18577  -1.15389  -1.14032  -1.13801  -1.09455
 Alpha  occ. eigenvalues --   -1.05855  -1.04272  -1.02615  -0.95016  -0.94321
 Alpha  occ. eigenvalues --   -0.93849  -0.91408  -0.89926  -0.88780  -0.88597
 Alpha  occ. eigenvalues --   -0.84524  -0.84453  -0.83735  -0.82449  -0.80323
 Alpha  occ. eigenvalues --   -0.79168  -0.76601  -0.73877  -0.73262  -0.73214
 Alpha  occ. eigenvalues --   -0.72899  -0.72306  -0.70319  -0.70003  -0.69931
 Alpha  occ. eigenvalues --   -0.69212  -0.68137  -0.65604  -0.65099  -0.64706
 Alpha  occ. eigenvalues --   -0.63605  -0.63141  -0.62143  -0.61820  -0.61148
 Alpha  occ. eigenvalues --   -0.59982  -0.59537  -0.59235  -0.58397  -0.57816
 Alpha  occ. eigenvalues --   -0.57646  -0.56505  -0.55961  -0.55091  -0.55019
 Alpha  occ. eigenvalues --   -0.54267  -0.53870  -0.53444  -0.53148  -0.52403
 Alpha  occ. eigenvalues --   -0.52323  -0.52272  -0.51788  -0.51327  -0.51029
 Alpha  occ. eigenvalues --   -0.50217  -0.49987  -0.49287  -0.49181  -0.49002
 Alpha  occ. eigenvalues --   -0.48639  -0.48118  -0.47877  -0.46112  -0.45388
 Alpha  occ. eigenvalues --   -0.45251  -0.44552  -0.44343  -0.44315  -0.44223
 Alpha  occ. eigenvalues --   -0.43700  -0.43364  -0.41837  -0.41457  -0.41361
 Alpha  occ. eigenvalues --   -0.40954  -0.40770  -0.40011  -0.39325  -0.38540
 Alpha  occ. eigenvalues --   -0.37849  -0.35589  -0.33426  -0.32058  -0.31253
 Alpha  occ. eigenvalues --   -0.30521  -0.28146
 Alpha virt. eigenvalues --   -0.13750  -0.12595  -0.11861  -0.10156  -0.08519
 Alpha virt. eigenvalues --   -0.08296  -0.05747  -0.04460  -0.03923  -0.02469
 Alpha virt. eigenvalues --   -0.02159  -0.02008  -0.01456   0.00069   0.00167

 Mulliken charges:
               1
     1  N   -0.734867
     2  H    0.415276
     3  H    0.420936
     4  H    0.393374
     5  C   -0.134505
     6  H    0.212669
     7  C    0.659897
     8  C   -0.377744
     9  H    0.194216
    10  H    0.220306
    11  O   -0.520734
    12  C    0.003647
    13  C   -0.007718
    14  H    0.180885
    15  C    0.088376
    16  C    0.313295
    17  C   -0.281279
    18  H    0.163284
    19  N   -0.677683
    20  H    0.352224
    21  C   -0.145069
    22  H    0.159523
    23  C   -0.151396
    24  H    0.156620
    25  C   -0.143929
    26  H    0.150341
    27  N   -0.610110
    28  H    0.375332
    29  C   -0.060298
    30  H    0.153270
    31  C    0.617357
    32  C   -0.090694
    33  H    0.174534
    34  O   -0.518780
    35  C   -0.266866
    36  H    0.159321
    37  H    0.132484
    38  C   -0.455069
    39  H    0.143452
    40  H    0.165251
    41  H    0.158154
    42  C   -0.466441
    43  H    0.161790
    44  H    0.166013
    45  H    0.144860
    46  N   -0.575585
    47  H    0.337213
    48  C   -0.056118
    49  H    0.221077
    50  C    0.612390
    51  C   -0.301216
    52  H    0.149011
    53  H    0.186478
    54  O   -0.509010
    55  C   -0.284864
    56  H    0.148852
    57  H    0.167960
    58  C   -0.119824
    59  H    0.138424
    60  H    0.163441
    61  N   -0.607666
    62  H    0.320452
    63  N   -0.751872
    64  H    0.341880
    65  H    0.321682
    66  N   -0.636854
    67  H    0.276302
    68  C    0.579396
    69  O   -0.549136
    70  H    0.434081
 Sum of Mulliken charges =   1.00000

 Dipole moment (field-independent basis, Debye):
    X=             -5.3964    Y=            -10.8147    Z=             13.6938  Tot=             18.2647
 Quadrupole moment (field-independent basis, Debye-Ang):
   XX=           -179.6191   YY=           -163.9044   ZZ=           -107.8731
   XY=              5.5129   XZ=            -12.0609   YZ=            -51.6013

 Normal termination of Gaussian 16 at Fri Jun  3 04:42:29 2022.
