 Gaussian 16, Revision C.01,
 Gaussian 16:  ES64L-G16RevC.01  3-Jul-2019

 ----------------------------------------------------------------------
 # B3LYP/6-31G* empiricaldispersion=gd3 guess=read geom=check nosymm in
 tegral(ultrafinegrid)
 ----------------------------------------------------------------------

 ------------------------------------------------------
 Candidate Structure: Conf:497 Charge calc in gas phase
 ------------------------------------------------------
 Structure from the checkpoint file:  "conf-497.chk"
 Charge =  1 Multiplicity = 1

                          Input orientation:
 ---------------------------------------------------------------------
 Center     Atomic      Atomic             Coordinates (Angstroms)
 Number     Number       Type             X           Y           Z
 ---------------------------------------------------------------------
      1          7           0       -0.600367   -2.624338    1.957573
      2          1           0       -1.113933   -3.338357    1.425324
      3          1           0        0.342017   -2.562938    1.513491
      4          1           0       -0.478239   -2.888204    2.942359
      5          6           0       -1.359402   -1.319264    1.829130
      6          1           0       -2.355753   -1.523105    2.234429
      7          6           0       -1.481747   -1.159466    0.299038
      8          6           0       -0.678861   -0.214889    2.654433
      9          1           0        0.274535    0.075088    2.193183
     10          1           0       -1.339499    0.659912    2.613700
     11          8           0       -1.725855   -2.174515   -0.354405
     12          6           0       -0.450154   -0.637934    4.076431
     13          6           0       -1.303185   -0.504157    5.148026
     14          1           0       -2.268736   -0.019862    5.206976
     15          6           0        0.708165   -1.354668    4.557372
     16          6           0        0.484856   -1.629004    5.934432
     17          6           0        1.909668   -1.781023    3.957293
     18          1           0        2.122426   -1.552434    2.916226
     19          7           0       -0.746836   -1.096155    6.260332
     20          1           0       -1.157065   -1.098791    7.182293
     21          6           0        2.586048   -2.739305    6.096456
     22          1           0        3.330246   -3.278120    6.674998
     23          6           0        1.415598   -2.320450    6.717270
     24          1           0        1.232414   -2.520447    7.768949
     25          6           0        2.832118   -2.470572    4.732550
     26          1           0        3.766220   -2.801811    4.288337
     27          7           0       -1.241403    0.048018   -0.237294
     28          1           0       -0.966637    0.845615    0.331772
     29          6           0       -1.022339    0.194051   -1.682227
     30          1           0       -0.692042    1.233770   -1.798995
     31          6           0        0.171761   -0.693365   -2.123296
     32          6           0       -2.270822   -0.022778   -2.576899
     33          1           0       -2.328689   -1.092537   -2.800837
     34          8           0        0.270086   -1.143515   -3.254743
     35          6           0       -2.082599    0.748395   -3.903134
     36          1           0       -2.191036    1.825785   -3.700400
     37          1           0       -1.062549    0.589305   -4.264751
     38          6           0       -3.555599    0.404280   -1.855709
     39          1           0       -3.497428    1.448047   -1.520242
     40          1           0       -4.414319    0.319744   -2.527201
     41          1           0       -3.761399   -0.224732   -0.984932
     42          6           0       -3.058378    0.326025   -5.005815
     43          1           0       -2.863657    0.882818   -5.928576
     44          1           0       -4.102925    0.505362   -4.729446
     45          1           0       -2.946906   -0.741019   -5.230141
     46          7           0        1.130007   -0.895387   -1.164116
     47          1           0        1.085599   -0.407070   -0.278485
     48          6           0        2.320998   -1.654053   -1.436762
     49          1           0        2.173177   -2.129476   -2.411462
     50          6           0        2.493477   -2.747617   -0.393297
     51          6           0        3.614735   -0.795005   -1.499982
     52          1           0        3.939661   -0.540844   -0.482327
     53          1           0        4.404412   -1.433728   -1.906362
     54          8           0        1.872754   -2.845520    0.656967
     55          6           0        3.472016    0.487617   -2.352518
     56          1           0        2.632497    0.391741   -3.050100
     57          1           0        4.372848    0.580828   -2.970018
     58          6           0        3.355426    1.819144   -1.578866
     59          1           0        4.069398    1.835400   -0.745664
     60          1           0        3.654948    2.631754   -2.247564
     61          7           0        2.032478    2.188844   -1.067437
     62          1           0        1.512765    2.850302   -1.626877
     63          7           0        0.326280    2.519293    0.501862
     64          1           0        0.246419    2.620907    1.509632
     65          1           0        0.156245    3.414404    0.052520
     66          7           0        2.069053    1.129864    1.082487
     67          1           0        2.953336    0.726527    0.781941
     68          6           0        1.571531    1.924937    0.193396
     69          8           0        3.471110   -3.593742   -0.722629
     70          1           0        3.563477   -4.255097   -0.009408
 ---------------------------------------------------------------------

 SCF Done:  E(RB3LYP) =  -1582.23950419     A.U. after    3 cycles

 Alpha  occ. eigenvalues --  -19.32114 -19.27536 -19.23651 -19.21080 -14.56614
 Alpha  occ. eigenvalues --  -14.48050 -14.47479 -14.47442 -14.47029 -14.45539
 Alpha  occ. eigenvalues --  -14.40402 -10.45028 -10.41015 -10.40610 -10.38509
 Alpha  occ. eigenvalues --  -10.38168 -10.34560 -10.33508 -10.33239 -10.32432
 Alpha  occ. eigenvalues --  -10.31730 -10.31639 -10.30194 -10.29158 -10.29035
 Alpha  occ. eigenvalues --  -10.28489 -10.28151 -10.28137 -10.27568 -10.27418
 Alpha  occ. eigenvalues --  -10.26837 -10.24948 -10.24832 -10.23416  -1.23512
 Alpha  occ. eigenvalues --   -1.16376  -1.14424  -1.13219  -1.11133  -1.09847
 Alpha  occ. eigenvalues --   -1.07948  -1.04485  -1.02500  -1.00776  -0.96108
 Alpha  occ. eigenvalues --   -0.93561  -0.92428  -0.90475  -0.89118  -0.87109
 Alpha  occ. eigenvalues --   -0.85884  -0.83065  -0.82289  -0.81140  -0.79333
 Alpha  occ. eigenvalues --   -0.78767  -0.78273  -0.73876  -0.72426  -0.71880
 Alpha  occ. eigenvalues --   -0.71832  -0.71337  -0.69979  -0.69493  -0.69255
 Alpha  occ. eigenvalues --   -0.68922  -0.68170  -0.67188  -0.66383  -0.64253
 Alpha  occ. eigenvalues --   -0.63973  -0.63387  -0.63340  -0.62980  -0.62062
 Alpha  occ. eigenvalues --   -0.60288  -0.59062  -0.58307  -0.58105  -0.57926
 Alpha  occ. eigenvalues --   -0.56934  -0.56695  -0.56690  -0.55474  -0.54611
 Alpha  occ. eigenvalues --   -0.54085  -0.53885  -0.53429  -0.53029  -0.52709
 Alpha  occ. eigenvalues --   -0.52620  -0.52297  -0.51956  -0.51715  -0.51461
 Alpha  occ. eigenvalues --   -0.50811  -0.50300  -0.49354  -0.49066  -0.48533
 Alpha  occ. eigenvalues --   -0.48018  -0.47559  -0.46988  -0.45997  -0.45460
 Alpha  occ. eigenvalues --   -0.45276  -0.44862  -0.44844  -0.44615  -0.44419
 Alpha  occ. eigenvalues --   -0.43104  -0.42822  -0.42689  -0.41165  -0.40882
 Alpha  occ. eigenvalues --   -0.39844  -0.39465  -0.38921  -0.38408  -0.38045
 Alpha  occ. eigenvalues --   -0.37776  -0.36872  -0.35242  -0.34372  -0.33873
 Alpha  occ. eigenvalues --   -0.31981  -0.30311
 Alpha virt. eigenvalues --   -0.12003  -0.11233  -0.10771  -0.07899  -0.07263
 Alpha virt. eigenvalues --   -0.07116  -0.05750  -0.05163  -0.03816  -0.03619
 Alpha virt. eigenvalues --   -0.02516  -0.02018  -0.01241  -0.00962  -0.00104

 Mulliken charges:
               1
     1  N   -0.769799
     2  H    0.413612
     3  H    0.457185
     4  H    0.408725
     5  C   -0.108417
     6  H    0.214150
     7  C    0.647103
     8  C   -0.429079
     9  H    0.232136
    10  H    0.169080
    11  O   -0.532909
    12  C    0.025792
    13  C    0.011259
    14  H    0.170029
    15  C    0.041631
    16  C    0.318746
    17  C   -0.231871
    18  H    0.140423
    19  N   -0.682076
    20  H    0.348031
    21  C   -0.148776
    22  H    0.151502
    23  C   -0.155158
    24  H    0.150381
    25  C   -0.138241
    26  H    0.135642
    27  N   -0.658221
    28  H    0.401957
    29  C   -0.052848
    30  H    0.153351
    31  C    0.634401
    32  C   -0.063716
    33  H    0.171499
    34  O   -0.508734
    35  C   -0.269159
    36  H    0.115209
    37  H    0.161704
    38  C   -0.455994
    39  H    0.128881
    40  H    0.168668
    41  H    0.144777
    42  C   -0.453197
    43  H    0.154175
    44  H    0.149295
    45  H    0.160069
    46  N   -0.625788
    47  H    0.345399
    48  C   -0.060029
    49  H    0.232383
    50  C    0.614144
    51  C   -0.296501
    52  H    0.139065
    53  H    0.190710
    54  O   -0.511078
    55  C   -0.268494
    56  H    0.183125
    57  H    0.169804
    58  C   -0.167380
    59  H    0.171675
    60  H    0.177138
    61  N   -0.582310
    62  H    0.336989
    63  N   -0.782751
    64  H    0.360769
    65  H    0.338308
    66  N   -0.668910
    67  H    0.300924
    68  C    0.581209
    69  O   -0.531740
    70  H    0.432118
 Sum of Mulliken charges =   1.00000

 Dipole moment (field-independent basis, Debye):
    X=              2.8929    Y=             -1.4509    Z=              9.0389  Tot=              9.6008
 Quadrupole moment (field-independent basis, Debye-Ang):
   XX=           -164.6060   YY=           -155.0649   ZZ=           -140.7130
   XY=             -8.1443   XZ=            -21.3614   YZ=            -32.5739

 Normal termination of Gaussian 16 at Fri Jun  3 04:42:59 2022.
