 Gaussian 16, Revision C.01,
 Gaussian 16:  ES64L-G16RevC.01  3-Jul-2019

 ----------------------------------------------------------------------
 # B3LYP/6-31G* empiricaldispersion=gd3 guess=read geom=check nosymm in
 tegral(ultrafinegrid)
 ----------------------------------------------------------------------

 ------------------------------------------------------
 Candidate Structure: Conf:474 Charge calc in gas phase
 ------------------------------------------------------
 Structure from the checkpoint file:  "conf-474.chk"
 Charge =  1 Multiplicity = 1

                          Input orientation:
 ---------------------------------------------------------------------
 Center     Atomic      Atomic             Coordinates (Angstroms)
 Number     Number       Type             X           Y           Z
 ---------------------------------------------------------------------
      1          7           0       -2.867582   -3.532799    1.458923
      2          1           0       -3.834055   -3.658443    1.766418
      3          1           0       -2.812853   -3.559515    0.403718
      4          1           0       -2.276632   -4.293675    1.835154
      5          6           0       -2.294160   -2.169740    1.786313
      6          1           0       -3.055765   -1.600901    2.327322
      7          6           0       -2.053301   -1.541059    0.382314
      8          6           0       -0.998990   -2.323660    2.625761
      9          1           0       -0.488676   -1.357594    2.661113
     10          1           0       -1.289736   -2.557351    3.656743
     11          8           0       -2.223846   -2.257796   -0.605884
     12          6           0       -0.108963   -3.401478    2.083608
     13          6           0        0.766087   -3.321694    1.021532
     14          1           0        1.031692   -2.477279    0.399333
     15          6           0       -0.144503   -4.787240    2.492419
     16          6           0        0.745714   -5.493797    1.635364
     17          6           0       -0.846330   -5.500002    3.487078
     18          1           0       -1.506887   -4.984585    4.182291
     19          7           0        1.281968   -4.568896    0.762394
     20          1           0        1.952773   -4.771830    0.035799
     21          6           0        0.241750   -7.547952    2.734421
     22          1           0        0.378753   -8.618883    2.847519
     23          6           0        0.953325   -6.871252    1.749729
     24          1           0        1.641832   -7.394760    1.092952
     25          6           0       -0.648734   -6.871814    3.594038
     26          1           0       -1.176038   -7.432460    4.359921
     27          7           0       -1.726219   -0.236150    0.380878
     28          1           0       -1.504431    0.167644    1.285392
     29          6           0       -1.150143    0.522464   -0.765427
     30          1           0       -1.316436    1.577973   -0.515652
     31          6           0        0.351503    0.184041   -0.685063
     32          6           0       -1.798971    0.251289   -2.135124
     33          1           0       -1.504176   -0.755176   -2.445450
     34          8           0        0.780602   -0.900191   -1.063928
     35          6           0       -1.299436    1.264120   -3.193153
     36          1           0       -1.849860    1.040664   -4.115001
     37          1           0       -1.614022    2.276226   -2.897099
     38          6           0       -3.330548    0.332471   -2.041212
     39          1           0       -3.652968    1.309306   -1.658658
     40          1           0       -3.770490    0.207001   -3.035631
     41          1           0       -3.747790   -0.446203   -1.399197
     42          6           0        0.201146    1.258995   -3.515040
     43          1           0        0.395105    1.869903   -4.402835
     44          1           0        0.562012    0.244609   -3.714453
     45          1           0        0.808106    1.673360   -2.703509
     46          7           0        1.117813    1.121870   -0.054256
     47          1           0        0.639147    1.912847    0.357595
     48          6           0        2.374684    0.755581    0.572320
     49          1           0        2.754559   -0.120967    0.037684
     50          6           0        2.071492    0.311058    2.005071
     51          6           0        3.428799    1.872113    0.501558
     52          1           0        3.083165    2.747964    1.069985
     53          1           0        4.325213    1.496729    1.003798
     54          8           0        0.967184    0.300327    2.492931
     55          6           0        3.761343    2.257094   -0.944293
     56          1           0        2.913435    2.779750   -1.404048
     57          1           0        3.929904    1.347733   -1.532779
     58          6           0        5.016235    3.140632   -1.059783
     59          1           0        5.191830    3.366193   -2.116634
     60          1           0        4.860800    4.103384   -0.559847
     61          7           0        6.231169    2.556926   -0.475976
     62          1           0        6.331658    2.741111    0.514429
     63          7           0        6.499696    0.967388   -2.165666
     64          1           0        6.930290    0.075355   -2.383475
     65          1           0        6.835945    1.705848   -2.775245
     66          7           0        7.050283    0.342169   -0.003275
     67          1           0        6.972046    0.639059    0.971600
     68          6           0        6.624334    1.250797   -0.804020
     69          8           0        3.171165   -0.073761    2.658051
     70          1           0        2.909252   -0.350199    3.557608
 ---------------------------------------------------------------------

 SCF Done:  E(RB3LYP) =  -1582.21045904     A.U. after    1 cycles

 Alpha  occ. eigenvalues --  -19.30958 -19.26696 -19.25923 -19.22859 -14.58197
 Alpha  occ. eigenvalues --  -14.50307 -14.48222 -14.47361 -14.41372 -14.40052
 Alpha  occ. eigenvalues --  -14.34638 -10.43504 -10.43457 -10.40039 -10.39960
 Alpha  occ. eigenvalues --  -10.35233 -10.34368 -10.34013 -10.32818 -10.32111
 Alpha  occ. eigenvalues --  -10.32033 -10.29598 -10.29232 -10.29194 -10.29022
 Alpha  occ. eigenvalues --  -10.28792 -10.28614 -10.28544 -10.27984 -10.27932
 Alpha  occ. eigenvalues --  -10.26716 -10.26573 -10.26092 -10.25026  -1.22495
 Alpha  occ. eigenvalues --   -1.18992  -1.14978  -1.13537  -1.12581  -1.08197
 Alpha  occ. eigenvalues --   -1.06494  -1.04065  -1.03600  -0.94912  -0.94204
 Alpha  occ. eigenvalues --   -0.93354  -0.91226  -0.90374  -0.89206  -0.88042
 Alpha  occ. eigenvalues --   -0.84123  -0.83493  -0.82761  -0.81871  -0.80498
 Alpha  occ. eigenvalues --   -0.79198  -0.76135  -0.73317  -0.73156  -0.72771
 Alpha  occ. eigenvalues --   -0.72139  -0.71266  -0.70338  -0.69850  -0.69194
 Alpha  occ. eigenvalues --   -0.68965  -0.66982  -0.65772  -0.65339  -0.64942
 Alpha  occ. eigenvalues --   -0.63965  -0.63108  -0.61284  -0.60790  -0.60560
 Alpha  occ. eigenvalues --   -0.60448  -0.59590  -0.58642  -0.58062  -0.57268
 Alpha  occ. eigenvalues --   -0.56865  -0.56454  -0.55566  -0.54581  -0.54112
 Alpha  occ. eigenvalues --   -0.53550  -0.53165  -0.52991  -0.52642  -0.52505
 Alpha  occ. eigenvalues --   -0.52050  -0.51964  -0.51574  -0.51223  -0.50701
 Alpha  occ. eigenvalues --   -0.50342  -0.49927  -0.49544  -0.49282  -0.49107
 Alpha  occ. eigenvalues --   -0.48691  -0.47959  -0.46893  -0.46112  -0.45320
 Alpha  occ. eigenvalues --   -0.45286  -0.43989  -0.43920  -0.43643  -0.43322
 Alpha  occ. eigenvalues --   -0.43267  -0.43024  -0.42147  -0.41970  -0.41650
 Alpha  occ. eigenvalues --   -0.41354  -0.40786  -0.39756  -0.39192  -0.38072
 Alpha  occ. eigenvalues --   -0.37283  -0.35541  -0.32880  -0.32382  -0.31600
 Alpha  occ. eigenvalues --   -0.30743  -0.28776
 Alpha virt. eigenvalues --   -0.13068  -0.11275  -0.10553  -0.09405  -0.09035
 Alpha virt. eigenvalues --   -0.07703  -0.05499  -0.04405  -0.03170  -0.02620
 Alpha virt. eigenvalues --   -0.01819  -0.01271  -0.00944  -0.00742   0.00222

 Mulliken charges:
               1
     1  N   -0.768208
     2  H    0.406564
     3  H    0.430936
     4  H    0.417207
     5  C   -0.101588
     6  H    0.206723
     7  C    0.666553
     8  C   -0.419338
     9  H    0.230361
    10  H    0.184398
    11  O   -0.520133
    12  C   -0.013986
    13  C    0.019156
    14  H    0.218197
    15  C    0.039624
    16  C    0.324609
    17  C   -0.241478
    18  H    0.126919
    19  N   -0.685860
    20  H    0.352167
    21  C   -0.149851
    22  H    0.156819
    23  C   -0.153484
    24  H    0.155094
    25  C   -0.131069
    26  H    0.150248
    27  N   -0.605938
    28  H    0.356036
    29  C   -0.056410
    30  H    0.153787
    31  C    0.635991
    32  C   -0.093168
    33  H    0.185048
    34  O   -0.513778
    35  C   -0.264809
    36  H    0.158458
    37  H    0.133056
    38  C   -0.456499
    39  H    0.142896
    40  H    0.167757
    41  H    0.146099
    42  C   -0.473159
    43  H    0.161911
    44  H    0.169323
    45  H    0.146403
    46  N   -0.569607
    47  H    0.334178
    48  C   -0.082538
    49  H    0.224662
    50  C    0.598180
    51  C   -0.283012
    52  H    0.139088
    53  H    0.174770
    54  O   -0.488419
    55  C   -0.274308
    56  H    0.146304
    57  H    0.182317
    58  C   -0.145492
    59  H    0.162320
    60  H    0.152368
    61  N   -0.578631
    62  H    0.313278
    63  N   -0.734884
    64  H    0.342195
    65  H    0.330947
    66  N   -0.628199
    67  H    0.264064
    68  C    0.539525
    69  O   -0.540391
    70  H    0.427697
 Sum of Mulliken charges =   1.00000

 Dipole moment (field-independent basis, Debye):
    X=             -4.7498    Y=             -6.4480    Z=              6.5094  Tot=             10.3203
 Quadrupole moment (field-independent basis, Debye-Ang):
   XX=           -161.3722   YY=           -124.0821   ZZ=           -168.4800
   XY=             34.9796   XZ=            -18.5375   YZ=            -24.7130

 Normal termination of Gaussian 16 at Fri Jun  3 04:42:24 2022.
