 Gaussian 16, Revision C.01,
 Gaussian 16:  ES64L-G16RevC.01  3-Jul-2019

 ----------------------------------------------------------------------
 # B3LYP/6-31G* empiricaldispersion=gd3 guess=read geom=check nosymm in
 tegral(ultrafinegrid)
 ----------------------------------------------------------------------

 ------------------------------------------------------
 Candidate Structure: Conf:245 Charge calc in gas phase
 ------------------------------------------------------
 Structure from the checkpoint file:  "conf-245.chk"
 Charge =  1 Multiplicity = 1

                          Input orientation:
 ---------------------------------------------------------------------
 Center     Atomic      Atomic             Coordinates (Angstroms)
 Number     Number       Type             X           Y           Z
 ---------------------------------------------------------------------
      1          7           0        0.497556   -2.259608    2.591600
      2          1           0        0.044304   -3.020438    2.062939
      3          1           0        1.440751   -2.133985    2.171215
      4          1           0        0.587217   -2.478483    3.590959
      5          6           0       -0.349167   -1.025118    2.381383
      6          1           0       -1.286775   -1.227272    2.906707
      7          6           0       -0.634247   -1.065944    0.863281
      8          6           0        0.344533    0.224350    2.954248
      9          1           0        1.049763    0.632267    2.223326
     10          1           0       -0.444479    0.974756    3.106721
     11          8           0       -0.786698   -2.172892    0.343620
     12          6           0        1.113714   -0.042538    4.213850
     13          6           0        2.431992    0.301201    4.402885
     14          1           0        3.086681    0.843515    3.733899
     15          6           0        0.691364   -0.749536    5.399989
     16          6           0        1.817889   -0.797828    6.270420
     17          6           0       -0.510187   -1.361009    5.813218
     18          1           0       -1.406011   -1.307833    5.198622
     19          7           0        2.855236   -0.143681    5.634284
     20          1           0        3.770312    0.015615    6.028100
     21          6           0        0.576155   -2.028537    7.891048
     22          1           0        0.508551   -2.526873    8.853157
     23          6           0        1.773228   -1.428733    7.516817
     24          1           0        2.641239   -1.449570    8.169457
     25          6           0       -0.554250   -1.995547    7.049026
     26          1           0       -1.477228   -2.461730    7.380360
     27          7           0       -0.631223    0.092772    0.184617
     28          1           0       -0.428529    0.979515    0.639739
     29          6           0       -0.563619    0.101224   -1.282921
     30          1           0       -0.404882    1.156811   -1.536554
     31          6           0        0.705998   -0.658766   -1.752401
     32          6           0       -1.839289   -0.387361   -2.018003
     33          1           0       -1.755747   -1.473125   -2.127805
     34          8           0        0.771338   -1.214887   -2.838392
     35          6           0       -1.884660    0.247608   -3.426490
     36          1           0       -2.132131    1.315912   -3.321267
     37          1           0       -0.888232    0.189585   -3.874179
     38          6           0       -3.105231   -0.064778   -1.214055
     39          1           0       -3.176485    1.008362   -0.993808
     40          1           0       -3.996906   -0.346278   -1.780653
     41          1           0       -3.136358   -0.611803   -0.267449
     42          6           0       -2.881352   -0.425844   -4.374882
     43          1           0       -2.851727    0.043914   -5.363725
     44          1           0       -3.912476   -0.359495   -4.011719
     45          1           0       -2.635502   -1.486398   -4.501822
     46          7           0        1.761655   -0.621794   -0.880608
     47          1           0        1.718703   -0.066546   -0.037222
     48          6           0        3.010190   -1.273840   -1.171483
     49          1           0        2.840301   -1.896069   -2.055611
     50          6           0        3.400661   -2.181149   -0.013194
     51          6           0        4.175631   -0.292882   -1.478606
     52          1           0        4.558584    0.131228   -0.540962
     53          1           0        4.998008   -0.888218   -1.886173
     54          8           0        2.883516   -2.192310    1.094146
     55          6           0        3.794896    0.838703   -2.461515
     56          1           0        2.921459    0.548603   -3.056336
     57          1           0        4.621037    0.959665   -3.171880
     58          6           0        3.565794    2.236224   -1.846204
     59          1           0        4.353843    2.461142   -1.116956
     60          1           0        3.669092    2.982356   -2.640300
     61          7           0        2.269522    2.494368   -1.215893
     62          1           0        1.562264    2.911230   -1.804580
     63          7           0        0.708525    2.818435    0.494116
     64          1           0        0.705823    3.023764    1.489308
     65          1           0        0.379354    3.630159   -0.021222
     66          7           0        2.709633    1.805122    1.036577
     67          1           0        3.591918    1.457625    0.667759
     68          6           0        1.993507    2.365459    0.117036
     69          8           0        4.445061   -2.953001   -0.325242
     70          1           0        4.677715   -3.491770    0.455626
 ---------------------------------------------------------------------

 SCF Done:  E(RB3LYP) =  -1582.23827238     A.U. after    1 cycles

 Alpha  occ. eigenvalues --  -19.32096 -19.27467 -19.24102 -19.21247 -14.56549
 Alpha  occ. eigenvalues --  -14.47951 -14.47792 -14.47481 -14.47111 -14.45768
 Alpha  occ. eigenvalues --  -14.40650 -10.45017 -10.41389 -10.40746 -10.38702
 Alpha  occ. eigenvalues --  -10.38305 -10.34663 -10.33575 -10.33501 -10.32033
 Alpha  occ. eigenvalues --  -10.31752 -10.31683 -10.30273 -10.29223 -10.28856
 Alpha  occ. eigenvalues --  -10.28733 -10.28608 -10.28299 -10.27649 -10.27558
 Alpha  occ. eigenvalues --  -10.26999 -10.25045 -10.24965 -10.23514  -1.23452
 Alpha  occ. eigenvalues --   -1.16752  -1.14431  -1.13392  -1.11160  -1.09949
 Alpha  occ. eigenvalues --   -1.07888  -1.04786  -1.02698  -1.00854  -0.96248
 Alpha  occ. eigenvalues --   -0.93667  -0.92405  -0.90574  -0.89262  -0.87154
 Alpha  occ. eigenvalues --   -0.85959  -0.83206  -0.82509  -0.81436  -0.79428
 Alpha  occ. eigenvalues --   -0.78724  -0.78107  -0.73958  -0.72610  -0.72078
 Alpha  occ. eigenvalues --   -0.71895  -0.71585  -0.70096  -0.69486  -0.69264
 Alpha  occ. eigenvalues --   -0.68818  -0.68333  -0.67307  -0.66537  -0.64369
 Alpha  occ. eigenvalues --   -0.64150  -0.63410  -0.63331  -0.62993  -0.62060
 Alpha  occ. eigenvalues --   -0.60340  -0.59285  -0.58472  -0.58054  -0.57959
 Alpha  occ. eigenvalues --   -0.56961  -0.56893  -0.56428  -0.55641  -0.55180
 Alpha  occ. eigenvalues --   -0.54231  -0.53845  -0.53261  -0.53147  -0.52867
 Alpha  occ. eigenvalues --   -0.52708  -0.52424  -0.52133  -0.51826  -0.51325
 Alpha  occ. eigenvalues --   -0.50818  -0.50340  -0.49805  -0.49110  -0.48656
 Alpha  occ. eigenvalues --   -0.48262  -0.47708  -0.47142  -0.46099  -0.45569
 Alpha  occ. eigenvalues --   -0.45315  -0.44979  -0.44907  -0.44709  -0.44449
 Alpha  occ. eigenvalues --   -0.43239  -0.42959  -0.42814  -0.41337  -0.40842
 Alpha  occ. eigenvalues --   -0.40002  -0.39598  -0.39036  -0.38620  -0.38254
 Alpha  occ. eigenvalues --   -0.38016  -0.37080  -0.35392  -0.34455  -0.34063
 Alpha  occ. eigenvalues --   -0.32037  -0.30393
 Alpha virt. eigenvalues --   -0.11971  -0.11579  -0.10666  -0.07997  -0.07433
 Alpha virt. eigenvalues --   -0.07007  -0.05773  -0.05385  -0.03713  -0.03282
 Alpha virt. eigenvalues --   -0.02672  -0.02398  -0.01422  -0.00886   0.00412

 Mulliken charges:
               1
     1  N   -0.767644
     2  H    0.413536
     3  H    0.451050
     4  H    0.409231
     5  C   -0.119595
     6  H    0.221710
     7  C    0.651016
     8  C   -0.417853
     9  H    0.213546
    10  H    0.174298
    11  O   -0.532544
    12  C    0.015985
    13  C    0.014605
    14  H    0.191428
    15  C    0.050245
    16  C    0.317653
    17  C   -0.246956
    18  H    0.128037
    19  N   -0.682595
    20  H    0.345745
    21  C   -0.149587
    22  H    0.154861
    23  C   -0.154899
    24  H    0.150460
    25  C   -0.131951
    26  H    0.149310
    27  N   -0.653818
    28  H    0.396588
    29  C   -0.051789
    30  H    0.151944
    31  C    0.632720
    32  C   -0.063931
    33  H    0.171394
    34  O   -0.508788
    35  C   -0.269598
    36  H    0.116025
    37  H    0.161358
    38  C   -0.456152
    39  H    0.130300
    40  H    0.169441
    41  H    0.145056
    42  C   -0.453267
    43  H    0.154644
    44  H    0.149948
    45  H    0.160036
    46  N   -0.621041
    47  H    0.346839
    48  C   -0.058349
    49  H    0.231769
    50  C    0.611933
    51  C   -0.294437
    52  H    0.137201
    53  H    0.190302
    54  O   -0.514650
    55  C   -0.269311
    56  H    0.183149
    57  H    0.169492
    58  C   -0.166343
    59  H    0.170485
    60  H    0.178063
    61  N   -0.583830
    62  H    0.337763
    63  N   -0.781622
    64  H    0.359570
    65  H    0.339994
    66  N   -0.679359
    67  H    0.298477
    68  C    0.585915
    69  O   -0.533440
    70  H    0.430230
 Sum of Mulliken charges =   1.00000

 Dipole moment (field-independent basis, Debye):
    X=              9.2515    Y=              0.6747    Z=              9.0747  Tot=             12.9767
 Quadrupole moment (field-independent basis, Debye-Ang):
   XX=           -149.2075   YY=           -164.1437   ZZ=           -140.3330
   XY=             -5.9146   XZ=             12.0469   YZ=            -32.2810

 Normal termination of Gaussian 16 at Fri Jun  3 04:42:20 2022.
