 Gaussian 16, Revision C.01,
 Gaussian 16:  ES64L-G16RevC.01  3-Jul-2019

 ----------------------------------------------------------------------
 # B3LYP/6-31G* empiricaldispersion=gd3 guess=read geom=check nosymm in
 tegral(ultrafinegrid)
 ----------------------------------------------------------------------

 ------------------------------------------------------
 Candidate Structure: Conf:472 Charge calc in gas phase
 ------------------------------------------------------
 Structure from the checkpoint file:  "conf-472.chk"
 Charge =  1 Multiplicity = 1

                          Input orientation:
 ---------------------------------------------------------------------
 Center     Atomic      Atomic             Coordinates (Angstroms)
 Number     Number       Type             X           Y           Z
 ---------------------------------------------------------------------
      1          7           0        0.327361   -4.049727   -0.652517
      2          1           0       -0.044072   -4.999363   -0.721056
      3          1           0       -0.208731   -3.355173   -1.258721
      4          1           0        1.303425   -4.049573   -0.967618
      5          6           0        0.195399   -3.420353    0.722316
      6          1           0       -0.624710   -3.938577    1.227415
      7          6           0       -0.251038   -1.966915    0.360144
      8          6           0        1.509460   -3.558691    1.513178
      9          1           0        1.827981   -4.609543    1.467258
     10          1           0        2.270236   -2.956336    1.004286
     11          8           0       -0.633770   -1.784400   -0.801709
     12          6           0        1.385255   -3.099892    2.940641
     13          6           0        0.521699   -3.577957    3.904971
     14          1           0       -0.209503   -4.373781    3.853935
     15          6           0        2.155450   -2.047206    3.562249
     16          6           0        1.696647   -1.932350    4.901284
     17          6           0        3.189094   -1.203244    3.116836
     18          1           0        3.555728   -1.278951    2.098689
     19          7           0        0.703139   -2.877416    5.074193
     20          1           0        0.206138   -3.049759    5.935588
     21          6           0        3.237872   -0.167404    5.324268
     22          1           0        3.672991    0.571634    5.989909
     23          6           0        2.224963   -0.992831    5.794554
     24          1           0        1.861147   -0.915591    6.814839
     25          6           0        3.718881   -0.274521    4.000659
     26          1           0        4.528410    0.373219    3.677238
     27          7           0       -0.229383   -1.058170    1.346726
     28          1           0        0.175540   -1.395056    2.216202
     29          6           0        0.041500    0.367782    1.089179
     30          1           0       -0.075232    0.863529    2.060132
     31          6           0        1.541194    0.425680    0.676946
     32          6           0       -0.958355    1.028355    0.102060
     33          1           0       -0.841001    0.536629   -0.866648
     34          8           0        2.075164   -0.516805    0.088095
     35          6           0       -0.673293    2.540279   -0.083335
     36          1           0       -1.632396    3.058302   -0.198497
     37          1           0       -0.229370    2.964945    0.828823
     38          6           0       -2.393346    0.791410    0.596046
     39          1           0       -2.560871    1.269834    1.569610
     40          1           0       -3.106931    1.221415   -0.114026
     41          1           0       -2.620092   -0.273833    0.695188
     42          6           0        0.200039    2.857149   -1.301128
     43          1           0        0.390913    3.935520   -1.364848
     44          1           0       -0.288128    2.543853   -2.229893
     45          1           0        1.163397    2.344543   -1.263255
     46          7           0        2.216498    1.530287    1.054714
     47          1           0        1.784744    2.233351    1.642815
     48          6           0        3.660723    1.631794    0.891755
     49          1           0        4.091669    0.642037    1.065737
     50          6           0        4.164930    2.573663    1.971749
     51          6           0        4.091229    2.088532   -0.521283
     52          1           0        5.154757    1.849426   -0.640340
     53          1           0        3.542313    1.461850   -1.229284
     54          8           0        3.458427    3.293936    2.643711
     55          6           0        3.869674    3.579367   -0.803238
     56          1           0        4.564042    4.173328   -0.192841
     57          1           0        2.858143    3.876427   -0.498616
     58          6           0        4.076504    3.967157   -2.280362
     59          1           0        4.126181    5.059266   -2.357553
     60          1           0        5.039785    3.592885   -2.644964
     61          7           0        3.035673    3.511388   -3.186952
     62          1           0        2.120966    3.908673   -3.016678
     63          7           0        1.794557    2.034062   -4.459029
     64          1           0        1.862818    1.187392   -5.013914
     65          1           0        1.493437    2.815193   -5.034699
     66          7           0        3.915795    1.349125   -3.818710
     67          1           0        4.711521    1.583636   -3.226884
     68          6           0        3.012925    2.263163   -3.797947
     69          8           0        5.506213    2.527084    2.073081
     70          1           0        5.771709    3.183551    2.745842
 ---------------------------------------------------------------------

 SCF Done:  E(RB3LYP) =  -1582.21028136     A.U. after    3 cycles

 Alpha  occ. eigenvalues --  -19.29598 -19.26369 -19.24093 -19.22175 -14.59395
 Alpha  occ. eigenvalues --  -14.48983 -14.48411 -14.46255 -14.41512 -14.39880
 Alpha  occ. eigenvalues --  -14.34272 -10.43180 -10.41947 -10.40376 -10.39187
 Alpha  occ. eigenvalues --  -10.34494 -10.34075 -10.33720 -10.33557 -10.33321
 Alpha  occ. eigenvalues --  -10.32262 -10.30260 -10.29526 -10.29077 -10.28599
 Alpha  occ. eigenvalues --  -10.28487 -10.28361 -10.28030 -10.27779 -10.27287
 Alpha  occ. eigenvalues --  -10.26913 -10.26643 -10.25888 -10.25121  -1.20572
 Alpha  occ. eigenvalues --   -1.18942  -1.14120  -1.13136  -1.11723  -1.08895
 Alpha  occ. eigenvalues --   -1.05588  -1.03589  -1.02803  -0.94992  -0.94590
 Alpha  occ. eigenvalues --   -0.93523  -0.90771  -0.89865  -0.88528  -0.88222
 Alpha  occ. eigenvalues --   -0.83880  -0.83594  -0.82759  -0.82115  -0.80446
 Alpha  occ. eigenvalues --   -0.79495  -0.75888  -0.74265  -0.73044  -0.72551
 Alpha  occ. eigenvalues --   -0.72138  -0.71805  -0.70317  -0.69668  -0.69280
 Alpha  occ. eigenvalues --   -0.66843  -0.66793  -0.65620  -0.65194  -0.64287
 Alpha  occ. eigenvalues --   -0.64144  -0.62428  -0.62235  -0.60687  -0.59571
 Alpha  occ. eigenvalues --   -0.58845  -0.58726  -0.57868  -0.57555  -0.57454
 Alpha  occ. eigenvalues --   -0.56897  -0.56712  -0.55210  -0.55074  -0.54268
 Alpha  occ. eigenvalues --   -0.53628  -0.53402  -0.52925  -0.52751  -0.52287
 Alpha  occ. eigenvalues --   -0.51765  -0.51484  -0.51345  -0.50966  -0.50764
 Alpha  occ. eigenvalues --   -0.50257  -0.49788  -0.49678  -0.48896  -0.48570
 Alpha  occ. eigenvalues --   -0.48001  -0.47827  -0.46762  -0.45776  -0.45322
 Alpha  occ. eigenvalues --   -0.44952  -0.44267  -0.43601  -0.43504  -0.43314
 Alpha  occ. eigenvalues --   -0.42678  -0.42322  -0.42077  -0.41700  -0.41348
 Alpha  occ. eigenvalues --   -0.40752  -0.39754  -0.39314  -0.37908  -0.37562
 Alpha  occ. eigenvalues --   -0.35846  -0.35400  -0.32594  -0.32137  -0.31930
 Alpha  occ. eigenvalues --   -0.31034  -0.28509
 Alpha virt. eigenvalues --   -0.13053  -0.11615  -0.09966  -0.09013  -0.07777
 Alpha virt. eigenvalues --   -0.07269  -0.05931  -0.05363  -0.02639  -0.02411
 Alpha virt. eigenvalues --   -0.01922  -0.01795  -0.00892  -0.00646  -0.00137

 Mulliken charges:
               1
     1  N   -0.757225
     2  H    0.411276
     3  H    0.437667
     4  H    0.419780
     5  C   -0.125686
     6  H    0.218273
     7  C    0.675466
     8  C   -0.371982
     9  H    0.178646
    10  H    0.212864
    11  O   -0.533618
    12  C   -0.013188
    13  C    0.015241
    14  H    0.166076
    15  C    0.058178
    16  C    0.317313
    17  C   -0.215385
    18  H    0.158076
    19  N   -0.677017
    20  H    0.350152
    21  C   -0.146535
    22  H    0.153309
    23  C   -0.155741
    24  H    0.151642
    25  C   -0.152183
    26  H    0.140977
    27  N   -0.594207
    28  H    0.376243
    29  C   -0.101769
    30  H    0.166892
    31  C    0.653928
    32  C   -0.076624
    33  H    0.187034
    34  O   -0.552820
    35  C   -0.285069
    36  H    0.160624
    37  H    0.125241
    38  C   -0.456365
    39  H    0.147094
    40  H    0.166006
    41  H    0.150759
    42  C   -0.473837
    43  H    0.139786
    44  H    0.171885
    45  H    0.171869
    46  N   -0.609593
    47  H    0.362825
    48  C   -0.040690
    49  H    0.196115
    50  C    0.590278
    51  C   -0.286933
    52  H    0.161976
    53  H    0.202519
    54  O   -0.464091
    55  C   -0.278050
    56  H    0.147650
    57  H    0.147047
    58  C   -0.158817
    59  H    0.164127
    60  H    0.163371
    61  N   -0.594994
    62  H    0.330364
    63  N   -0.755058
    64  H    0.336421
    65  H    0.322428
    66  N   -0.648530
    67  H    0.274057
    68  C    0.581340
    69  O   -0.564840
    70  H    0.428030
 Sum of Mulliken charges =   1.00000

 Dipole moment (field-independent basis, Debye):
    X=              3.5993    Y=             -9.0149    Z=              6.7762  Tot=             11.8381
 Quadrupole moment (field-independent basis, Debye-Ang):
   XX=           -177.2061   YY=           -107.6321   ZZ=           -150.8428
   XY=             19.4568   XZ=             13.8226   YZ=            -16.2449

 Normal termination of Gaussian 16 at Fri Jun  3 04:42:53 2022.
