 Gaussian 16, Revision C.01,
 Gaussian 16:  ES64L-G16RevC.01  3-Jul-2019

 ----------------------------------------------------------------------
 # B3LYP/6-31G* empiricaldispersion=gd3 guess=read geom=check nosymm in
 tegral(ultrafinegrid)
 ----------------------------------------------------------------------

 ------------------------------------------------------
 Candidate Structure: Conf:549 Charge calc in gas phase
 ------------------------------------------------------
 Structure from the checkpoint file:  "conf-549.chk"
 Charge =  1 Multiplicity = 1

                          Input orientation:
 ---------------------------------------------------------------------
 Center     Atomic      Atomic             Coordinates (Angstroms)
 Number     Number       Type             X           Y           Z
 ---------------------------------------------------------------------
      1          7           0       -8.294668   -4.610436    1.043542
      2          1           0       -8.587231   -4.662933    2.023672
      3          1           0       -7.882360   -3.648245    0.858636
      4          1           0       -9.113730   -4.776867    0.450074
      5          6           0       -7.126227   -5.511643    0.718094
      6          1           0       -7.036724   -6.288899    1.478836
      7          6           0       -5.930424   -4.543828    0.684629
      8          6           0       -7.311616   -6.157660   -0.690188
      9          1           0       -7.505227   -5.352492   -1.415520
     10          1           0       -8.186766   -6.819166   -0.653615
     11          8           0       -6.173300   -3.331883    0.605084
     12          8           0       -6.186426   -6.911112   -1.021190
     13          1           0       -5.570396   -6.304151   -1.504515
     14          7           0       -4.712887   -5.098493    0.664835
     15          1           0       -4.687218   -6.107942    0.553254
     16          6           0       -3.593724   -4.357573    0.074977
     17          1           0       -3.539422   -3.387700    0.577176
     18          6           0       -3.920514   -4.132280   -1.422893
     19          6           0       -2.281518   -5.125141    0.262634
     20          1           0       -1.427101   -4.497862   -0.008480
     21          1           0       -2.267782   -6.033361   -0.350783
     22          1           0       -2.161852   -5.403390    1.314141
     23          8           0       -4.724368   -4.854042   -2.036960
     24          7           0       -3.273802   -3.108954   -1.982287
     25          1           0       -2.583877   -2.607413   -1.435820
     26          6           0       -3.373387   -2.723702   -3.381589
     27          1           0       -3.708259   -3.595744   -3.954155
     28          6           0       -1.948155   -2.318683   -3.804830
     29          6           0       -4.393055   -1.556514   -3.563865
     30          1           0       -4.477202   -1.358855   -4.646917
     31          8           0       -0.994316   -2.549770   -3.066971
     32          6           0       -5.778595   -1.926071   -3.044549
     33          1           0       -6.140509   -2.851650   -3.502708
     34          1           0       -5.745915   -2.059780   -1.958847
     35          1           0       -6.472301   -1.110908   -3.267653
     36          8           0       -3.970515   -0.408005   -2.860337
     37          1           0       -3.283821    0.082736   -3.357827
     38          7           0       -1.793446   -1.637195   -4.971453
     39          1           0       -2.620457   -1.319219   -5.457054
     40          6           0       -0.597100   -0.797148   -5.118140
     41          1           0        0.265686   -1.437278   -4.916775
     42          6           0       -0.689813    0.310976   -4.043570
     43          6           0       -0.460480   -0.233693   -6.551484
     44          1           0       -0.358116   -1.114225   -7.200606
     45          8           0       -1.705549    1.013071   -3.959624
     46          6           0       -1.671970    0.581211   -7.032272
     47          1           0       -1.849800    1.447128   -6.389955
     48          1           0       -2.595134   -0.011601   -7.062590
     49          1           0       -1.494347    0.932688   -8.053931
     50          6           0        0.828836    0.595532   -6.658555
     51          1           0        0.765492    1.506740   -6.051986
     52          1           0        1.705801    0.026812   -6.327072
     53          1           0        0.999781    0.899813   -7.695771
     54          7           0        0.358021    0.428292   -3.203807
     55          1           0        1.148172   -0.199970   -3.287049
     56          6           0        0.451664    1.420577   -2.137629
     57          1           0       -0.034354    2.335202   -2.493756
     58          6           0        1.947889    1.630280   -1.889030
     59          6           0       -0.206223    1.008712   -0.760387
     60          1           0        0.452325    0.261654   -0.301661
     61          8           0        2.762002    0.699644   -2.019849
     62          6           0       -1.585026    0.355517   -0.958298
     63          1           0       -1.497532   -0.414829   -1.723988
     64          1           0       -2.290551    1.096552   -1.347074
     65          6           0       -0.293222    2.223997    0.179445
     66          1           0       -0.839047    3.048656   -0.298196
     67          1           0        0.684009    2.591546    0.501144
     68          1           0       -0.838594    1.957952    1.088560
     69          6           0       -2.158411   -0.309614    0.299137
     70          1           0       -3.133407   -0.751133    0.056962
     71          1           0       -1.488897   -1.096772    0.668759
     72          1           0       -2.325307    0.398973    1.116709
     73          7           0        2.303978    2.837326   -1.423127
     74          1           0        1.649481    3.610713   -1.459567
     75          6           0        3.611892    3.095268   -0.820967
     76          1           0        4.379373    2.643588   -1.456799
     77          6           0        3.614158    2.451156    0.593315
     78          6           0        3.855162    4.606649   -0.658556
     79          1           0        3.243397    4.956345    0.179860
     80          1           0        4.903883    4.774162   -0.405344
     81          8           0        3.119237    3.055372    1.546608
     82          6           0        3.459200    5.413609   -1.875577
     83          8           0        2.323487    5.474149   -2.307395
     84          8           0        4.493654    6.074339   -2.422673
     85          7           0        4.140388    1.209300    0.702352
     86          1           0        4.477723    0.752756   -0.135135
     87          6           0        4.116063    0.462747    1.971341
     88          1           0        3.177489    0.721162    2.472896
     89          6           0        5.281483    0.924323    2.880823
     90          6           0        4.181878   -1.060090    1.758614
     91          1           0        4.394562   -1.501438    2.735258
     92          1           0        5.056851   -1.296594    1.138640
     93          8           0        6.227436    0.160597    3.128888
     94          6           0        2.943438   -1.700199    1.220656
     95          6           0        1.991809   -2.489458    1.827798
     96          1           0        1.951278   -2.784663    2.868215
     97          7           0        2.562388   -1.659042   -0.108313
     98          1           0        2.924525   -1.042369   -0.829693
     99          6           0        1.416971   -2.384884   -0.231216
    100          1           0        0.901134   -2.492524   -1.172621
    101          7           0        1.041657   -2.910472    0.919382
    102          7           0        5.174048    2.176846    3.342579
    103          1           0        4.308309    2.663428    3.124568
    104          6           0        5.965965    2.691648    4.455293
    105          1           0        7.026479    2.618790    4.195944
    106          6           0        5.687414    1.818180    5.711435
    107          6           0        5.575489    4.173354    4.656881
    108          1           0        5.582997    4.642606    3.661460
    109          1           0        4.533856    4.199738    5.007438
    110          8           0        4.717926    1.047644    5.720862
    111          6           0        6.450834    5.018680    5.601605
    112          1           0        6.424663    4.597629    6.611576
    113          6           0        7.921844    5.054976    5.165546
    114          1           0        8.026622    5.464000    4.150768
    115          1           0        8.501683    5.677538    5.853064
    116          1           0        8.386179    4.061704    5.183312
    117          6           0        5.878484    6.441909    5.674086
    118          1           0        5.911499    6.935488    4.692847
    119          1           0        6.454930    7.051998    6.377276
    120          1           0        4.835665    6.436734    6.013245
    121          7           0        6.567189    1.951882    6.717823
    122          1           0        7.270584    2.716764    6.737063
    123          6           0        6.224427    1.721384    8.126821
    124          1           0        5.157126    1.939519    8.252078
    125          6           0        7.084970    2.785815    8.944158
    126          6           0        6.492091    0.329501    8.716312
    127          1           0        6.176823    0.423070    9.758915
    128          1           0        7.576932    0.162575    8.786452
    129          8           0        6.955871    2.732740   10.172912
    130          6           0        5.806105   -0.871833    8.036345
    131          1           0        5.460905   -1.592156    8.790248
    132          1           0        4.924912   -0.530327    7.485340
    133          6           0        6.718996   -1.668791    7.090253
    134          1           0        7.568700   -2.097241    7.631512
    135          1           0        6.171641   -2.513179    6.657523
    136          7           0        7.252395   -0.897617    5.958271
    137          1           0        6.564840   -0.566158    5.284110
    138          7           0        9.330620   -0.415094    6.924410
    139          1           0       10.209995    0.075131    6.837277
    140          1           0        8.975261   -0.472605    7.869026
    141          7           0        8.819783    0.348680    4.796685
    142          1           0        9.512623    1.079406    4.875912
    143          1           0        8.130320    0.433932    4.045301
    144          6           0        8.437939   -0.295236    5.914537
    145          8           0        7.818413    3.524974    8.216084
    146          1           0        4.143687    6.589920   -3.175326
 ---------------------------------------------------------------------

 SCF Done:  E(RB3LYP) =  -3503.56577990     A.U. after    1 cycles

 Alpha  occ. eigenvalues --  -19.27751 -19.27654 -19.26210 -19.23425 -19.22129
 Alpha  occ. eigenvalues --  -19.21596 -19.21469 -19.21428 -19.20781 -19.20183
 Alpha  occ. eigenvalues --  -19.19186 -19.15109 -19.07317 -19.06014 -14.61116
 Alpha  occ. eigenvalues --  -14.49803 -14.46675 -14.45489 -14.45471 -14.45305
 Alpha  occ. eigenvalues --  -14.45274 -14.44949 -14.44850 -14.44801 -14.44387
 Alpha  occ. eigenvalues --  -14.41694 -14.37200 -14.36986 -10.43952 -10.41488
 Alpha  occ. eigenvalues --  -10.40690 -10.40496 -10.40010 -10.38428 -10.38337
 Alpha  occ. eigenvalues --  -10.38261 -10.37840 -10.37313 -10.35684 -10.35060
 Alpha  occ. eigenvalues --  -10.33563 -10.33077 -10.32776 -10.31844 -10.31832
 Alpha  occ. eigenvalues --  -10.31808 -10.31195 -10.29392 -10.29125 -10.28649
 Alpha  occ. eigenvalues --  -10.28284 -10.28277 -10.27839 -10.27794 -10.27038
 Alpha  occ. eigenvalues --  -10.26766 -10.25449 -10.25363 -10.25113 -10.25050
 Alpha  occ. eigenvalues --  -10.24811 -10.24033 -10.23972 -10.23790 -10.23299
 Alpha  occ. eigenvalues --  -10.22574 -10.22419 -10.21531 -10.21234 -10.20409
 Alpha  occ. eigenvalues --  -10.20018  -1.20117  -1.18688  -1.15244  -1.14986
 Alpha  occ. eigenvalues --   -1.14068  -1.13625  -1.13445  -1.12553  -1.11778
 Alpha  occ. eigenvalues --   -1.10438  -1.09959  -1.09680  -1.09366  -1.06893
 Alpha  occ. eigenvalues --   -1.06695  -1.06421  -1.03193  -1.02194  -1.01691
 Alpha  occ. eigenvalues --   -1.01296  -1.00991  -1.00212  -0.99326  -0.98552
 Alpha  occ. eigenvalues --   -0.98252  -0.94098  -0.92518  -0.92214  -0.91309
 Alpha  occ. eigenvalues --   -0.89540  -0.88893  -0.88212  -0.87336  -0.86356
 Alpha  occ. eigenvalues --   -0.85597  -0.84863  -0.83642  -0.82192  -0.81036
 Alpha  occ. eigenvalues --   -0.80843  -0.80284  -0.79002  -0.78719  -0.77836
 Alpha  occ. eigenvalues --   -0.77196  -0.76351  -0.75970  -0.75196  -0.74813
 Alpha  occ. eigenvalues --   -0.73169  -0.72792  -0.72545  -0.72417  -0.71303
 Alpha  occ. eigenvalues --   -0.70771  -0.70409  -0.70175  -0.69960  -0.69220
 Alpha  occ. eigenvalues --   -0.68479  -0.68156  -0.67627  -0.67388  -0.67066
 Alpha  occ. eigenvalues --   -0.66894  -0.66513  -0.66442  -0.65716  -0.65310
 Alpha  occ. eigenvalues --   -0.65297  -0.64657  -0.64235  -0.64025  -0.63305
 Alpha  occ. eigenvalues --   -0.62524  -0.62134  -0.61964  -0.61207  -0.60715
 Alpha  occ. eigenvalues --   -0.60038  -0.59742  -0.59465  -0.59317  -0.59052
 Alpha  occ. eigenvalues --   -0.58433  -0.58385  -0.58241  -0.58020  -0.57776
 Alpha  occ. eigenvalues --   -0.57291  -0.57040  -0.56765  -0.56375  -0.56034
 Alpha  occ. eigenvalues --   -0.55674  -0.55613  -0.55585  -0.54886  -0.54500
 Alpha  occ. eigenvalues --   -0.53908  -0.53659  -0.53587  -0.53224  -0.53077
 Alpha  occ. eigenvalues --   -0.52930  -0.52703  -0.52634  -0.52440  -0.51814
 Alpha  occ. eigenvalues --   -0.51305  -0.50966  -0.50649  -0.50366  -0.50283
 Alpha  occ. eigenvalues --   -0.50086  -0.50003  -0.49627  -0.49440  -0.49397
 Alpha  occ. eigenvalues --   -0.48834  -0.48727  -0.48695  -0.48311  -0.48223
 Alpha  occ. eigenvalues --   -0.48158  -0.47906  -0.47559  -0.47413  -0.47203
 Alpha  occ. eigenvalues --   -0.47066  -0.46910  -0.46698  -0.46617  -0.46464
 Alpha  occ. eigenvalues --   -0.46390  -0.46309  -0.46202  -0.46126  -0.45622
 Alpha  occ. eigenvalues --   -0.45477  -0.45412  -0.45356  -0.45271  -0.45081
 Alpha  occ. eigenvalues --   -0.44923  -0.44750  -0.44410  -0.44333  -0.44229
 Alpha  occ. eigenvalues --   -0.43849  -0.43320  -0.42683  -0.42141  -0.41971
 Alpha  occ. eigenvalues --   -0.41682  -0.41493  -0.41490  -0.41430  -0.40979
 Alpha  occ. eigenvalues --   -0.40931  -0.40765  -0.40401  -0.40211  -0.39944
 Alpha  occ. eigenvalues --   -0.39593  -0.39583  -0.39161  -0.39033  -0.38813
 Alpha  occ. eigenvalues --   -0.38171  -0.37256  -0.37039  -0.37015  -0.36951
 Alpha  occ. eigenvalues --   -0.36791  -0.36349  -0.36256  -0.36148  -0.36095
 Alpha  occ. eigenvalues --   -0.35863  -0.35749  -0.35490  -0.35361  -0.35216
 Alpha  occ. eigenvalues --   -0.34339  -0.34090  -0.33813  -0.33771  -0.33394
 Alpha  occ. eigenvalues --   -0.33282  -0.32811  -0.32731  -0.32640  -0.31873
 Alpha  occ. eigenvalues --   -0.28990  -0.28205  -0.28057  -0.22342  -0.22201
 Alpha  occ. eigenvalues --   -0.20180
 Alpha virt. eigenvalues --   -0.13401  -0.11937  -0.08734  -0.08592  -0.08263
 Alpha virt. eigenvalues --   -0.07726  -0.06854  -0.06740  -0.06549  -0.06138
 Alpha virt. eigenvalues --   -0.05069  -0.03962  -0.03274  -0.02724  -0.02448

 Mulliken charges:
               1
     1  N   -0.758127
     2  H    0.422360
     3  H    0.434245
     4  H    0.416974
     5  C   -0.135262
     6  H    0.224879
     7  C    0.645406
     8  C   -0.038347
     9  H    0.171226
    10  H    0.176387
    11  O   -0.531006
    12  O   -0.627530
    13  H    0.453138
    14  N   -0.571315
    15  H    0.360501
    16  C   -0.094715
    17  H    0.212592
    18  C    0.663774
    19  C   -0.482754
    20  H    0.221337
    21  H    0.169254
    22  H    0.187142
    23  O   -0.586627
    24  N   -0.573996
    25  H    0.383825
    26  C   -0.083455
    27  H    0.199654
    28  C    0.619937
    29  C    0.121116
    30  H    0.119303
    31  O   -0.529540
    32  C   -0.460860
    33  H    0.147317
    34  H    0.165426
    35  H    0.168257
    36  O   -0.649944
    37  H    0.442824
    38  N   -0.612396
    39  H    0.346433
    40  C   -0.038159
    41  H    0.169803
    42  C    0.635305
    43  C   -0.103227
    44  H    0.153704
    45  O   -0.565315
    46  C   -0.467879
    47  H    0.187437
    48  H    0.130114
    49  H    0.162833
    50  C   -0.461456
    51  H    0.159435
    52  H    0.147882
    53  H    0.167200
    54  N   -0.600208
    55  H    0.354542
    56  C   -0.035241
    57  H    0.181100
    58  C    0.622949
    59  C   -0.092490
    60  H    0.152384
    61  O   -0.580748
    62  C   -0.262889
    63  H    0.137306
    64  H    0.159276
    65  C   -0.492227
    66  H    0.148582
    67  H    0.171685
    68  H    0.167071
    69  C   -0.493051
    70  H    0.147003
    71  H    0.159556
    72  H    0.155678
    73  N   -0.595129
    74  H    0.373672
    75  C   -0.049178
    76  H    0.182773
    77  C    0.655446
    78  C   -0.388722
    79  H    0.227733
    80  H    0.198008
    81  O   -0.542771
    82  C    0.589090
    83  O   -0.467869
    84  O   -0.548649
    85  N   -0.604744
    86  H    0.347398
    87  C   -0.067229
    88  H    0.204311
    89  C    0.667270
    90  C   -0.395043
    91  H    0.195131
    92  H    0.168777
    93  O   -0.578280
    94  C    0.324965
    95  C   -0.075986
    96  H    0.137429
    97  N   -0.619401
    98  H    0.363133
    99  C    0.176703
   100  H    0.179134
   101  N   -0.455308
   102  N   -0.613885
   103  H    0.382843
   104  C   -0.041362
   105  H    0.141337
   106  C    0.587646
   107  C   -0.292104
   108  H    0.134465
   109  H    0.152249
   110  O   -0.563531
   111  C   -0.096698
   112  H    0.187483
   113  C   -0.435884
   114  H    0.121255
   115  H    0.174810
   116  H    0.115311
   117  C   -0.447085
   118  H    0.126097
   119  H    0.162039
   120  H    0.142634
   121  N   -0.634642
   122  H    0.370117
   123  C   -0.066221
   124  H    0.153469
   125  C    0.580589
   126  C   -0.287251
   127  H    0.194096
   128  H    0.092345
   129  O   -0.567900
   130  C   -0.267444
   131  H    0.143432
   132  H    0.192048
   133  C   -0.186337
   134  H    0.165657
   135  H    0.170816
   136  N   -0.574209
   137  H    0.393075
   138  N   -0.750412
   139  H    0.365258
   140  H    0.385924
   141  N   -0.779507
   142  H    0.361063
   143  H    0.399576
   144  C    0.789809
   145  O   -0.622122
   146  H    0.423095
 Sum of Mulliken charges =   1.00000

 Dipole moment (field-independent basis, Debye):
    X=            -20.1353    Y=            -19.7594    Z=            -12.5717  Tot=             30.8855
 Quadrupole moment (field-independent basis, Debye-Ang):
   XX=           -112.9650   YY=           -339.1017   ZZ=           -494.9880
   XY=            111.7078   XZ=            -75.9170   YZ=           -104.5997

 Normal termination of Gaussian 16 at Sun Jun 12 09:22:00 2022.
