 Gaussian 16, Revision C.01,
 Gaussian 16:  ES64L-G16RevC.01  3-Jul-2019

 ----------------------------------------------------------------------
 # B3LYP/6-31G* empiricaldispersion=gd3 guess=read geom=check nosymm in
 tegral(ultrafinegrid)
 ----------------------------------------------------------------------

 ------------------------------------------------------
 Candidate Structure: Conf:771 Charge calc in gas phase
 ------------------------------------------------------
 Structure from the checkpoint file:  "conf-771.chk"
 Charge =  1 Multiplicity = 1

                          Input orientation:
 ---------------------------------------------------------------------
 Center     Atomic      Atomic             Coordinates (Angstroms)
 Number     Number       Type             X           Y           Z
 ---------------------------------------------------------------------
      1          7           0       -6.330762    1.792648   -1.839310
      2          1           0       -6.961768    1.559404   -2.672557
      3          1           0       -6.343777    1.004851   -1.183779
      4          1           0       -6.654144    2.630811   -1.351061
      5          6           0       -4.993071    1.953816   -2.521189
      6          1           0       -4.704953    3.007333   -2.479427
      7          6           0       -5.299204    1.519218   -3.977575
      8          6           0       -3.904847    1.102512   -1.844645
      9          1           0       -4.119637    0.037411   -1.995348
     10          1           0       -3.902392    1.322456   -0.763765
     11          8           0       -6.475297    1.255410   -4.261073
     12          8           0       -2.694706    1.482455   -2.453394
     13          1           0       -2.041637    0.773051   -2.269047
     14          7           0       -4.253284    1.472117   -4.811105
     15          1           0       -3.350534    1.537755   -4.334089
     16          6           0       -4.300349    0.580467   -5.970094
     17          1           0       -5.318625    0.624087   -6.369306
     18          6           0       -4.069196   -0.855397   -5.417075
     19          6           0       -3.296799    1.034342   -7.032630
     20          1           0       -3.374755    0.429054   -7.940166
     21          1           0       -2.268172    0.962441   -6.663820
     22          1           0       -3.498510    2.072394   -7.309544
     23          8           0       -4.268384   -1.092129   -4.218118
     24          7           0       -3.618914   -1.784009   -6.278820
     25          1           0       -3.679582   -1.616589   -7.276933
     26          6           0       -3.441058   -3.196662   -5.910324
     27          1           0       -4.261548   -3.474999   -5.235452
     28          6           0       -2.088508   -3.395749   -5.170153
     29          6           0       -3.477477   -4.049130   -7.204310
     30          1           0       -2.508880   -3.940226   -7.699106
     31          8           0       -1.195744   -4.099732   -5.630542
     32          6           0       -3.730590   -5.520774   -6.906618
     33          1           0       -2.941448   -5.919049   -6.263756
     34          1           0       -4.697383   -5.658265   -6.402829
     35          1           0       -3.742663   -6.089317   -7.840595
     36          8           0       -4.424019   -3.507341   -8.129215
     37          1           0       -5.314223   -3.772328   -7.844221
     38          7           0       -1.974357   -2.719487   -3.998708
     39          1           0       -2.727545   -2.098387   -3.710038
     40          6           0       -0.698765   -2.617185   -3.309898
     41          1           0       -0.297026   -3.629069   -3.183080
     42          6           0       -0.957530   -1.981153   -1.945873
     43          6           0        0.365449   -1.800469   -4.119419
     44          1           0        0.581112   -2.429370   -4.989377
     45          8           0       -1.717534   -1.011106   -1.813176
     46          6           0       -0.180615   -0.459158   -4.626808
     47          1           0       -0.422806    0.215114   -3.799953
     48          1           0       -1.082142   -0.603275   -5.230397
     49          1           0        0.567647    0.021362   -5.270319
     50          6           0        1.661967   -1.613324   -3.319439
     51          1           0        1.510582   -0.949234   -2.461512
     52          1           0        2.054595   -2.564434   -2.941703
     53          1           0        2.437997   -1.166802   -3.949425
     54          7           0       -0.286285   -2.531336   -0.910341
     55          1           0        0.389674   -3.260512   -1.106254
     56          6           0       -0.150830   -1.885068    0.397026
     57          1           0       -0.925060   -1.114689    0.442778
     58          6           0        1.253790   -1.268004    0.388542
     59          6           0       -0.322101   -2.876152    1.564559
     60          1           0        0.439802   -3.657491    1.432970
     61          8           0        2.250566   -1.995137    0.402377
     62          6           0       -1.717576   -3.525406    1.525359
     63          1           0       -1.907722   -3.895068    0.510089
     64          1           0       -2.474837   -2.750441    1.717466
     65          6           0       -0.043323   -2.156763    2.893680
     66          1           0       -0.763754   -1.344811    3.058273
     67          1           0        0.964607   -1.728459    2.916600
     68          1           0       -0.123594   -2.849108    3.735810
     69          6           0       -1.894918   -4.681034    2.516344
     70          1           0       -2.876800   -5.149980    2.392775
     71          1           0       -1.134168   -5.454646    2.357362
     72          1           0       -1.819899   -4.347721    3.556598
     73          7           0        1.314735    0.080403    0.304973
     74          1           0        0.456868    0.588763    0.122567
     75          6           0        2.566517    0.768698   -0.025201
     76          1           0        3.139007    0.101522   -0.682834
     77          6           0        3.430663    1.037896    1.231610
     78          6           0        2.283259    2.098180   -0.746090
     79          1           0        1.801789    2.789557   -0.048970
     80          1           0        3.230747    2.539483   -1.056769
     81          8           0        3.716408    2.183818    1.574979
     82          6           0        1.367429    1.876841   -1.924572
     83          8           0        0.176145    1.628876   -1.821022
     84          8           0        2.004753    1.927170   -3.104531
     85          7           0        3.842215   -0.079086    1.874937
     86          1           0        3.648146   -0.978481    1.436642
     87          6           0        4.830774   -0.021684    2.957237
     88          1           0        4.626281    0.884004    3.535162
     89          6           0        6.233087    0.060851    2.307433
     90          6           0        4.722112   -1.269972    3.843991
     91          1           0        5.066390   -2.130709    3.261996
     92          1           0        3.665648   -1.432053    4.092098
     93          8           0        6.939287   -0.940169    2.192383
     94          6           0        5.532954   -1.156892    5.098597
     95          6           0        6.884300   -1.181638    5.358334
     96          1           0        7.709865   -1.295027    4.665285
     97          7           0        4.936213   -0.951255    6.335651
     98          1           0        3.942904   -0.889833    6.509005
     99          6           0        5.917741   -0.872846    7.272146
    100          1           0        5.720340   -0.724586    8.324754
    101          7           0        7.105284   -1.007294    6.714771
    102          7           0        6.550332    1.275099    1.810762
    103          1           0        5.878131    2.027897    1.912370
    104          6           0        7.667194    1.470579    0.878436
    105          1           0        7.853917    0.489669    0.429939
    106          6           0        8.951765    1.895470    1.636879
    107          6           0        7.265783    2.494687   -0.187772
    108          1           0        6.247285    2.253015   -0.529643
    109          1           0        7.229367    3.481427    0.288935
    110          8           0        9.483724    2.987914    1.432278
    111          6           0        8.200815    2.566330   -1.409570
    112          1           0        9.214350    2.742934   -1.033096
    113          6           0        8.191483    1.266423   -2.227407
    114          1           0        7.179706    1.043398   -2.595159
    115          1           0        8.849498    1.351956   -3.099733
    116          1           0        8.533969    0.403431   -1.645810
    117          6           0        7.805482    3.758336   -2.292191
    118          1           0        6.779554    3.644012   -2.670522
    119          1           0        8.470521    3.845408   -3.159142
    120          1           0        7.855907    4.699656   -1.733137
    121          7           0        9.412265    0.975309    2.507203
    122          1           0        8.970630    0.061880    2.600666
    123          6           0       10.681048    1.114174    3.210339
    124          1           0       11.461463    1.381413    2.489787
    125          6           0       11.029325   -0.233885    3.875532
    126          6           0       10.641354    2.216816    4.295185
    127          1           0       10.242574    3.120713    3.825714
    128          1           0       11.674591    2.432623    4.588273
    129          8           0       12.207219   -0.277518    4.355316
    130          6           0        9.806790    1.858607    5.542489
    131          1           0        9.430429    2.784841    5.991996
    132          1           0        8.923552    1.289933    5.225427
    133          6           0       10.572208    1.061162    6.640994
    134          1           0       11.603497    0.885558    6.340459
    135          1           0       10.593715    1.638041    7.573826
    136          7           0        9.944381   -0.229190    6.939349
    137          1           0        8.926731   -0.233926    7.022178
    138          7           0       11.768623   -1.646137    6.540143
    139          1           0       12.054390   -2.617497    6.557131
    140          1           0       12.099070   -1.117932    5.660869
    141          7           0        9.707957   -2.495790    7.272154
    142          1           0        9.879341   -3.355457    6.765742
    143          1           0        8.717118   -2.272672    7.353760
    144          6           0       10.489366   -1.442943    6.874404
    145          8           0       10.125900   -1.094712    3.988128
    146          1           0        1.351862    1.732096   -3.803585
 ---------------------------------------------------------------------

 SCF Done:  E(RB3LYP) =  -3503.60433614     A.U. after    3 cycles

 Alpha  occ. eigenvalues --  -19.29814 -19.27313 -19.26744 -19.24443 -19.24115
 Alpha  occ. eigenvalues --  -19.23785 -19.23402 -19.22055 -19.20573 -19.20142
 Alpha  occ. eigenvalues --  -19.16754 -19.12626 -19.09677 -19.09667 -14.60531
 Alpha  occ. eigenvalues --  -14.48855 -14.47628 -14.47472 -14.46571 -14.46036
 Alpha  occ. eigenvalues --  -14.44363 -14.43729 -14.40672 -14.39637 -14.39589
 Alpha  occ. eigenvalues --  -14.38652 -14.36789 -14.35859 -10.43681 -10.42471
 Alpha  occ. eigenvalues --  -10.40629 -10.40542 -10.40189 -10.38899 -10.37803
 Alpha  occ. eigenvalues --  -10.37572 -10.37178 -10.35717 -10.35380 -10.33777
 Alpha  occ. eigenvalues --  -10.33744 -10.33214 -10.33061 -10.32972 -10.32887
 Alpha  occ. eigenvalues --  -10.30899 -10.30301 -10.29780 -10.29703 -10.29612
 Alpha  occ. eigenvalues --  -10.28708 -10.28417 -10.28375 -10.27453 -10.26987
 Alpha  occ. eigenvalues --  -10.26959 -10.26652 -10.26547 -10.26298 -10.26150
 Alpha  occ. eigenvalues --  -10.25705 -10.25207 -10.25144 -10.24779 -10.22105
 Alpha  occ. eigenvalues --  -10.21825 -10.21608 -10.20763 -10.20562 -10.20350
 Alpha  occ. eigenvalues --  -10.19228  -1.20835  -1.19835  -1.15724  -1.15277
 Alpha  occ. eigenvalues --   -1.14653  -1.14009  -1.13865  -1.12505  -1.11893
 Alpha  occ. eigenvalues --   -1.11739  -1.11392  -1.08624  -1.08029  -1.06268
 Alpha  occ. eigenvalues --   -1.04423  -1.04190  -1.03793  -1.03610  -1.03014
 Alpha  occ. eigenvalues --   -1.02765  -1.01344  -1.00272  -0.97065  -0.94485
 Alpha  occ. eigenvalues --   -0.93878  -0.93710  -0.92293  -0.92232  -0.91448
 Alpha  occ. eigenvalues --   -0.91070  -0.89590  -0.88837  -0.88631  -0.86441
 Alpha  occ. eigenvalues --   -0.86209  -0.84205  -0.83811  -0.81576  -0.81025
 Alpha  occ. eigenvalues --   -0.80668  -0.80031  -0.79789  -0.78876  -0.77940
 Alpha  occ. eigenvalues --   -0.77806  -0.77169  -0.76377  -0.74947  -0.74903
 Alpha  occ. eigenvalues --   -0.72909  -0.72532  -0.72255  -0.71754  -0.71319
 Alpha  occ. eigenvalues --   -0.71016  -0.70599  -0.70409  -0.69625  -0.69505
 Alpha  occ. eigenvalues --   -0.69047  -0.68540  -0.68413  -0.67176  -0.67053
 Alpha  occ. eigenvalues --   -0.66384  -0.66113  -0.65390  -0.64882  -0.64839
 Alpha  occ. eigenvalues --   -0.64725  -0.63850  -0.63630  -0.62607  -0.62248
 Alpha  occ. eigenvalues --   -0.61993  -0.61368  -0.60797  -0.60323  -0.60187
 Alpha  occ. eigenvalues --   -0.59987  -0.59604  -0.59205  -0.59124  -0.59043
 Alpha  occ. eigenvalues --   -0.58583  -0.58452  -0.57848  -0.57728  -0.57663
 Alpha  occ. eigenvalues --   -0.57034  -0.56893  -0.56444  -0.56158  -0.55584
 Alpha  occ. eigenvalues --   -0.55534  -0.55118  -0.54877  -0.54665  -0.54333
 Alpha  occ. eigenvalues --   -0.54206  -0.53582  -0.53537  -0.53188  -0.52893
 Alpha  occ. eigenvalues --   -0.52682  -0.52322  -0.52136  -0.51973  -0.51524
 Alpha  occ. eigenvalues --   -0.51088  -0.50982  -0.50961  -0.50751  -0.50570
 Alpha  occ. eigenvalues --   -0.50344  -0.50089  -0.50007  -0.49823  -0.49650
 Alpha  occ. eigenvalues --   -0.49596  -0.49416  -0.48966  -0.48936  -0.48716
 Alpha  occ. eigenvalues --   -0.48587  -0.48446  -0.48016  -0.47906  -0.47778
 Alpha  occ. eigenvalues --   -0.47632  -0.47214  -0.47148  -0.46911  -0.46865
 Alpha  occ. eigenvalues --   -0.46628  -0.46588  -0.46390  -0.46248  -0.46220
 Alpha  occ. eigenvalues --   -0.45946  -0.45755  -0.45475  -0.45345  -0.44806
 Alpha  occ. eigenvalues --   -0.44720  -0.44431  -0.44356  -0.43928  -0.43587
 Alpha  occ. eigenvalues --   -0.43549  -0.43228  -0.42902  -0.42661  -0.42185
 Alpha  occ. eigenvalues --   -0.42099  -0.42073  -0.41844  -0.41615  -0.41323
 Alpha  occ. eigenvalues --   -0.41240  -0.41208  -0.40994  -0.40932  -0.40615
 Alpha  occ. eigenvalues --   -0.40317  -0.39622  -0.39245  -0.39141  -0.38747
 Alpha  occ. eigenvalues --   -0.38354  -0.38313  -0.38279  -0.38137  -0.37519
 Alpha  occ. eigenvalues --   -0.37152  -0.37038  -0.36794  -0.36675  -0.36208
 Alpha  occ. eigenvalues --   -0.35810  -0.35621  -0.35217  -0.34940  -0.34911
 Alpha  occ. eigenvalues --   -0.34734  -0.34385  -0.34069  -0.33808  -0.33468
 Alpha  occ. eigenvalues --   -0.33064  -0.31200  -0.31139  -0.29996  -0.28816
 Alpha  occ. eigenvalues --   -0.28574  -0.26467  -0.25911  -0.24992  -0.24114
 Alpha  occ. eigenvalues --   -0.23776
 Alpha virt. eigenvalues --   -0.12960  -0.11529  -0.10247  -0.09783  -0.09763
 Alpha virt. eigenvalues --   -0.07836  -0.07030  -0.06585  -0.06484  -0.04210
 Alpha virt. eigenvalues --   -0.04127  -0.03372  -0.02692  -0.02314  -0.01619

 Mulliken charges:
               1
     1  N   -0.766200
     2  H    0.437117
     3  H    0.415690
     4  H    0.417736
     5  C   -0.124717
     6  H    0.235557
     7  C    0.651561
     8  C   -0.033211
     9  H    0.197805
    10  H    0.143573
    11  O   -0.536947
    12  O   -0.664061
    13  H    0.495087
    14  N   -0.566835
    15  H    0.377763
    16  C   -0.100515
    17  H    0.220672
    18  C    0.636625
    19  C   -0.475525
    20  H    0.177027
    21  H    0.174862
    22  H    0.191610
    23  O   -0.553064
    24  N   -0.609030
    25  H    0.365703
    26  C   -0.082129
    27  H    0.175006
    28  C    0.636063
    29  C    0.114885
    30  H    0.183858
    31  O   -0.517261
    32  C   -0.483860
    33  H    0.190472
    34  H    0.136616
    35  H    0.182429
    36  O   -0.630848
    37  H    0.397157
    38  N   -0.659779
    39  H    0.390476
    40  C   -0.016437
    41  H    0.173274
    42  C    0.622944
    43  C   -0.085785
    44  H    0.187335
    45  O   -0.587415
    46  C   -0.507648
    47  H    0.161250
    48  H    0.150621
    49  H    0.148592
    50  C   -0.487188
    51  H    0.147806
    52  H    0.160631
    53  H    0.169775
    54  N   -0.590242
    55  H    0.357695
    56  C   -0.058152
    57  H    0.163429
    58  C    0.640506
    59  C   -0.081360
    60  H    0.152207
    61  O   -0.553315
    62  C   -0.256394
    63  H    0.143150
    64  H    0.124553
    65  C   -0.478345
    66  H    0.140931
    67  H    0.164237
    68  H    0.169248
    69  C   -0.451321
    70  H    0.155582
    71  H    0.154629
    72  H    0.154223
    73  N   -0.611135
    74  H    0.360130
    75  C   -0.084997
    76  H    0.204089
    77  C    0.648603
    78  C   -0.368224
    79  H    0.206862
    80  H    0.217286
    81  O   -0.533325
    82  C    0.590320
    83  O   -0.490972
    84  O   -0.547534
    85  N   -0.629738
    86  H    0.382500
    87  C   -0.052283
    88  H    0.178694
    89  C    0.635354
    90  C   -0.372524
    91  H    0.203331
    92  H    0.140723
    93  O   -0.533489
    94  C    0.308318
    95  C   -0.076945
    96  H    0.233180
    97  N   -0.607415
    98  H    0.337314
    99  C    0.223435
   100  H    0.176066
   101  N   -0.501664
   102  N   -0.610244
   103  H    0.361470
   104  C   -0.071036
   105  H    0.179117
   106  C    0.630684
   107  C   -0.266780
   108  H    0.102688
   109  H    0.155933
   110  O   -0.543540
   111  C   -0.077370
   112  H    0.171305
   113  C   -0.450069
   114  H    0.118673
   115  H    0.148085
   116  H    0.151528
   117  C   -0.444127
   118  H    0.118607
   119  H    0.144473
   120  H    0.151526
   121  N   -0.630512
   122  H    0.375245
   123  C   -0.017547
   124  H    0.160973
   125  C    0.588442
   126  C   -0.272850
   127  H    0.166278
   128  H    0.152604
   129  O   -0.625941
   130  C   -0.299898
   131  H    0.133723
   132  H    0.156276
   133  C   -0.153095
   134  H    0.208907
   135  H    0.151291
   136  N   -0.601545
   137  H    0.382012
   138  N   -0.760979
   139  H    0.324395
   140  H    0.420577
   141  N   -0.772024
   142  H    0.341292
   143  H    0.367505
   144  C    0.738837
   145  O   -0.594484
   146  H    0.423254
 Sum of Mulliken charges =   1.00000

 Dipole moment (field-independent basis, Debye):
    X=            -30.1423    Y=             -0.6758    Z=             -6.4341  Tot=             30.8287
 Quadrupole moment (field-independent basis, Debye-Ang):
   XX=           -434.2592   YY=           -390.6029   ZZ=           -289.4403
   XY=            -46.7818   XZ=             56.9091   YZ=            -20.2361

 Normal termination of Gaussian 16 at Sun Jun 12 09:23:18 2022.
