 Gaussian 16, Revision C.01,
 Gaussian 16:  ES64L-G16RevC.01  3-Jul-2019

 ----------------------------------------------------------------------
 # B3LYP/6-31G* empiricaldispersion=gd3 guess=read geom=check nosymm in
 tegral(ultrafinegrid)
 ----------------------------------------------------------------------

 ------------------------------------------------------
 Candidate Structure: Conf:497 Charge calc in gas phase
 ------------------------------------------------------
 Structure from the checkpoint file:  "conf-497.chk"
 Charge =  1 Multiplicity = 1

                          Input orientation:
 ---------------------------------------------------------------------
 Center     Atomic      Atomic             Coordinates (Angstroms)
 Number     Number       Type             X           Y           Z
 ---------------------------------------------------------------------
      1          7           0       -2.462993   -2.978066    0.989878
      2          1           0       -2.406368   -3.986561    1.122884
      3          1           0       -1.059077   -2.335397   -0.874801
      4          1           0       -2.557241   -2.559923    1.914658
      5          6           0       -3.674968   -2.636586    0.242296
      6          1           0       -4.581583   -3.118839    0.643964
      7          6           0       -3.502028   -3.030820   -1.224711
      8          6           0       -3.895953   -1.118716    0.331793
      9          1           0       -4.771210   -0.827652   -0.260998
     10          1           0       -3.021829   -0.604652   -0.096138
     11          8           0       -2.388836   -3.002569   -1.778970
     12          8           0       -4.053896   -0.836154    1.715626
     13          1           0       -4.216594    0.113159    1.821727
     14          7           0       -4.617301   -3.385555   -1.887779
     15          1           0       -5.510262   -3.309054   -1.416171
     16          6           0       -4.642750   -3.637484   -3.339350
     17          1           0       -3.738664   -4.207020   -3.573727
     18          6           0       -4.595247   -2.262612   -4.039983
     19          6           0       -5.893396   -4.418851   -3.718893
     20          1           0       -5.875296   -4.653679   -4.786450
     21          1           0       -6.789806   -3.820354   -3.531344
     22          1           0       -5.946352   -5.355430   -3.156031
     23          8           0       -5.618516   -1.665213   -4.368303
     24          7           0       -3.341445   -1.761761   -4.204678
     25          1           0       -2.583396   -2.208232   -3.695762
     26          6           0       -3.154289   -0.367538   -4.563245
     27          1           0       -3.927681   -0.118665   -5.297250
     28          6           0       -1.753973   -0.220239   -5.155987
     29          6           0       -3.308874    0.581167   -3.335307
     30          1           0       -2.437609    0.427660   -2.687489
     31          8           0       -0.766529   -0.657966   -4.543102
     32          6           0       -3.384958    2.044208   -3.770397
     33          1           0       -2.487093    2.353759   -4.316567
     34          1           0       -4.256174    2.206180   -4.417054
     35          1           0       -3.492789    2.685351   -2.891556
     36          8           0       -4.424637    0.211021   -2.536988
     37          1           0       -5.184140    0.052409   -3.126219
     38          7           0       -1.668890    0.415883   -6.336636
     39          1           0       -2.515110    0.783713   -6.749733
     40          6           0       -0.409625    0.661598   -7.052986
     41          1           0        0.227116   -0.206087   -6.848809
     42          6           0        0.283175    1.908011   -6.450661
     43          6           0       -0.641984    0.764559   -8.575633
     44          1           0        0.306275    1.133318   -8.985055
     45          8           0        0.258438    3.018197   -6.970046
     46          6           0       -0.930187   -0.623428   -9.165902
     47          1           0       -1.848104   -1.049939   -8.742530
     48          1           0       -0.111773   -1.325738   -8.969597
     49          1           0       -1.065392   -0.558294  -10.250349
     50          6           0       -1.735582    1.772342   -8.970532
     51          1           0       -2.741099    1.413747   -8.705511
     52          1           0       -1.564781    2.746014   -8.507994
     53          1           0       -1.739408    1.902070  -10.057402
     54          7           0        0.919793    1.652847   -5.275027
     55          1           0        0.829185    0.739073   -4.843410
     56          6           0        1.526702    2.722499   -4.508597
     57          1           0        1.953954    3.427448   -5.226201
     58          6           0        2.612744    2.120656   -3.631594
     59          6           0        0.468819    3.482370   -3.636695
     60          1           0       -0.330434    3.708704   -4.354909
     61          8           0        2.546340    0.953317   -3.222321
     62          6           0        0.967444    4.821767   -3.059694
     63          1           0        1.712579    4.635851   -2.275378
     64          1           0        0.114760    5.282622   -2.544865
     65          6           0       -0.095864    2.587792   -2.523894
     66          1           0        0.640451    2.438260   -1.726030
     67          1           0       -0.392231    1.606793   -2.908580
     68          1           0       -0.978052    3.055372   -2.074755
     69          6           0        1.502885    5.816134   -4.098807
     70          1           0        1.665209    6.799678   -3.646914
     71          1           0        2.461126    5.507392   -4.539448
     72          1           0        0.800690    5.935551   -4.931595
     73          7           0        3.621426    2.946687   -3.270340
     74          1           0        3.562985    3.920793   -3.537643
     75          6           0        4.548748    2.583290   -2.203111
     76          1           0        5.051551    1.654617   -2.488303
     77          6           0        3.732687    2.381435   -0.908215
     78          6           0        5.564630    3.719950   -2.030913
     79          1           0        5.971873    4.012437   -3.003897
     80          1           0        5.053088    4.598055   -1.615279
     81          8           0        3.004519    3.273172   -0.480934
     82          6           0        6.752809    3.440626   -1.130344
     83          8           0        7.729995    4.141773   -1.073653
     84          8           0        6.586394    2.329493   -0.358213
     85          7           0        3.826770    1.154023   -0.323963
     86          1           0        4.647057    0.602848   -0.551075
     87          6           0        3.188149    0.881223    0.965360
     88          1           0        2.288904    1.502887    0.997415
     89          6           0        4.146328    1.308215    2.096483
     90          6           0        2.810010   -0.602018    1.058790
     91          1           0        2.520946   -0.832414    2.087704
     92          1           0        3.701136   -1.211448    0.861664
     93          8           0        4.788089    0.450368    2.733296
     94          6           0        1.679755   -0.986571    0.154565
     95          6           0        0.560837   -1.729669    0.420882
     96          1           0        0.213046   -2.194774    1.327993
     97          7           0        1.587789   -0.642188   -1.189419
     98          1           0        2.216620   -0.035239   -1.728321
     99          6           0        0.465714   -1.153618   -1.711770
    100          1           0        0.117343   -1.031790   -2.730689
    101          7           0       -0.164018   -1.819998   -0.745567
    102          7           0        4.252967    2.626934    2.253341
    103          1           0        3.631358    3.217626    1.710078
    104          6           0        5.269530    3.306988    3.056444
    105          1           0        6.119021    2.624573    3.141339
    106          6           0        4.715634    3.639629    4.460447
    107          6           0        5.680916    4.587807    2.288696
    108          1           0        5.745962    4.312665    1.227356
    109          1           0        4.855507    5.308432    2.374253
    110          8           0        3.489330    3.718839    4.632385
    111          6           0        7.002432    5.263277    2.698544
    112          1           0        6.953528    5.563813    3.749042
    113          6           0        8.211544    4.328074    2.559380
    114          1           0        8.364829    4.031568    1.511668
    115          1           0        9.116295    4.839703    2.899207
    116          1           0        8.120328    3.428590    3.179775
    117          6           0        7.201868    6.522252    1.841802
    118          1           0        7.299441    6.264767    0.778259
    119          1           0        8.112316    7.049645    2.143959
    120          1           0        6.361789    7.218592    1.951700
    121          7           0        5.654163    3.822647    5.402413
    122          1           0        6.662137    3.895554    5.132622
    123          6           0        5.540202    4.780216    6.519141
    124          1           0        4.767035    5.513418    6.266304
    125          6           0        6.962301    5.491513    6.596241
    126          6           0        5.223932    4.188492    7.898784
    127          1           0        5.150219    5.048277    8.568711
    128          1           0        6.102185    3.631260    8.258129
    129          8           0        7.054565    6.379718    7.447952
    130          6           0        3.956228    3.308727    7.965810
    131          1           0        3.300798    3.621587    8.788104
    132          1           0        3.376781    3.436407    7.044782
    133          6           0        4.272425    1.824391    8.205105
    134          1           0        4.667253    1.681751    9.215231
    135          1           0        3.383983    1.192298    8.110145
    136          7           0        5.301641    1.276479    7.302208
    137          1           0        6.258520    1.518741    7.525705
    138          7           0        3.825262    0.901267    5.538394
    139          1           0        3.775510    0.574460    4.578808
    140          1           0        3.302663    1.763210    5.683114
    141          7           0        6.060735    0.342326    5.311986
    142          1           0        5.931404    0.317037    4.300919
    143          1           0        6.989327    0.231541    5.692509
    144          6           0        5.077054    0.877310    6.051703
    145          8           0        7.822166    5.010723    5.790729
    146          1           0        7.367924    2.279085    0.227040
 ---------------------------------------------------------------------

 SCF Done:  E(RB3LYP) =  -3503.61984827     A.U. after    2 cycles

 Alpha  occ. eigenvalues --  -19.30357 -19.24721 -19.24495 -19.24392 -19.24367
 Alpha  occ. eigenvalues --  -19.23853 -19.23851 -19.23665 -19.23604 -19.21447
 Alpha  occ. eigenvalues --  -19.20298 -19.17458 -19.09014 -19.07524 -14.52065
 Alpha  occ. eigenvalues --  -14.51412 -14.48766 -14.48444 -14.48299 -14.47742
 Alpha  occ. eigenvalues --  -14.47214 -14.46827 -14.46526 -14.45750 -14.45496
 Alpha  occ. eigenvalues --  -14.44510 -14.42911 -14.39135 -10.43078 -10.42561
 Alpha  occ. eigenvalues --  -10.41188 -10.40852 -10.40811 -10.40348 -10.40254
 Alpha  occ. eigenvalues --  -10.38816 -10.38521 -10.37429 -10.36060 -10.35942
 Alpha  occ. eigenvalues --  -10.35784 -10.34533 -10.34297 -10.33977 -10.33798
 Alpha  occ. eigenvalues --  -10.33514 -10.33492 -10.33468 -10.32900 -10.32650
 Alpha  occ. eigenvalues --  -10.32617 -10.31807 -10.31093 -10.30779 -10.28708
 Alpha  occ. eigenvalues --  -10.27930 -10.27355 -10.27047 -10.26617 -10.26607
 Alpha  occ. eigenvalues --  -10.26566 -10.25851 -10.25653 -10.25275 -10.25029
 Alpha  occ. eigenvalues --  -10.24381 -10.24071 -10.23131 -10.22431 -10.21931
 Alpha  occ. eigenvalues --  -10.21315  -1.20736  -1.17134  -1.16706  -1.15959
 Alpha  occ. eigenvalues --   -1.15705  -1.15208  -1.14771  -1.13481  -1.12191
 Alpha  occ. eigenvalues --   -1.12030  -1.11827  -1.11807  -1.11129  -1.08782
 Alpha  occ. eigenvalues --   -1.05499  -1.05009  -1.04400  -1.03870  -1.03285
 Alpha  occ. eigenvalues --   -1.02816  -1.02187  -1.01881  -1.01424  -1.01335
 Alpha  occ. eigenvalues --   -0.99702  -0.99560  -0.96150  -0.93064  -0.92990
 Alpha  occ. eigenvalues --   -0.91416  -0.90077  -0.89324  -0.88413  -0.88141
 Alpha  occ. eigenvalues --   -0.86766  -0.86726  -0.85332  -0.83663  -0.83612
 Alpha  occ. eigenvalues --   -0.82355  -0.81720  -0.81341  -0.80115  -0.79197
 Alpha  occ. eigenvalues --   -0.78582  -0.77797  -0.76989  -0.76219  -0.75509
 Alpha  occ. eigenvalues --   -0.74486  -0.73597  -0.73445  -0.73188  -0.72887
 Alpha  occ. eigenvalues --   -0.72200  -0.72002  -0.71505  -0.71063  -0.70555
 Alpha  occ. eigenvalues --   -0.70265  -0.69767  -0.69645  -0.69136  -0.68983
 Alpha  occ. eigenvalues --   -0.68395  -0.68230  -0.68092  -0.66575  -0.66344
 Alpha  occ. eigenvalues --   -0.66032  -0.65079  -0.64590  -0.64287  -0.63772
 Alpha  occ. eigenvalues --   -0.63178  -0.62916  -0.62711  -0.61551  -0.60898
 Alpha  occ. eigenvalues --   -0.60803  -0.60796  -0.60727  -0.60271  -0.59969
 Alpha  occ. eigenvalues --   -0.59775  -0.59488  -0.59055  -0.58886  -0.58582
 Alpha  occ. eigenvalues --   -0.58569  -0.58156  -0.58134  -0.57846  -0.57592
 Alpha  occ. eigenvalues --   -0.57557  -0.57128  -0.57047  -0.56519  -0.56140
 Alpha  occ. eigenvalues --   -0.55947  -0.55611  -0.55340  -0.54935  -0.54369
 Alpha  occ. eigenvalues --   -0.54244  -0.53849  -0.53474  -0.53353  -0.53291
 Alpha  occ. eigenvalues --   -0.52912  -0.52607  -0.52563  -0.52167  -0.52045
 Alpha  occ. eigenvalues --   -0.51994  -0.51675  -0.51406  -0.51279  -0.51114
 Alpha  occ. eigenvalues --   -0.50860  -0.50800  -0.50561  -0.50464  -0.50164
 Alpha  occ. eigenvalues --   -0.50105  -0.50050  -0.49892  -0.49745  -0.49469
 Alpha  occ. eigenvalues --   -0.49270  -0.49091  -0.48796  -0.48599  -0.48454
 Alpha  occ. eigenvalues --   -0.48300  -0.48202  -0.48096  -0.47954  -0.47922
 Alpha  occ. eigenvalues --   -0.47843  -0.47325  -0.46955  -0.46620  -0.46539
 Alpha  occ. eigenvalues --   -0.46505  -0.46220  -0.45726  -0.45539  -0.45483
 Alpha  occ. eigenvalues --   -0.45285  -0.44659  -0.43910  -0.43816  -0.43756
 Alpha  occ. eigenvalues --   -0.43561  -0.42860  -0.42803  -0.42517  -0.42331
 Alpha  occ. eigenvalues --   -0.42091  -0.42019  -0.41728  -0.41528  -0.41504
 Alpha  occ. eigenvalues --   -0.41364  -0.41117  -0.40872  -0.40557  -0.39395
 Alpha  occ. eigenvalues --   -0.39369  -0.39331  -0.38759  -0.38618  -0.38553
 Alpha  occ. eigenvalues --   -0.38323  -0.38132  -0.38038  -0.37767  -0.37665
 Alpha  occ. eigenvalues --   -0.37613  -0.37440  -0.37217  -0.37082  -0.37045
 Alpha  occ. eigenvalues --   -0.36886  -0.36805  -0.36185  -0.36012  -0.35975
 Alpha  occ. eigenvalues --   -0.35445  -0.35367  -0.34974  -0.34061  -0.33894
 Alpha  occ. eigenvalues --   -0.32982  -0.31489  -0.30546  -0.23974  -0.23884
 Alpha  occ. eigenvalues --   -0.21581
 Alpha virt. eigenvalues --   -0.11983  -0.11769  -0.10562  -0.10225  -0.09828
 Alpha virt. eigenvalues --   -0.09041  -0.08864  -0.08422  -0.08228  -0.07794
 Alpha virt. eigenvalues --   -0.06548  -0.04994  -0.03919  -0.03197  -0.03089

 Mulliken charges:
               1
     1  N   -0.760529
     2  H    0.320124
     3  H    0.464741
     4  H    0.341302
     5  C   -0.091056
     6  H    0.155020
     7  C    0.665292
     8  C   -0.022287
     9  H    0.166379
    10  H    0.135840
    11  O   -0.581595
    12  O   -0.627071
    13  H    0.413896
    14  N   -0.586355
    15  H    0.352582
    16  C   -0.063150
    17  H    0.186885
    18  C    0.632774
    19  C   -0.472450
    20  H    0.185561
    21  H    0.183736
    22  H    0.167709
    23  O   -0.539681
    24  N   -0.600530
    25  H    0.370393
    26  C   -0.091754
    27  H    0.175921
    28  C    0.643990
    29  C    0.151136
    30  H    0.137446
    31  O   -0.571255
    32  C   -0.476489
    33  H    0.158712
    34  H    0.156556
    35  H    0.174736
    36  O   -0.643106
    37  H    0.416961
    38  N   -0.599854
    39  H    0.355106
    40  C   -0.066091
    41  H    0.179464
    42  C    0.624763
    43  C   -0.096917
    44  H    0.164592
    45  O   -0.516878
    46  C   -0.451670
    47  H    0.142150
    48  H    0.151224
    49  H    0.167175
    50  C   -0.481907
    51  H    0.125280
    52  H    0.196543
    53  H    0.170658
    54  N   -0.626628
    55  H    0.370459
    56  C   -0.071141
    57  H    0.193720
    58  C    0.665544
    59  C   -0.084480
    60  H    0.167328
    61  O   -0.587044
    62  C   -0.291135
    63  H    0.157589
    64  H    0.155071
    65  C   -0.493212
    66  H    0.153738
    67  H    0.144849
    68  H    0.158960
    69  C   -0.468716
    70  H    0.169518
    71  H    0.127108
    72  H    0.177243
    73  N   -0.615518
    74  H    0.365003
    75  C   -0.009692
    76  H    0.181054
    77  C    0.646200
    78  C   -0.425887
    79  H    0.215257
    80  H    0.225589
    81  O   -0.532670
    82  C    0.619158
    83  O   -0.423214
    84  O   -0.601611
    85  N   -0.599651
    86  H    0.353499
    87  C   -0.094200
    88  H    0.204638
    89  C    0.634294
    90  C   -0.357695
    91  H    0.188335
    92  H    0.193187
    93  O   -0.584795
    94  C    0.325084
    95  C   -0.007055
    96  H    0.196125
    97  N   -0.636351
    98  H    0.437857
    99  C    0.260023
   100  H    0.283148
   101  N   -0.579943
   102  N   -0.565132
   103  H    0.373683
   104  C   -0.069807
   105  H    0.150791
   106  C    0.592585
   107  C   -0.300538
   108  H    0.122866
   109  H    0.159272
   110  O   -0.572272
   111  C   -0.091649
   112  H    0.194720
   113  C   -0.461608
   114  H    0.120541
   115  H    0.186856
   116  H    0.123965
   117  C   -0.456893
   118  H    0.137270
   119  H    0.167772
   120  H    0.141297
   121  N   -0.620979
   122  H    0.365240
   123  C   -0.080830
   124  H    0.157691
   125  C    0.588870
   126  C   -0.275859
   127  H    0.193646
   128  H    0.114917
   129  O   -0.558367
   130  C   -0.290723
   131  H    0.158001
   132  H    0.175729
   133  C   -0.181543
   134  H    0.182812
   135  H    0.177699
   136  N   -0.566881
   137  H    0.362161
   138  N   -0.764493
   139  H    0.367762
   140  H    0.393790
   141  N   -0.777587
   142  H    0.407480
   143  H    0.364040
   144  C    0.763366
   145  O   -0.618774
   146  H    0.436152
 Sum of Mulliken charges =   1.00000

 Dipole moment (field-independent basis, Debye):
    X=             -5.6896    Y=            -13.2520    Z=            -11.0082  Tot=             18.1430
 Quadrupole moment (field-independent basis, Debye-Ang):
   XX=           -402.8927   YY=           -461.4263   ZZ=           -363.2536
   XY=            -59.0760   XZ=            -30.5004   YZ=            -85.2604

 Normal termination of Gaussian 16 at Sun Jun 12 09:22:53 2022.
