 Gaussian 16, Revision C.01,
 Gaussian 16:  ES64L-G16RevC.01  3-Jul-2019

 ----------------------------------------------------------------------
 # B3LYP/6-31G* empiricaldispersion=gd3 guess=read geom=check nosymm in
 tegral(ultrafinegrid)
 ----------------------------------------------------------------------

 ------------------------------------------------------
 Candidate Structure: Conf:433 Charge calc in gas phase
 ------------------------------------------------------
 Structure from the checkpoint file:  "conf-433.chk"
 Charge =  1 Multiplicity = 1

                          Input orientation:
 ---------------------------------------------------------------------
 Center     Atomic      Atomic             Coordinates (Angstroms)
 Number     Number       Type             X           Y           Z
 ---------------------------------------------------------------------
      1          7           0       -8.844156    1.862507   -5.119452
      2          1           0       -9.865743    1.819405   -5.167550
      3          1           0       -8.525318    1.249397   -4.342394
      4          1           0       -8.532060    2.843850   -4.999532
      5          6           0       -8.159968    1.341393   -6.355730
      6          1           0       -8.810129    1.525605   -7.213779
      7          6           0       -7.860287   -0.140120   -6.085778
      8          6           0       -6.835709    2.130481   -6.481712
      9          1           0       -6.405251    1.950445   -7.472119
     10          1           0       -6.119385    1.782596   -5.726112
     11          8           0       -7.889507   -0.529402   -4.912864
     12          8           0       -7.215257    3.491907   -6.283918
     13          1           0       -6.420836    4.024066   -6.118882
     14          7           0       -7.465105   -0.887753   -7.130023
     15          1           0       -7.315060   -0.395767   -8.005242
     16          6           0       -6.474898   -1.963429   -6.881314
     17          1           0       -6.894364   -2.621400   -6.117045
     18          6           0       -5.224698   -1.207705   -6.366454
     19          6           0       -6.187909   -2.723878   -8.171939
     20          1           0       -5.476665   -3.531419   -7.975948
     21          1           0       -5.740364   -2.055347   -8.915460
     22          1           0       -7.104491   -3.160602   -8.578959
     23          8           0       -4.860337   -0.194941   -6.965349
     24          7           0       -4.664599   -1.662103   -5.228496
     25          1           0       -4.945790   -2.538735   -4.801719
     26          6           0       -3.633645   -0.915617   -4.520354
     27          1           0       -3.165242   -0.241141   -5.240991
     28          6           0       -2.656842   -1.939553   -3.931566
     29          6           0       -4.279531   -0.076281   -3.364884
     30          1           0       -4.550195   -0.783786   -2.566926
     31          8           0       -3.092044   -2.986676   -3.457861
     32          6           0       -3.334278    0.981710   -2.819774
     33          1           0       -2.442086    0.535359   -2.375023
     34          1           0       -3.033763    1.669163   -3.620719
     35          1           0       -3.832444    1.564702   -2.041427
     36          8           0       -5.460921    0.586246   -3.824739
     37          1           0       -6.133913   -0.096028   -3.986473
     38          7           0       -1.343668   -1.599191   -3.966853
     39          1           0       -1.117671   -0.639383   -4.197672
     40          6           0       -0.343827   -2.281262   -3.147940
     41          1           0       -0.696830   -3.306666   -3.005160
     42          6           0       -0.270865   -1.533829   -1.810047
     43          6           0        1.037433   -2.289012   -3.851094
     44          1           0        1.305131   -1.237369   -4.033693
     45          8           0       -0.377363   -0.303229   -1.780062
     46          6           0        2.123276   -2.903878   -2.953806
     47          1           0        1.859987   -3.934230   -2.675793
     48          1           0        2.292316   -2.327559   -2.039212
     49          1           0        3.071456   -2.949932   -3.498813
     50          6           0        0.948457   -3.023080   -5.195416
     51          1           0        0.703179   -4.081573   -5.041951
     52          1           0        0.182622   -2.590629   -5.846699
     53          1           0        1.909169   -2.975029   -5.718401
     54          7           0       -0.072960   -2.269208   -0.697507
     55          1           0        0.096487   -3.260677   -0.789170
     56          6           0        0.129966   -1.638997    0.604116
     57          1           0       -0.806696   -1.134887    0.865441
     58          6           0        1.246417   -0.586167    0.493712
     59          6           0        0.447628   -2.696887    1.692971
     60          1           0       -0.426201   -3.366209    1.718844
     61          8           0        2.355187   -0.860694    0.029458
     62          6           0        0.580046   -2.045606    3.086752
     63          1           0        1.431442   -1.351027    3.082430
     64          1           0        0.843371   -2.842774    3.792867
     65          6           0        1.698030   -3.538171    1.383907
     66          1           0        2.597285   -2.917907    1.378348
     67          1           0        1.649574   -4.040327    0.410792
     68          1           0        1.812491   -4.317343    2.144652
     69          6           0       -0.673086   -1.326801    3.599319
     70          1           0       -0.538869   -1.015600    4.640350
     71          1           0       -0.901848   -0.422541    3.025056
     72          1           0       -1.551995   -1.981632    3.556546
     73          7           0        0.938462    0.636313    0.986847
     74          1           0       -0.031500    0.828065    1.206126
     75          6           0        1.789345    1.798794    0.707013
     76          1           0        2.358907    1.551894   -0.195744
     77          6           0        2.789255    2.045349    1.851715
     78          6           0        0.910093    3.028896    0.424889
     79          1           0        0.423786    3.377545    1.337576
     80          1           0        1.540715    3.831640    0.035849
     81          8           0        2.817680    3.099759    2.480613
     82          6           0       -0.135828    2.595103   -0.579011
     83          8           0       -1.289704    2.332484   -0.301553
     84          8           0        0.400830    2.392217   -1.799223
     85          7           0        3.610655    0.989129    2.080442
     86          1           0        3.605632    0.228282    1.405110
     87          6           0        4.657317    1.022906    3.101104
     88          1           0        4.311773    1.675231    3.905464
     89          6           0        5.949111    1.656376    2.536253
     90          6           0        4.883005   -0.395081    3.658502
     91          1           0        5.223244   -1.044158    2.841084
     92          1           0        3.912712   -0.775264    3.996691
     93          8           0        6.949786    0.985437    2.272319
     94          6           0        5.858768   -0.477964    4.793357
     95          6           0        5.714607   -0.635138    6.151030
     96          1           0        4.799917   -0.728403    6.720183
     97          7           0        7.220960   -0.428621    4.585135
     98          1           0        7.606022   -0.111139    3.695532
     99          6           0        7.834732   -0.528112    5.782356
    100          1           0        8.908553   -0.505883    5.892353
    101          7           0        6.954840   -0.666641    6.763605
    102          7           0        5.878328    3.004842    2.336532
    103          1           0        5.013182    3.409252    2.686844
    104          6           0        7.057200    3.791857    2.716928
    105          1           0        7.903269    3.452159    2.114976
    106          6           0        7.337554    3.465122    4.216127
    107          6           0        6.755519    5.279649    2.440009
    108          1           0        6.402787    5.335915    1.400235
    109          1           0        5.906489    5.577821    3.073034
    110          8           0        6.563308    2.722406    4.843324
    111          6           0        7.893320    6.305213    2.624726
    112          1           0        8.179670    6.356564    3.681775
    113          6           0        9.143987    5.945936    1.809482
    114          1           0        8.905079    5.861052    0.740280
    115          1           0        9.911173    6.717846    1.928559
    116          1           0        9.592819    4.998650    2.128925
    117          6           0        7.379126    7.697822    2.229125
    118          1           0        7.107120    7.732056    1.165064
    119          1           0        8.148220    8.457740    2.405074
    120          1           0        6.492986    7.977243    2.812018
    121          7           0        8.431907    3.998152    4.764188
    122          1           0        8.995949    4.742095    4.343175
    123          6           0        8.657033    3.980693    6.201185
    124          1           0        7.696851    4.174566    6.697378
    125          6           0        9.647547    5.153556    6.547646
    126          6           0        9.184314    2.619354    6.682079
    127          1           0       10.279226    2.603102    6.603887
    128          1           0        8.781756    1.836075    6.034176
    129          8           0       10.041302    5.163272    7.733699
    130          6           0        8.755257    2.359204    8.125031
    131          1           0        9.027241    3.247362    8.707771
    132          1           0        7.664405    2.232595    8.159216
    133          6           0        9.422683    1.120536    8.712662
    134          1           0        9.240423    0.226463    8.112305
    135          1           0       10.507461    1.255182    8.772606
    136          7           0        8.952660    0.837095   10.082733
    137          1           0        9.175520    1.553561   10.763800
    138          7           0        7.311053   -0.740416    9.532531
    139          1           0        6.740748   -1.500750    9.875350
    140          1           0        7.279093   -0.604002    8.481450
    141          7           0        7.664997   -0.112376   11.741418
    142          1           0        6.883218   -0.674847   12.040009
    143          1           0        8.348420    0.127982   12.444263
    144          6           0        7.973275   -0.004892   10.420312
    145          8           0        9.920439    5.917151    5.582587
    146          1           0       -0.196224    1.774695   -2.264557
 ---------------------------------------------------------------------

 SCF Done:  E(RB3LYP) =  -3503.53896473     A.U. after    3 cycles

 Alpha  occ. eigenvalues --  -19.30612 -19.28692 -19.24908 -19.24507 -19.22543
 Alpha  occ. eigenvalues --  -19.21161 -19.20799 -19.19952 -19.19411 -19.17272
 Alpha  occ. eigenvalues --  -19.15371 -19.11525 -19.03736 -19.02996 -14.60778
 Alpha  occ. eigenvalues --  -14.51154 -14.47313 -14.46181 -14.45447 -14.45391
 Alpha  occ. eigenvalues --  -14.45080 -14.43910 -14.43570 -14.41977 -14.41126
 Alpha  occ. eigenvalues --  -14.37467 -14.36996 -14.33934 -10.45461 -10.41795
 Alpha  occ. eigenvalues --  -10.41758 -10.40011 -10.38641 -10.38328 -10.38056
 Alpha  occ. eigenvalues --  -10.37457 -10.36287 -10.36116 -10.34257 -10.33616
 Alpha  occ. eigenvalues --  -10.32911 -10.31951 -10.31675 -10.31337 -10.30311
 Alpha  occ. eigenvalues --  -10.29685 -10.28644 -10.28149 -10.27713 -10.27467
 Alpha  occ. eigenvalues --  -10.27459 -10.27347 -10.26140 -10.26103 -10.25449
 Alpha  occ. eigenvalues --  -10.25295 -10.24963 -10.24475 -10.24431 -10.24356
 Alpha  occ. eigenvalues --  -10.24294 -10.24286 -10.24100 -10.21857 -10.20097
 Alpha  occ. eigenvalues --  -10.19987 -10.19175 -10.19066 -10.18146 -10.17865
 Alpha  occ. eigenvalues --  -10.17715  -1.21045  -1.18119  -1.16144  -1.14993
 Alpha  occ. eigenvalues --   -1.14385  -1.13361  -1.12574  -1.11718  -1.11078
 Alpha  occ. eigenvalues --   -1.10058  -1.08988  -1.07651  -1.07246  -1.06928
 Alpha  occ. eigenvalues --   -1.05545  -1.03261  -1.02928  -1.01949  -1.01361
 Alpha  occ. eigenvalues --   -1.00231  -0.99461  -0.97877  -0.97603  -0.96759
 Alpha  occ. eigenvalues --   -0.94235  -0.93599  -0.91370  -0.90806  -0.89767
 Alpha  occ. eigenvalues --   -0.89142  -0.88172  -0.88035  -0.86482  -0.85672
 Alpha  occ. eigenvalues --   -0.83785  -0.82457  -0.81710  -0.81648  -0.80859
 Alpha  occ. eigenvalues --   -0.80591  -0.79165  -0.78598  -0.77628  -0.76418
 Alpha  occ. eigenvalues --   -0.76150  -0.75361  -0.75137  -0.75055  -0.74437
 Alpha  occ. eigenvalues --   -0.74308  -0.73593  -0.71773  -0.70450  -0.70142
 Alpha  occ. eigenvalues --   -0.69974  -0.69242  -0.68765  -0.68681  -0.67991
 Alpha  occ. eigenvalues --   -0.67911  -0.67530  -0.67245  -0.66668  -0.66190
 Alpha  occ. eigenvalues --   -0.66022  -0.65345  -0.65252  -0.65137  -0.64777
 Alpha  occ. eigenvalues --   -0.64103  -0.63940  -0.63561  -0.63336  -0.63121
 Alpha  occ. eigenvalues --   -0.61789  -0.61386  -0.61173  -0.60811  -0.60061
 Alpha  occ. eigenvalues --   -0.59493  -0.59283  -0.58802  -0.58238  -0.58165
 Alpha  occ. eigenvalues --   -0.58078  -0.58036  -0.57257  -0.57017  -0.56947
 Alpha  occ. eigenvalues --   -0.56842  -0.56298  -0.56135  -0.55491  -0.55318
 Alpha  occ. eigenvalues --   -0.54886  -0.54552  -0.54485  -0.53897  -0.53214
 Alpha  occ. eigenvalues --   -0.52842  -0.52703  -0.52482  -0.52328  -0.52226
 Alpha  occ. eigenvalues --   -0.51812  -0.51753  -0.51300  -0.50828  -0.50526
 Alpha  occ. eigenvalues --   -0.50233  -0.50048  -0.49776  -0.49523  -0.49358
 Alpha  occ. eigenvalues --   -0.49212  -0.49184  -0.49001  -0.48653  -0.48554
 Alpha  occ. eigenvalues --   -0.48482  -0.48105  -0.47960  -0.47523  -0.47475
 Alpha  occ. eigenvalues --   -0.47352  -0.47330  -0.46847  -0.46592  -0.46389
 Alpha  occ. eigenvalues --   -0.46202  -0.46036  -0.45927  -0.45744  -0.45604
 Alpha  occ. eigenvalues --   -0.45436  -0.45179  -0.45045  -0.44879  -0.44646
 Alpha  occ. eigenvalues --   -0.44338  -0.43925  -0.43717  -0.43545  -0.43307
 Alpha  occ. eigenvalues --   -0.43191  -0.42990  -0.42936  -0.42501  -0.42364
 Alpha  occ. eigenvalues --   -0.42292  -0.41877  -0.41728  -0.41536  -0.41341
 Alpha  occ. eigenvalues --   -0.41276  -0.41040  -0.41019  -0.40647  -0.40459
 Alpha  occ. eigenvalues --   -0.40232  -0.39905  -0.39642  -0.39526  -0.38675
 Alpha  occ. eigenvalues --   -0.38244  -0.37784  -0.37771  -0.37272  -0.37199
 Alpha  occ. eigenvalues --   -0.36799  -0.36606  -0.36147  -0.35921  -0.35798
 Alpha  occ. eigenvalues --   -0.35641  -0.35166  -0.34485  -0.34371  -0.34301
 Alpha  occ. eigenvalues --   -0.34186  -0.33717  -0.33698  -0.33520  -0.33334
 Alpha  occ. eigenvalues --   -0.33002  -0.32686  -0.32673  -0.32585  -0.32437
 Alpha  occ. eigenvalues --   -0.32342  -0.31059  -0.30104  -0.29108  -0.27544
 Alpha  occ. eigenvalues --   -0.26479  -0.25550  -0.24583  -0.19044  -0.18452
 Alpha  occ. eigenvalues --   -0.17414
 Alpha virt. eigenvalues --   -0.15204  -0.10995  -0.09273  -0.07765  -0.07125
 Alpha virt. eigenvalues --   -0.06919  -0.05907  -0.05898  -0.05213  -0.04959
 Alpha virt. eigenvalues --   -0.04183  -0.04020  -0.02904  -0.02611  -0.02069

 Mulliken charges:
               1
     1  N   -0.736312
     2  H    0.419996
     3  H    0.426591
     4  H    0.433157
     5  C   -0.143045
     6  H    0.225743
     7  C    0.648767
     8  C   -0.074706
     9  H    0.201051
    10  H    0.230347
    11  O   -0.537348
    12  O   -0.637588
    13  H    0.441884
    14  N   -0.555873
    15  H    0.355572
    16  C   -0.068098
    17  H    0.191420
    18  C    0.615641
    19  C   -0.476323
    20  H    0.191260
    21  H    0.180901
    22  H    0.186110
    23  O   -0.546050
    24  N   -0.612697
    25  H    0.358143
    26  C   -0.064078
    27  H    0.181763
    28  C    0.622491
    29  C    0.121359
    30  H    0.147281
    31  O   -0.532359
    32  C   -0.493939
    33  H    0.199794
    34  H    0.139860
    35  H    0.183417
    36  O   -0.663055
    37  H    0.424357
    38  N   -0.585479
    39  H    0.338884
    40  C   -0.079079
    41  H    0.179167
    42  C    0.659561
    43  C   -0.087080
    44  H    0.142197
    45  O   -0.566850
    46  C   -0.494281
    47  H    0.132151
    48  H    0.202973
    49  H    0.166649
    50  C   -0.444578
    51  H    0.149761
    52  H    0.149914
    53  H    0.163090
    54  N   -0.608881
    55  H    0.346533
    56  C   -0.009855
    57  H    0.164874
    58  C    0.648584
    59  C   -0.127466
    60  H    0.139620
    61  O   -0.548091
    62  C   -0.273453
    63  H    0.159838
    64  H    0.149207
    65  C   -0.458086
    66  H    0.182402
    67  H    0.133721
    68  H    0.156446
    69  C   -0.454815
    70  H    0.163297
    71  H    0.137758
    72  H    0.149902
    73  N   -0.605615
    74  H    0.357437
    75  C   -0.085294
    76  H    0.213032
    77  C    0.645968
    78  C   -0.352113
    79  H    0.194292
    80  H    0.200598
    81  O   -0.528669
    82  C    0.573779
    83  O   -0.478491
    84  O   -0.567720
    85  N   -0.626676
    86  H    0.365410
    87  C   -0.053539
    88  H    0.207882
    89  C    0.647972
    90  C   -0.382868
    91  H    0.165686
    92  H    0.159067
    93  O   -0.565270
    94  C    0.336853
    95  C   -0.049670
    96  H    0.127800
    97  N   -0.594008
    98  H    0.389874
    99  C    0.261093
   100  H    0.171624
   101  N   -0.526915
   102  N   -0.589903
   103  H    0.354592
   104  C   -0.081252
   105  H    0.181952
   106  C    0.608276
   107  C   -0.271307
   108  H    0.138337
   109  H    0.136778
   110  O   -0.577864
   111  C   -0.103903
   112  H    0.183557
   113  C   -0.448673
   114  H    0.125146
   115  H    0.161710
   116  H    0.145334
   117  C   -0.445133
   118  H    0.125697
   119  H    0.154421
   120  H    0.137652
   121  N   -0.624118
   122  H    0.374942
   123  C   -0.049731
   124  H    0.139985
   125  C    0.570496
   126  C   -0.260313
   127  H    0.138852
   128  H    0.136228
   129  O   -0.601107
   130  C   -0.276516
   131  H    0.191811
   132  H    0.138520
   133  C   -0.176943
   134  H    0.164968
   135  H    0.184896
   136  N   -0.590783
   137  H    0.358894
   138  N   -0.800645
   139  H    0.344644
   140  H    0.450452
   141  N   -0.771709
   142  H    0.362920
   143  H    0.368542
   144  C    0.804418
   145  O   -0.607198
   146  H    0.427584
 Sum of Mulliken charges =   1.00000

 Dipole moment (field-independent basis, Debye):
    X=            -37.7055    Y=            -14.9578    Z=            -14.8371  Tot=             43.1923
 Quadrupole moment (field-independent basis, Debye-Ang):
   XX=           -238.9768   YY=           -472.1261   ZZ=            -49.0421
   XY=           -198.0058   XZ=            242.6856   YZ=           -133.2509

 Normal termination of Gaussian 16 at Sun Jun 12 09:23:36 2022.
