 Gaussian 16, Revision C.01,
 Gaussian 16:  ES64L-G16RevC.01  3-Jul-2019

 ----------------------------------------------------------------------
 # B3LYP/6-31G* empiricaldispersion=gd3 guess=read geom=check nosymm in
 tegral(ultrafinegrid)
 ----------------------------------------------------------------------

 ------------------------------------------------------
 Candidate Structure: Conf:432 Charge calc in gas phase
 ------------------------------------------------------
 Structure from the checkpoint file:  "conf-432.chk"
 Charge =  1 Multiplicity = 1

                          Input orientation:
 ---------------------------------------------------------------------
 Center     Atomic      Atomic             Coordinates (Angstroms)
 Number     Number       Type             X           Y           Z
 ---------------------------------------------------------------------
      1          7           0        3.830715   -8.305366   -2.085768
      2          1           0        4.504615   -7.808547   -2.666727
      3          1           0        4.271165   -7.965991   -0.562339
      4          1           0        3.848616   -9.298893   -2.304983
      5          6           0        2.473744   -7.785177   -2.319026
      6          1           0        2.097143   -8.081819   -3.311544
      7          6           0        2.521438   -6.249071   -2.312675
      8          6           0        1.526350   -8.393936   -1.280581
      9          1           0        0.503368   -8.009294   -1.419294
     10          1           0        1.868219   -8.114542   -0.274949
     11          8           0        3.591910   -5.643502   -2.305761
     12          8           0        1.578493   -9.797252   -1.493064
     13          1           0        1.177979  -10.245459   -0.733225
     14          7           0        1.330734   -5.598092   -2.387187
     15          1           0        0.442478   -6.082239   -2.352140
     16          6           0        1.287156   -4.168600   -2.657806
     17          1           0        2.015427   -3.677825   -2.001315
     18          6           0       -0.108994   -3.648274   -2.291480
     19          6           0        1.666730   -3.860663   -4.119136
     20          1           0        1.719766   -2.783465   -4.305987
     21          1           0        0.937641   -4.299047   -4.808016
     22          1           0        2.652520   -4.285388   -4.321088
     23          8           0       -0.990027   -4.389117   -1.830786
     24          7           0       -0.293513   -2.330908   -2.494665
     25          1           0        0.458426   -1.738682   -2.838126
     26          6           0       -1.573787   -1.651813   -2.426885
     27          1           0       -2.276219   -2.160504   -3.099528
     28          6           0       -1.307957   -0.232504   -2.962890
     29          6           0       -2.236769   -1.603612   -0.983541
     30          1           0       -2.243719   -0.565612   -0.633339
     31          8           0       -0.153791    0.128676   -3.233500
     32          6           0       -3.666119   -2.137140   -1.025418
     33          1           0       -4.292961   -1.567643   -1.723480
     34          1           0       -3.662878   -3.183202   -1.352442
     35          1           0       -4.117608   -2.075518   -0.031948
     36          8           0       -1.463064   -2.297474   -0.014289
     37          1           0       -1.434594   -3.233384   -0.302184
     38          7           0       -2.374000    0.578228   -3.085787
     39          1           0       -3.289918    0.241585   -2.819010
     40          6           0       -2.284842    1.936399   -3.655993
     41          1           0       -1.471348    1.897388   -4.389736
     42          6           0       -1.885328    2.940086   -2.535176
     43          6           0       -3.590962    2.333006   -4.367298
     44          1           0       -4.354953    2.484365   -3.593021
     45          8           0       -2.649656    3.799335   -2.113257
     46          6           0       -3.399734    3.664345   -5.112187
     47          1           0       -2.627628    3.568065   -5.886734
     48          1           0       -3.118723    4.467952   -4.429203
     49          1           0       -4.331881    3.952255   -5.608852
     50          6           0       -4.055382    1.244043   -5.347900
     51          1           0       -3.286138    1.046339   -6.104896
     52          1           0       -4.292289    0.291853   -4.859750
     53          1           0       -4.959257    1.573408   -5.869957
     54          7           0       -0.618948    2.757243   -2.078758
     55          1           0       -0.066052    1.998676   -2.468338
     56          6           0        0.005305    3.601624   -1.067344
     57          1           0       -0.028849    4.640817   -1.413175
     58          6           0        1.452574    3.136995   -0.954480
     59          6           0       -0.707036    3.543686    0.326577
     60          1           0       -1.727548    3.878505    0.113615
     61          8           0        1.751478    1.934464   -1.082534
     62          6           0       -0.090557    4.510482    1.358504
     63          1           0        0.937079    4.207088    1.597789
     64          1           0       -0.661579    4.386414    2.287424
     65          6           0       -0.770822    2.117648    0.884524
     66          1           0        0.220397    1.747189    1.168375
     67          1           0       -1.202726    1.426534    0.150949
     68          1           0       -1.403965    2.090353    1.777101
     69          6           0       -0.129757    5.993598    0.965400
     70          1           0        0.174470    6.621211    1.809344
     71          1           0        0.540672    6.240679    0.132902
     72          1           0       -1.140357    6.297136    0.668115
     73          7           0        2.370743    4.065516   -0.662934
     74          1           0        2.131081    5.052000   -0.694943
     75          6           0        3.767718    3.730854   -0.424763
     76          1           0        4.170895    3.221417   -1.309446
     77          6           0        3.889452    2.836021    0.835115
     78          6           0        4.576982    5.011748   -0.125159
     79          1           0        4.251000    5.384328    0.853051
     80          1           0        5.638180    4.763094   -0.061275
     81          8           0        3.435755    3.221002    1.906568
     82          6           0        4.351786    6.126012   -1.126931
     83          8           0        3.257757    6.591701   -1.390334
     84          8           0        5.492283    6.565236   -1.678880
     85          7           0        4.568124    1.672309    0.681094
     86          1           0        4.890151    1.377810   -0.230975
     87          6           0        4.889420    0.808333    1.807080
     88          1           0        5.483478    1.376919    2.530733
     89          6           0        5.665321   -0.395914    1.278620
     90          6           0        3.620496    0.263732    2.570990
     91          1           0        3.295485   -0.676700    2.112218
     92          1           0        2.823255    0.992890    2.424109
     93          8           0        5.547722   -0.785144    0.104444
     94          6           0        3.850103    0.113331    4.037822
     95          6           0        3.687755    1.026338    5.056389
     96          1           0        3.309077    2.036597    4.968877
     97          7           0        4.381584   -1.013079    4.653713
     98          1           0        4.605486   -1.910390    4.219726
     99          6           0        4.484863   -0.723658    5.986131
    100          1           0        4.856524   -1.445245    6.701761
    101          7           0        4.080644    0.498694    6.263763
    102          7           0        6.403807   -1.068885    2.181892
    103          1           0        6.385570   -0.761374    3.148295
    104          6           0        6.878537   -2.430585    1.914843
    105          1           0        7.160594   -2.466119    0.861527
    106          6           0        5.724636   -3.405504    2.205777
    107          6           0        8.077263   -2.759765    2.815691
    108          1           0        8.875279   -2.041064    2.589116
    109          1           0        7.771722   -2.595517    3.857591
    110          8           0        5.206489   -3.436771    3.328645
    111          6           0        8.616863   -4.197188    2.676413
    112          1           0        7.813572   -4.889843    2.969115
    113          6           0        9.043915   -4.534490    1.239440
    114          1           0        9.762041   -3.795864    0.860821
    115          1           0        9.527959   -5.516082    1.205172
    116          1           0        8.197842   -4.580325    0.545300
    117          6           0        9.783932   -4.397085    3.654107
    118          1           0       10.624626   -3.740351    3.396919
    119          1           0       10.146351   -5.429979    3.621911
    120          1           0        9.486752   -4.175747    4.685692
    121          7           0        5.313727   -4.190611    1.185010
    122          1           0        5.893806   -4.250236    0.349836
    123          6           0        4.491309   -5.387917    1.382128
    124          1           0        4.641714   -5.749147    2.405557
    125          6           0        4.997280   -6.430788    0.370616
    126          6           0        2.988187   -5.145080    1.132888
    127          1           0        2.477750   -6.100121    1.274413
    128          1           0        2.875521   -4.902044    0.069707
    129          8           0        4.250430   -7.520947    0.376530
    130          6           0        2.339743   -4.054191    2.014917
    131          1           0        1.650174   -4.508919    2.733497
    132          1           0        3.089701   -3.529428    2.610864
    133          6           0        1.547603   -3.042660    1.193186
    134          1           0        0.767672   -3.550203    0.613085
    135          1           0        1.057009   -2.313864    1.847693
    136          7           0        2.441284   -2.322694    0.275045
    137          1           0        3.386748   -2.670988    0.153462
    138          7           0        0.901840   -0.652418   -0.196819
    139          1           0        0.735281    0.250603   -0.634007
    140          1           0        0.105470   -1.240111    0.059507
    141          7           0        3.025307   -0.572685   -1.134227
    142          1           0        2.781879    0.376673   -1.411484
    143          1           0        4.008932   -0.714364   -0.890673
    144          6           0        2.118059   -1.177980   -0.346260
    145          8           0        5.934989   -6.209375   -0.375092
    146          1           0        5.264479    7.303951   -2.277211
 ---------------------------------------------------------------------

 SCF Done:  E(RB3LYP) =  -3503.67820204     A.U. after    1 cycles

 Alpha  occ. eigenvalues --  -19.29276 -19.25867 -19.24007 -19.23836 -19.23791
 Alpha  occ. eigenvalues --  -19.23777 -19.23571 -19.23406 -19.23383 -19.22246
 Alpha  occ. eigenvalues --  -19.21361 -19.21176 -19.20919 -19.19560 -14.48338
 Alpha  occ. eigenvalues --  -14.47769 -14.47247 -14.46968 -14.46559 -14.46459
 Alpha  occ. eigenvalues --  -14.46117 -14.46046 -14.45700 -14.45557 -14.44268
 Alpha  occ. eigenvalues --  -14.43697 -14.42803 -14.36512 -10.43317 -10.42138
 Alpha  occ. eigenvalues --  -10.40700 -10.40454 -10.40210 -10.39634 -10.39040
 Alpha  occ. eigenvalues --  -10.38975 -10.38764 -10.38488 -10.36770 -10.35433
 Alpha  occ. eigenvalues --  -10.34884 -10.34853 -10.33828 -10.33781 -10.33088
 Alpha  occ. eigenvalues --  -10.33028 -10.32845 -10.32329 -10.32324 -10.32314
 Alpha  occ. eigenvalues --  -10.32098 -10.30483 -10.29326 -10.28745 -10.28065
 Alpha  occ. eigenvalues --  -10.27986 -10.27981 -10.27779 -10.27575 -10.27488
 Alpha  occ. eigenvalues --  -10.27284 -10.26825 -10.26608 -10.25459 -10.25241
 Alpha  occ. eigenvalues --  -10.25230 -10.24789 -10.24173 -10.24066 -10.24000
 Alpha  occ. eigenvalues --  -10.23857  -1.20290  -1.16284  -1.16069  -1.15539
 Alpha  occ. eigenvalues --   -1.15107  -1.15001  -1.13872  -1.13332  -1.13297
 Alpha  occ. eigenvalues --   -1.12916  -1.12306  -1.11419  -1.11290  -1.10948
 Alpha  occ. eigenvalues --   -1.07903  -1.06649  -1.03996  -1.03639  -1.03525
 Alpha  occ. eigenvalues --   -1.03445  -1.02658  -1.02355  -1.02107  -1.01928
 Alpha  occ. eigenvalues --   -1.00494  -0.99620  -0.98956  -0.92434  -0.90667
 Alpha  occ. eigenvalues --   -0.90307  -0.89940  -0.89187  -0.88422  -0.88027
 Alpha  occ. eigenvalues --   -0.87532  -0.86608  -0.85091  -0.83187  -0.83026
 Alpha  occ. eigenvalues --   -0.82530  -0.81585  -0.80979  -0.79601  -0.79017
 Alpha  occ. eigenvalues --   -0.77547  -0.77065  -0.75968  -0.75550  -0.75191
 Alpha  occ. eigenvalues --   -0.74755  -0.74421  -0.73461  -0.73158  -0.71846
 Alpha  occ. eigenvalues --   -0.71459  -0.70840  -0.70599  -0.70122  -0.70037
 Alpha  occ. eigenvalues --   -0.69818  -0.69184  -0.68970  -0.68372  -0.68215
 Alpha  occ. eigenvalues --   -0.67969  -0.67470  -0.67311  -0.66593  -0.66452
 Alpha  occ. eigenvalues --   -0.65215  -0.65011  -0.64419  -0.64018  -0.63912
 Alpha  occ. eigenvalues --   -0.63470  -0.62744  -0.62005  -0.61598  -0.61449
 Alpha  occ. eigenvalues --   -0.61194  -0.61123  -0.60934  -0.60426  -0.59574
 Alpha  occ. eigenvalues --   -0.59268  -0.59104  -0.58924  -0.58599  -0.58326
 Alpha  occ. eigenvalues --   -0.58112  -0.57784  -0.57606  -0.57430  -0.57194
 Alpha  occ. eigenvalues --   -0.56905  -0.56817  -0.56532  -0.56008  -0.55662
 Alpha  occ. eigenvalues --   -0.55582  -0.55284  -0.54958  -0.54647  -0.54532
 Alpha  occ. eigenvalues --   -0.54066  -0.53981  -0.53733  -0.53560  -0.53224
 Alpha  occ. eigenvalues --   -0.52898  -0.52735  -0.52425  -0.52332  -0.52173
 Alpha  occ. eigenvalues --   -0.51760  -0.51478  -0.51367  -0.51191  -0.50878
 Alpha  occ. eigenvalues --   -0.50831  -0.50796  -0.50588  -0.50489  -0.50366
 Alpha  occ. eigenvalues --   -0.50175  -0.50048  -0.49875  -0.49681  -0.49203
 Alpha  occ. eigenvalues --   -0.49069  -0.48882  -0.48612  -0.48379  -0.48287
 Alpha  occ. eigenvalues --   -0.48048  -0.47919  -0.47499  -0.47440  -0.47387
 Alpha  occ. eigenvalues --   -0.47251  -0.47122  -0.47035  -0.46834  -0.46678
 Alpha  occ. eigenvalues --   -0.46580  -0.46504  -0.46181  -0.45814  -0.45688
 Alpha  occ. eigenvalues --   -0.45496  -0.45398  -0.45191  -0.45158  -0.45033
 Alpha  occ. eigenvalues --   -0.44939  -0.44652  -0.44440  -0.44101  -0.43861
 Alpha  occ. eigenvalues --   -0.43657  -0.43087  -0.42972  -0.42206  -0.42040
 Alpha  occ. eigenvalues --   -0.41404  -0.41285  -0.40917  -0.40609  -0.40550
 Alpha  occ. eigenvalues --   -0.40324  -0.40019  -0.39855  -0.39803  -0.39612
 Alpha  occ. eigenvalues --   -0.39081  -0.38373  -0.38159  -0.37844  -0.37823
 Alpha  occ. eigenvalues --   -0.37600  -0.37455  -0.37337  -0.37178  -0.36918
 Alpha  occ. eigenvalues --   -0.36686  -0.36550  -0.36304  -0.36112  -0.35801
 Alpha  occ. eigenvalues --   -0.35520  -0.35239  -0.34929  -0.34646  -0.34508
 Alpha  occ. eigenvalues --   -0.34124  -0.33481  -0.33009  -0.32412  -0.31820
 Alpha  occ. eigenvalues --   -0.28245
 Alpha virt. eigenvalues --   -0.10214  -0.10096  -0.09594  -0.09054  -0.09014
 Alpha virt. eigenvalues --   -0.08570  -0.08239  -0.07499  -0.06991  -0.06098
 Alpha virt. eigenvalues --   -0.06034  -0.03966  -0.03552  -0.03302  -0.02278

 Mulliken charges:
               1
     1  N   -0.780242
     2  H    0.358502
     3  H    0.469616
     4  H    0.355337
     5  C   -0.082307
     6  H    0.181676
     7  C    0.644878
     8  C   -0.039415
     9  H    0.129576
    10  H    0.165111
    11  O   -0.542146
    12  O   -0.620822
    13  H    0.413006
    14  N   -0.626807
    15  H    0.354622
    16  C   -0.046056
    17  H    0.191295
    18  C    0.613470
    19  C   -0.459408
    20  H    0.160763
    21  H    0.165000
    22  H    0.198613
    23  O   -0.571693
    24  N   -0.631102
    25  H    0.378886
    26  C   -0.041804
    27  H    0.195475
    28  C    0.604557
    29  C    0.102402
    30  H    0.170701
    31  O   -0.558379
    32  C   -0.482461
    33  H    0.145089
    34  H    0.183371
    35  H    0.187689
    36  O   -0.650431
    37  H    0.435906
    38  N   -0.613210
    39  H    0.351391
    40  C   -0.053272
    41  H    0.182952
    42  C    0.631419
    43  C   -0.104534
    44  H    0.155888
    45  O   -0.514111
    46  C   -0.463985
    47  H    0.141357
    48  H    0.186185
    49  H    0.160989
    50  C   -0.449641
    51  H    0.151964
    52  H    0.123277
    53  H    0.170483
    54  N   -0.671904
    55  H    0.386602
    56  C   -0.013567
    57  H    0.181206
    58  C    0.628938
    59  C   -0.095101
    60  H    0.185210
    61  O   -0.596160
    62  C   -0.286596
    63  H    0.164825
    64  H    0.150934
    65  C   -0.485149
    66  H    0.158369
    67  H    0.132484
    68  H    0.165008
    69  C   -0.470012
    70  H    0.163485
    71  H    0.138973
    72  H    0.164723
    73  N   -0.613685
    74  H    0.400001
    75  C   -0.039672
    76  H    0.163345
    77  C    0.648062
    78  C   -0.399244
    79  H    0.230906
    80  H    0.198127
    81  O   -0.517969
    82  C    0.595770
    83  O   -0.467431
    84  O   -0.544261
    85  N   -0.636174
    86  H    0.340712
    87  C    0.003415
    88  H    0.194984
    89  C    0.603150
    90  C   -0.397393
    91  H    0.154542
    92  H    0.218080
    93  O   -0.572611
    94  C    0.275215
    95  C   -0.065419
    96  H    0.152362
    97  N   -0.653513
    98  H    0.391024
    99  C    0.191585
   100  H    0.164217
   101  N   -0.414051
   102  N   -0.600207
   103  H    0.363011
   104  C   -0.060071
   105  H    0.187077
   106  C    0.627690
   107  C   -0.278299
   108  H    0.159512
   109  H    0.153999
   110  O   -0.551083
   111  C   -0.092232
   112  H    0.140112
   113  C   -0.459057
   114  H    0.147237
   115  H    0.164886
   116  H    0.145874
   117  C   -0.446024
   118  H    0.149926
   119  H    0.158268
   120  H    0.150812
   121  N   -0.609822
   122  H    0.376528
   123  C   -0.059895
   124  H    0.201345
   125  C    0.617575
   126  C   -0.318478
   127  H    0.184158
   128  H    0.164563
   129  O   -0.618221
   130  C   -0.319351
   131  H    0.171982
   132  H    0.195791
   133  C   -0.154267
   134  H    0.167725
   135  H    0.185688
   136  N   -0.617791
   137  H    0.368021
   138  N   -0.824862
   139  H    0.403286
   140  H    0.429058
   141  N   -0.804446
   142  H    0.390504
   143  H    0.395644
   144  C    0.736879
   145  O   -0.487211
   146  H    0.428200
 Sum of Mulliken charges =   1.00000

 Dipole moment (field-independent basis, Debye):
    X=              9.6089    Y=             -8.7194    Z=             -8.6200  Tot=             15.5776
 Quadrupole moment (field-independent basis, Debye-Ang):
   XX=           -321.8735   YY=           -294.3234   ZZ=           -411.8358
   XY=              4.1768   XZ=             11.3673   YZ=            -12.0978

 Normal termination of Gaussian 16 at Sun Jun 12 09:22:40 2022.
