 Gaussian 16, Revision C.01,
 Gaussian 16:  ES64L-G16RevC.01  3-Jul-2019

 ----------------------------------------------------------------------
 # B3LYP/6-31G* empiricaldispersion=gd3 guess=read geom=check nosymm in
 tegral(ultrafinegrid)
 ----------------------------------------------------------------------

 ------------------------------------------------------
 Candidate Structure: Conf:883 Charge calc in gas phase
 ------------------------------------------------------
 Structure from the checkpoint file:  "conf-883.chk"
 Charge =  1 Multiplicity = 1

                          Input orientation:
 ---------------------------------------------------------------------
 Center     Atomic      Atomic             Coordinates (Angstroms)
 Number     Number       Type             X           Y           Z
 ---------------------------------------------------------------------
      1          7           0      -11.266100    1.069781   -6.005847
      2          1           0      -12.158186    0.571004   -6.064284
      3          1           0      -10.801555    0.805646   -5.107439
      4          1           0      -11.423371    2.089061   -6.089958
      5          6           0      -10.278252    0.666884   -7.068356
      6          1           0      -10.830702    0.369616   -7.963167
      7          6           0       -9.445011   -0.459267   -6.435376
      8          6           0       -9.394934    1.920095   -7.323774
      9          1           0       -8.783766    1.767293   -8.216724
     10          1           0       -8.708506    2.053105   -6.484360
     11          8           0       -9.416447   -0.522038   -5.205834
     12          8           0      -10.232683    3.066958   -7.389260
     13          1           0      -10.463613    3.263879   -8.310547
     14          7           0       -8.761699   -1.262586   -7.272785
     15          1           0       -8.736557   -0.980407   -8.246792
     16          6           0       -7.518664   -1.868201   -6.783618
     17          1           0       -7.760961   -2.425643   -5.874996
     18          6           0       -6.552643   -0.704821   -6.425875
     19          6           0       -6.923961   -2.799567   -7.842621
     20          1           0       -6.004362   -3.259733   -7.471040
     21          1           0       -6.670448   -2.243658   -8.753242
     22          1           0       -7.629010   -3.596270   -8.096795
     23          8           0       -6.776137    0.441422   -6.821066
     24          7           0       -5.505544   -1.060649   -5.663652
     25          1           0       -5.262546   -2.042582   -5.524548
     26          6           0       -4.383540   -0.179217   -5.370543
     27          1           0       -4.287662    0.561618   -6.171695
     28          6           0       -3.147729   -1.099755   -5.292472
     29          6           0       -4.558705    0.551945   -4.007685
     30          1           0       -3.679054    1.185528   -3.852911
     31          8           0       -3.287856   -2.322365   -5.249387
     32          6           0       -5.821410    1.409243   -3.948021
     33          1           0       -5.839105    2.147623   -4.755652
     34          1           0       -6.718790    0.786197   -4.043213
     35          1           0       -5.857790    1.925366   -2.984233
     36          8           0       -4.508295   -0.383684   -2.937413
     37          1           0       -5.272383   -0.977330   -3.024029
     38          7           0       -1.964833   -0.453729   -5.240910
     39          1           0       -1.980246    0.556567   -5.126001
     40          6           0       -0.782760   -1.037224   -4.603189
     41          1           0       -1.035814   -2.065652   -4.327657
     42          6           0       -0.564733   -0.168947   -3.346697
     43          6           0        0.444784   -1.046036   -5.544944
     44          1           0        0.660595    0.000971   -5.801685
     45          8           0       -0.843257    1.034251   -3.379551
     46          6           0        1.676989   -1.642361   -4.848800
     47          1           0        1.472119   -2.667952   -4.510273
     48          1           0        2.012239   -1.056134   -3.990474
     49          1           0        2.516908   -1.691148   -5.549569
     50          6           0        0.113650   -1.815081   -6.830756
     51          1           0       -0.117533   -2.863994   -6.606383
     52          1           0       -0.749430   -1.383908   -7.347271
     53          1           0        0.967777   -1.796913   -7.516267
     54          7           0       -0.107773   -0.810774   -2.255381
     55          1           0        0.227586   -1.764776   -2.328896
     56          6           0        0.204917   -0.146097   -0.997480
     57          1           0        0.185490    0.930500   -1.185478
     58          6           0        1.614809   -0.614261   -0.614197
     59          6           0       -0.820169   -0.513872    0.114557
     60          1           0       -0.714591   -1.596902    0.273981
     61          8           0        1.973784   -1.769660   -0.844138
     62          6           0       -2.278037   -0.258027   -0.325576
     63          1           0       -2.928296   -0.685011    0.450443
     64          1           0       -2.487611   -0.821912   -1.240617
     65          6           0       -0.482632    0.196615    1.435465
     66          1           0       -0.432858    1.284635    1.306316
     67          1           0        0.476196   -0.131546    1.847231
     68          1           0       -1.255539   -0.010170    2.183577
     69          6           0       -2.665005    1.208217   -0.554772
     70          1           0       -3.709996    1.259254   -0.878807
     71          1           0       -2.564095    1.809379    0.356077
     72          1           0       -2.055583    1.662152   -1.342481
     73          7           0        2.403205    0.302428   -0.008658
     74          1           0        2.069183    1.236797    0.197857
     75          6           0        3.743343    0.001495    0.450771
     76          1           0        3.791954   -1.062030    0.702527
     77          6           0        4.034312    0.888281    1.663232
     78          6           0        4.807212    0.322256   -0.638646
     79          1           0        4.697568    1.363563   -0.947367
     80          1           0        5.812057    0.184981   -0.228080
     81          8           0        3.481416    1.977333    1.794455
     82          6           0        4.594672   -0.565383   -1.842738
     83          8           0        4.035940   -0.232070   -2.864672
     84          8           0        5.073157   -1.810275   -1.622967
     85          7           0        4.971138    0.415268    2.533527
     86          1           0        5.536969   -0.359874    2.207131
     87          6           0        5.671816    1.379840    3.379005
     88          1           0        4.918289    1.924769    3.952505
     89          6           0        6.448620    2.323766    2.439403
     90          6           0        6.641130    0.646906    4.336749
     91          1           0        7.517549    0.326787    3.754173
     92          1           0        6.139353   -0.262759    4.684949
     93          8           0        7.004812    1.873747    1.438270
     94          6           0        7.032391    1.423923    5.553922
     95          6           0        6.845698    1.124508    6.886080
     96          1           0        6.366234    0.244377    7.296389
     97          7           0        7.695359    2.640209    5.559526
     98          1           0        7.967216    3.237814    4.778063
     99          6           0        7.859623    2.998647    6.865598
    100          1           0        8.342187    3.927273    7.140626
    101          7           0        7.364073    2.105571    7.698458
    102          7           0        6.480284    3.626725    2.798738
    103          1           0        5.992458    3.919723    3.634911
    104          6           0        7.155414    4.646869    2.020070
    105          1           0        7.617169    4.126029    1.176897
    106          6           0        8.276765    5.264239    2.873608
    107          6           0        6.150616    5.701532    1.503442
    108          1           0        5.771259    6.271579    2.363660
    109          1           0        6.681883    6.424338    0.869840
    110          8           0        8.441893    4.937297    4.057345
    111          6           0        4.963596    5.112392    0.715258
    112          1           0        4.431038    4.411805    1.371359
    113          6           0        3.994343    6.238448    0.328209
    114          1           0        4.476005    6.958710   -0.345836
    115          1           0        3.115881    5.834783   -0.187969
    116          1           0        3.642866    6.788354    1.209532
    117          6           0        5.418015    4.329919   -0.526076
    118          1           0        6.003208    4.967745   -1.202273
    119          1           0        4.546890    3.969024   -1.085872
    120          1           0        6.025883    3.458896   -0.262113
    121          7           0        9.061751    6.162326    2.252667
    122          1           0        8.831418    6.508895    1.326437
    123          6           0       10.051544    6.962039    2.959200
    124          1           0        9.718755    7.083697    3.992289
    125          6           0       10.090037    8.349194    2.309372
    126          6           0       11.463006    6.329971    2.940174
    127          1           0       12.195832    7.095987    3.213833
    128          1           0       11.686440    6.031045    1.909221
    129          8           0       10.744730    9.266276    3.012128
    130          6           0       11.614441    5.133945    3.886049
    131          1           0       10.870143    4.365750    3.652830
    132          1           0       12.602795    4.680566    3.729117
    133          6           0       11.463173    5.504796    5.368085
    134          1           0       10.494738    5.971767    5.554182
    135          1           0       11.495222    4.590842    5.973700
    136          7           0       12.498738    6.403131    5.870909
    137          1           0       13.423076    6.015503    5.998978
    138          7           0       11.412841    8.449758    5.541586
    139          1           0       11.371561    9.373293    5.972487
    140          1           0       11.015459    8.894248    3.910771
    141          7           0       13.405338    8.271664    6.844088
    142          1           0       13.364646    9.266267    7.021272
    143          1           0       13.684640    7.730254    7.653327
    144          6           0       12.377766    7.749148    6.066101
    145          8           0        9.587698    8.570190    1.224745
    146          1           0        4.796554   -2.355762   -2.382681
 ---------------------------------------------------------------------

 SCF Done:  E(RB3LYP) =  -3503.57556439     A.U. after    2 cycles

 Alpha  occ. eigenvalues --  -19.31033 -19.27538 -19.23622 -19.22299 -19.22044
 Alpha  occ. eigenvalues --  -19.20076 -19.19451 -19.18260 -19.18035 -19.17381
 Alpha  occ. eigenvalues --  -19.17362 -19.16859 -19.16785 -19.15949 -14.60731
 Alpha  occ. eigenvalues --  -14.50296 -14.45611 -14.42493 -14.41887 -14.41657
 Alpha  occ. eigenvalues --  -14.41606 -14.41523 -14.40865 -14.40486 -14.40452
 Alpha  occ. eigenvalues --  -14.40144 -14.34792 -14.32900 -10.44415 -10.41466
 Alpha  occ. eigenvalues --  -10.39231 -10.39212 -10.36343 -10.36313 -10.35322
 Alpha  occ. eigenvalues --  -10.34911 -10.34690 -10.34395 -10.34235 -10.34181
 Alpha  occ. eigenvalues --  -10.34057 -10.33921 -10.31721 -10.31433 -10.29712
 Alpha  occ. eigenvalues --  -10.29576 -10.28845 -10.28776 -10.28323 -10.28133
 Alpha  occ. eigenvalues --  -10.27108 -10.26165 -10.25539 -10.25022 -10.25016
 Alpha  occ. eigenvalues --  -10.24918 -10.24604 -10.24361 -10.24064 -10.23566
 Alpha  occ. eigenvalues --  -10.22949 -10.22561 -10.22521 -10.22108 -10.22017
 Alpha  occ. eigenvalues --  -10.21791 -10.21711 -10.21594 -10.20821 -10.20576
 Alpha  occ. eigenvalues --  -10.20547  -1.20279  -1.18253  -1.14606  -1.14497
 Alpha  occ. eigenvalues --   -1.13943  -1.11682  -1.11441  -1.10409  -1.09515
 Alpha  occ. eigenvalues --   -1.09359  -1.09202  -1.08620  -1.08320  -1.06934
 Alpha  occ. eigenvalues --   -1.05569  -1.03786  -1.03375  -1.02852  -1.02092
 Alpha  occ. eigenvalues --   -0.99485  -0.98573  -0.98323  -0.98114  -0.98033
 Alpha  occ. eigenvalues --   -0.97442  -0.94188  -0.93151  -0.89861  -0.88827
 Alpha  occ. eigenvalues --   -0.88624  -0.86747  -0.85896  -0.85496  -0.84599
 Alpha  occ. eigenvalues --   -0.84295  -0.83817  -0.82960  -0.80990  -0.80131
 Alpha  occ. eigenvalues --   -0.79878  -0.78691  -0.77675  -0.76852  -0.76481
 Alpha  occ. eigenvalues --   -0.75882  -0.74973  -0.74714  -0.74329  -0.73315
 Alpha  occ. eigenvalues --   -0.72777  -0.72730  -0.72156  -0.71725  -0.70730
 Alpha  occ. eigenvalues --   -0.70080  -0.68836  -0.68084  -0.68035  -0.67531
 Alpha  occ. eigenvalues --   -0.66370  -0.65881  -0.65613  -0.65307  -0.64898
 Alpha  occ. eigenvalues --   -0.64535  -0.64060  -0.63913  -0.63734  -0.63664
 Alpha  occ. eigenvalues --   -0.63086  -0.62998  -0.62900  -0.62308  -0.62125
 Alpha  occ. eigenvalues --   -0.61166  -0.60984  -0.60741  -0.60141  -0.59936
 Alpha  occ. eigenvalues --   -0.59261  -0.59117  -0.59004  -0.58322  -0.57543
 Alpha  occ. eigenvalues --   -0.57344  -0.57122  -0.56749  -0.56313  -0.55731
 Alpha  occ. eigenvalues --   -0.54914  -0.54362  -0.54138  -0.53997  -0.53915
 Alpha  occ. eigenvalues --   -0.53682  -0.53364  -0.53055  -0.52790  -0.52704
 Alpha  occ. eigenvalues --   -0.52412  -0.52262  -0.52072  -0.51711  -0.51523
 Alpha  occ. eigenvalues --   -0.51350  -0.51218  -0.51027  -0.50868  -0.50348
 Alpha  occ. eigenvalues --   -0.50229  -0.49984  -0.49755  -0.49664  -0.49251
 Alpha  occ. eigenvalues --   -0.48803  -0.48637  -0.48500  -0.48458  -0.48371
 Alpha  occ. eigenvalues --   -0.47997  -0.47894  -0.47704  -0.47423  -0.46866
 Alpha  occ. eigenvalues --   -0.46784  -0.46757  -0.46473  -0.46194  -0.45967
 Alpha  occ. eigenvalues --   -0.45726  -0.45561  -0.45230  -0.45090  -0.44590
 Alpha  occ. eigenvalues --   -0.44530  -0.44393  -0.44369  -0.44277  -0.44043
 Alpha  occ. eigenvalues --   -0.43914  -0.43854  -0.43617  -0.43338  -0.43062
 Alpha  occ. eigenvalues --   -0.42976  -0.42915  -0.42711  -0.42689  -0.42558
 Alpha  occ. eigenvalues --   -0.42439  -0.42352  -0.42211  -0.42075  -0.41966
 Alpha  occ. eigenvalues --   -0.41680  -0.41504  -0.41122  -0.40916  -0.40652
 Alpha  occ. eigenvalues --   -0.40481  -0.40251  -0.40118  -0.40020  -0.39528
 Alpha  occ. eigenvalues --   -0.39082  -0.38546  -0.38455  -0.38043  -0.38033
 Alpha  occ. eigenvalues --   -0.36910  -0.36773  -0.36655  -0.36435  -0.36281
 Alpha  occ. eigenvalues --   -0.36221  -0.36155  -0.36086  -0.35767  -0.34573
 Alpha  occ. eigenvalues --   -0.33400  -0.33274  -0.33228  -0.32891  -0.32798
 Alpha  occ. eigenvalues --   -0.32422  -0.31869  -0.31788  -0.31588  -0.31085
 Alpha  occ. eigenvalues --   -0.30961  -0.30771  -0.30599  -0.30354  -0.30207
 Alpha  occ. eigenvalues --   -0.29753  -0.29606  -0.29507  -0.28422  -0.28151
 Alpha  occ. eigenvalues --   -0.24523
 Alpha virt. eigenvalues --   -0.13797  -0.11139  -0.08411  -0.06835  -0.06352
 Alpha virt. eigenvalues --   -0.05622  -0.05328  -0.04111  -0.03595  -0.03215
 Alpha virt. eigenvalues --   -0.03083  -0.02396  -0.02340  -0.01900  -0.01500

 Mulliken charges:
               1
     1  N   -0.738456
     2  H    0.418611
     3  H    0.428201
     4  H    0.428895
     5  C   -0.159780
     6  H    0.206729
     7  C    0.662745
     8  C   -0.061766
     9  H    0.202774
    10  H    0.230522
    11  O   -0.519739
    12  O   -0.613779
    13  H    0.429776
    14  N   -0.565276
    15  H    0.344336
    16  C   -0.084635
    17  H    0.205971
    18  C    0.640381
    19  C   -0.479096
    20  H    0.199382
    21  H    0.168381
    22  H    0.187621
    23  O   -0.556922
    24  N   -0.621305
    25  H    0.364887
    26  C   -0.099229
    27  H    0.181692
    28  C    0.639382
    29  C    0.129041
    30  H    0.178032
    31  O   -0.540400
    32  C   -0.466316
    33  H    0.155224
    34  H    0.138736
    35  H    0.172750
    36  O   -0.606196
    37  H    0.392018
    38  N   -0.594759
    39  H    0.351804
    40  C   -0.077592
    41  H    0.176169
    42  C    0.639661
    43  C   -0.073273
    44  H    0.142375
    45  O   -0.555002
    46  C   -0.484859
    47  H    0.132333
    48  H    0.197206
    49  H    0.156183
    50  C   -0.443631
    51  H    0.148805
    52  H    0.146606
    53  H    0.152116
    54  N   -0.595192
    55  H    0.353716
    56  C   -0.065776
    57  H    0.178952
    58  C    0.642223
    59  C   -0.072589
    60  H    0.136170
    61  O   -0.557932
    62  C   -0.260250
    63  H    0.128504
    64  H    0.155219
    65  C   -0.471323
    66  H    0.148976
    67  H    0.156943
    68  H    0.154748
    69  C   -0.475773
    70  H    0.144819
    71  H    0.136675
    72  H    0.174463
    73  N   -0.604081
    74  H    0.354315
    75  C   -0.081256
    76  H    0.200540
    77  C    0.633201
    78  C   -0.338654
    79  H    0.191910
    80  H    0.199420
    81  O   -0.529817
    82  C    0.589717
    83  O   -0.462672
    84  O   -0.557959
    85  N   -0.592920
    86  H    0.344116
    87  C   -0.038193
    88  H    0.179722
    89  C    0.625048
    90  C   -0.391953
    91  H    0.173391
    92  H    0.175415
    93  O   -0.547516
    94  C    0.316155
    95  C   -0.082146
    96  H    0.127083
    97  N   -0.640032
    98  H    0.383224
    99  C    0.191163
   100  H    0.152438
   101  N   -0.426236
   102  N   -0.587272
   103  H    0.345082
   104  C   -0.090429
   105  H    0.208312
   106  C    0.638417
   107  C   -0.276773
   108  H    0.142113
   109  H    0.150974
   110  O   -0.561326
   111  C   -0.080551
   112  H    0.159369
   113  C   -0.444659
   114  H    0.144798
   115  H    0.144425
   116  H    0.141799
   117  C   -0.478556
   118  H    0.137829
   119  H    0.145495
   120  H    0.175502
   121  N   -0.601732
   122  H    0.358112
   123  C   -0.089628
   124  H    0.202296
   125  C    0.604180
   126  C   -0.263879
   127  H    0.159352
   128  H    0.152511
   129  O   -0.611525
   130  C   -0.261221
   131  H    0.159774
   132  H    0.132567
   133  C   -0.147321
   134  H    0.197780
   135  H    0.155223
   136  N   -0.591836
   137  H    0.331500
   138  N   -0.734264
   139  H    0.293563
   140  H    0.469866
   141  N   -0.758280
   142  H    0.337152
   143  H    0.336557
   144  C    0.659290
   145  O   -0.483191
   146  H    0.415276
 Sum of Mulliken charges =   1.00000

 Dipole moment (field-independent basis, Debye):
    X=            -33.4485    Y=              4.4812    Z=            -25.4056  Tot=             42.2413
 Quadrupole moment (field-independent basis, Debye-Ang):
   XX=            219.3672   YY=           -393.3680   ZZ=           -170.1472
   XY=             28.3914   XZ=            402.5157   YZ=             45.9877

 Normal termination of Gaussian 16 at Sun Jun 12 09:22:21 2022.
