 Gaussian 16, Revision C.01,
 Gaussian 16:  ES64L-G16RevC.01  3-Jul-2019

 ----------------------------------------------------------------------
 # B3LYP/6-31G* empiricaldispersion=gd3 guess=read geom=check nosymm in
 tegral(ultrafinegrid)
 ----------------------------------------------------------------------

 ------------------------------------------------------
 Candidate Structure: Conf:234 Charge calc in gas phase
 ------------------------------------------------------
 Structure from the checkpoint file:  "conf-234.chk"
 Charge =  1 Multiplicity = 1

                          Input orientation:
 ---------------------------------------------------------------------
 Center     Atomic      Atomic             Coordinates (Angstroms)
 Number     Number       Type             X           Y           Z
 ---------------------------------------------------------------------
      1          7           0       -3.282940   -6.559794   -5.298051
      2          1           0       -2.751067   -6.145188   -6.087710
      3          1           0       -3.021220   -5.979172   -4.449489
      4          1           0       -3.043571   -7.544761   -5.162239
      5          6           0       -4.731473   -6.328283   -5.639986
      6          1           0       -5.032727   -7.076293   -6.379928
      7          6           0       -4.703172   -4.917649   -6.284623
      8          6           0       -5.599596   -6.462530   -4.384606
      9          1           0       -5.327543   -5.668444   -3.674827
     10          1           0       -5.415316   -7.439028   -3.911914
     11          8           0       -3.632875   -4.561514   -6.799964
     12          8           0       -6.938673   -6.346687   -4.837220
     13          1           0       -7.544658   -6.441430   -4.085138
     14          7           0       -5.793485   -4.156485   -6.168424
     15          1           0       -6.603001   -4.561355   -5.701846
     16          6           0       -5.734997   -2.686415   -6.322602
     17          1           0       -5.050050   -2.479209   -7.150009
     18          6           0       -5.135562   -2.139877   -4.997393
     19          6           0       -7.116501   -2.115115   -6.600972
     20          1           0       -7.047561   -1.031005   -6.718677
     21          1           0       -7.792625   -2.306994   -5.762443
     22          1           0       -7.531475   -2.545587   -7.516423
     23          8           0       -5.801634   -1.511272   -4.181133
     24          7           0       -3.848547   -2.518709   -4.780735
     25          1           0       -3.313882   -2.906108   -5.549454
     26          6           0       -3.181567   -2.329582   -3.499108
     27          1           0       -3.961321   -2.319899   -2.730131
     28          6           0       -2.445135   -0.977840   -3.520219
     29          6           0       -2.212816   -3.489645   -3.222833
     30          1           0       -1.484959   -3.549630   -4.036751
     31          8           0       -1.236181   -0.916862   -3.747849
     32          6           0       -1.499611   -3.381442   -1.885227
     33          1           0       -0.874477   -2.486998   -1.833655
     34          1           0       -2.226758   -3.324393   -1.063736
     35          1           0       -0.858785   -4.255872   -1.731744
     36          8           0       -2.971161   -4.752036   -3.275098
     37          1           0       -3.170354   -4.997425   -2.357229
     38          7           0       -3.239714    0.092339   -3.315292
     39          1           0       -4.231628   -0.057447   -3.164489
     40          6           0       -2.725645    1.469151   -3.350810
     41          1           0       -1.837298    1.442259   -3.992144
     42          6           0       -2.290165    1.840101   -1.905497
     43          6           0       -3.757441    2.448656   -3.934858
     44          1           0       -4.557506    2.564360   -3.191985
     45          8           0       -2.858607    2.705164   -1.246282
     46          6           0       -3.108086    3.824438   -4.149475
     47          1           0       -2.291398    3.759087   -4.880461
     48          1           0       -2.712799    4.224192   -3.213354
     49          1           0       -3.845651    4.534737   -4.538060
     50          6           0       -4.354761    1.921819   -5.249718
     51          1           0       -3.564621    1.725044   -5.986074
     52          1           0       -4.928178    0.998440   -5.112464
     53          1           0       -5.030552    2.669375   -5.678805
     54          7           0       -1.270441    1.077351   -1.438074
     55          1           0       -0.873549    0.348303   -2.025134
     56          6           0       -0.855278    1.071556   -0.041678
     57          1           0       -0.550641    2.086294    0.234267
     58          6           0        0.334384    0.109881    0.052336
     59          6           0       -2.007243    0.631127    0.921339
     60          1           0       -2.809067    1.354387    0.737842
     61          8           0        0.403351   -0.902556   -0.655144
     62          6           0       -1.624839    0.728596    2.411355
     63          1           0       -0.808264    0.029945    2.636970
     64          1           0       -2.489112    0.377345    2.990515
     65          6           0       -2.533131   -0.769226    0.577174
     66          1           0       -1.772915   -1.537843    0.754710
     67          1           0       -2.829554   -0.827545   -0.475839
     68          1           0       -3.410386   -1.003680    1.190728
     69          6           0       -1.256199    2.136342    2.897010
     70          1           0       -1.136892    2.150563    3.985257
     71          1           0       -0.313164    2.500370    2.473773
     72          1           0       -2.035179    2.860149    2.630345
     73          7           0        1.260849    0.411635    0.980514
     74          1           0        1.209856    1.255342    1.542660
     75          6           0        2.376093   -0.461338    1.298646
     76          1           0        2.024714   -1.496745    1.347025
     77          6           0        2.903851    0.002968    2.668069
     78          6           0        3.473750   -0.362084    0.214914
     79          1           0        2.990113   -0.496712   -0.759450
     80          1           0        3.930633    0.631310    0.223734
     81          8           0        2.668532    1.132746    3.088406
     82          6           0        4.576438   -1.397064    0.328322
     83          8           0        4.546862   -2.373181    1.066652
     84          8           0        5.570430   -1.126912   -0.509270
     85          7           0        3.645728   -0.922782    3.335558
     86          1           0        3.942909   -1.705050    2.748718
     87          6           0        4.635440   -0.477256    4.297650
     88          1           0        4.169558    0.238922    4.979858
     89          6           0        5.795257    0.215709    3.539589
     90          6           0        5.129486   -1.717256    5.096666
     91          1           0        5.500487   -2.462972    4.380804
     92          1           0        4.251384   -2.156683    5.580864
     93          8           0        5.882625    0.143043    2.309642
     94          6           0        6.186918   -1.412397    6.108479
     95          6           0        6.157231   -0.767623    7.326875
     96          1           0        5.286468   -0.440581    7.880542
     97          7           0        7.531813   -1.622053    5.862954
     98          1           0        7.919166   -1.970858    4.996862
     99          6           0        8.233339   -1.090531    6.908641
    100          1           0        9.313193   -1.112195    6.951238
    101          7           0        7.432249   -0.571214    7.815625
    102          7           0        6.728475    0.841836    4.289622
    103          1           0        6.652283    0.810258    5.300070
    104          6           0        7.980608    1.348275    3.716925
    105          1           0        7.722676    1.736863    2.726885
    106          6           0        8.997200    0.190629    3.510141
    107          6           0        8.548606    2.453674    4.611328
    108          1           0        7.718845    3.122180    4.877707
    109          1           0        8.908015    1.991848    5.539320
    110          8           0       10.101438    0.184470    4.059071
    111          6           0        9.682121    3.290862    3.986093
    112          1           0       10.470603    2.600084    3.665616
    113          6           0        9.205581    4.095927    2.767677
    114          1           0        8.393588    4.780832    3.044881
    115          1           0       10.024017    4.699585    2.359177
    116          1           0        8.839413    3.455162    1.957181
    117          6           0       10.273458    4.226449    5.050196
    118          1           0        9.514341    4.927305    5.421589
    119          1           0       11.098615    4.818764    4.638420
    120          1           0       10.657302    3.662165    5.908041
    121          7           0        8.570091   -0.815924    2.696683
    122          1           0        7.699132   -0.691044    2.178024
    123          6           0        9.489404   -1.833302    2.206697
    124          1           0       10.478850   -1.384751    2.173480
    125          6           0        9.107257   -2.250502    0.786318
    126          6           0        9.539760   -3.114121    3.082464
    127          1           0        9.907403   -3.948279    2.474379
    128          1           0        8.504523   -3.369180    3.347949
    129          8           0       10.048256   -2.896798    0.120361
    130          6           0       10.419860   -3.007011    4.334645
    131          1           0       10.181458   -2.099410    4.898208
    132          1           0       10.203695   -3.861832    4.988731
    133          6           0       11.931475   -3.023446    4.050820
    134          1           0       12.460049   -3.157391    5.003389
    135          1           0       12.191031   -3.868265    3.407814
    136          7           0       12.464647   -1.819730    3.419573
    137          1           0       12.212187   -0.939926    3.857279
    138          7           0       12.517547   -2.649384    1.230814
    139          1           0       13.063921   -2.546504    0.375525
    140          1           0       10.934592   -2.899129    0.623034
    141          7           0       13.576483   -0.599373    1.830056
    142          1           0       13.909130   -0.480591    0.883459
    143          1           0       14.205179   -0.258703    2.545910
    144          6           0       12.855505   -1.744947    2.109010
    145          8           0        7.995528   -2.054599    0.327094
    146          1           0        6.346181   -1.699083   -0.302970
 ---------------------------------------------------------------------

 SCF Done:  E(RB3LYP) =  -3503.60424324     A.U. after    1 cycles

 Alpha  occ. eigenvalues --  -19.30921 -19.30229 -19.26985 -19.22823 -19.22253
 Alpha  occ. eigenvalues --  -19.21852 -19.19942 -19.18791 -19.17942 -19.17833
 Alpha  occ. eigenvalues --  -19.17732 -19.17490 -19.17464 -19.16599 -14.59430
 Alpha  occ. eigenvalues --  -14.50021 -14.46691 -14.44071 -14.43901 -14.42088
 Alpha  occ. eigenvalues --  -14.41557 -14.41432 -14.41120 -14.40648 -14.40426
 Alpha  occ. eigenvalues --  -14.40240 -14.36026 -14.35905 -10.44124 -10.41304
 Alpha  occ. eigenvalues --  -10.40131 -10.39688 -10.37184 -10.36942 -10.36213
 Alpha  occ. eigenvalues --  -10.36021 -10.35508 -10.35170 -10.34657 -10.34642
 Alpha  occ. eigenvalues --  -10.34452 -10.34127 -10.33716 -10.33522 -10.29404
 Alpha  occ. eigenvalues --  -10.29177 -10.28983 -10.28810 -10.28686 -10.28642
 Alpha  occ. eigenvalues --  -10.28420 -10.28065 -10.27344 -10.27210 -10.26876
 Alpha  occ. eigenvalues --  -10.26610 -10.25195 -10.24960 -10.24661 -10.24501
 Alpha  occ. eigenvalues --  -10.24437 -10.24239 -10.23320 -10.23008 -10.22937
 Alpha  occ. eigenvalues --  -10.22926 -10.22694 -10.21933 -10.21926 -10.21151
 Alpha  occ. eigenvalues --  -10.20835  -1.19688  -1.18070  -1.16208  -1.14664
 Alpha  occ. eigenvalues --   -1.14187  -1.13608  -1.13601  -1.11922  -1.10285
 Alpha  occ. eigenvalues --   -1.09654  -1.09246  -1.08738  -1.08248  -1.06636
 Alpha  occ. eigenvalues --   -1.06256  -1.06144  -1.04837  -1.04243  -1.03246
 Alpha  occ. eigenvalues --   -1.00398  -0.98667  -0.98229  -0.97860  -0.97576
 Alpha  occ. eigenvalues --   -0.97145  -0.94974  -0.93006  -0.91866  -0.90785
 Alpha  occ. eigenvalues --   -0.89427  -0.87573  -0.86625  -0.86236  -0.85813
 Alpha  occ. eigenvalues --   -0.85384  -0.84807  -0.83230  -0.81462  -0.81157
 Alpha  occ. eigenvalues --   -0.80630  -0.79201  -0.79045  -0.77753  -0.77325
 Alpha  occ. eigenvalues --   -0.76222  -0.75581  -0.74684  -0.73947  -0.73522
 Alpha  occ. eigenvalues --   -0.73302  -0.73058  -0.72390  -0.71934  -0.71506
 Alpha  occ. eigenvalues --   -0.71274  -0.69501  -0.69344  -0.68525  -0.68224
 Alpha  occ. eigenvalues --   -0.67064  -0.66876  -0.66372  -0.66255  -0.65830
 Alpha  occ. eigenvalues --   -0.65515  -0.64869  -0.64565  -0.64373  -0.64073
 Alpha  occ. eigenvalues --   -0.63895  -0.63616  -0.63448  -0.63138  -0.62734
 Alpha  occ. eigenvalues --   -0.62154  -0.61527  -0.60953  -0.60737  -0.60724
 Alpha  occ. eigenvalues --   -0.60202  -0.59952  -0.59702  -0.59685  -0.59148
 Alpha  occ. eigenvalues --   -0.58859  -0.58391  -0.58217  -0.57591  -0.57179
 Alpha  occ. eigenvalues --   -0.55951  -0.55799  -0.55509  -0.55104  -0.54885
 Alpha  occ. eigenvalues --   -0.54676  -0.54402  -0.54205  -0.53624  -0.53606
 Alpha  occ. eigenvalues --   -0.53045  -0.52837  -0.52512  -0.52364  -0.51975
 Alpha  occ. eigenvalues --   -0.51840  -0.51543  -0.51124  -0.51006  -0.50649
 Alpha  occ. eigenvalues --   -0.50629  -0.50505  -0.50123  -0.50092  -0.49678
 Alpha  occ. eigenvalues --   -0.49643  -0.49465  -0.49411  -0.49251  -0.48619
 Alpha  occ. eigenvalues --   -0.48551  -0.48301  -0.48148  -0.47986  -0.47792
 Alpha  occ. eigenvalues --   -0.47692  -0.47502  -0.47361  -0.47244  -0.46979
 Alpha  occ. eigenvalues --   -0.46934  -0.46807  -0.46551  -0.46472  -0.46210
 Alpha  occ. eigenvalues --   -0.46120  -0.45849  -0.45675  -0.45587  -0.45510
 Alpha  occ. eigenvalues --   -0.45273  -0.45001  -0.44619  -0.44548  -0.44316
 Alpha  occ. eigenvalues --   -0.44053  -0.43964  -0.43504  -0.43427  -0.43224
 Alpha  occ. eigenvalues --   -0.43179  -0.42755  -0.42586  -0.42069  -0.41967
 Alpha  occ. eigenvalues --   -0.41728  -0.41603  -0.41532  -0.41444  -0.41388
 Alpha  occ. eigenvalues --   -0.41156  -0.40858  -0.40680  -0.40628  -0.40189
 Alpha  occ. eigenvalues --   -0.40136  -0.39952  -0.39870  -0.39806  -0.38996
 Alpha  occ. eigenvalues --   -0.38534  -0.38127  -0.37817  -0.37552  -0.37323
 Alpha  occ. eigenvalues --   -0.37004  -0.36508  -0.36275  -0.35839  -0.35786
 Alpha  occ. eigenvalues --   -0.35255  -0.34500  -0.34238  -0.33872  -0.33017
 Alpha  occ. eigenvalues --   -0.32907  -0.32651  -0.32571  -0.32186  -0.31699
 Alpha  occ. eigenvalues --   -0.31548  -0.31420  -0.31328  -0.31069  -0.30638
 Alpha  occ. eigenvalues --   -0.30484  -0.29849  -0.29658  -0.29444  -0.29091
 Alpha  occ. eigenvalues --   -0.27470
 Alpha virt. eigenvalues --   -0.14227  -0.10300  -0.08818  -0.07623  -0.07001
 Alpha virt. eigenvalues --   -0.05625  -0.05469  -0.04161  -0.03924  -0.03323
 Alpha virt. eigenvalues --   -0.03193  -0.02815  -0.02688  -0.02379  -0.02334

 Mulliken charges:
               1
     1  N   -0.776294
     2  H    0.426026
     3  H    0.446174
     4  H    0.405888
     5  C   -0.118057
     6  H    0.243268
     7  C    0.661502
     8  C   -0.059038
     9  H    0.173404
    10  H    0.165841
    11  O   -0.553655
    12  O   -0.611387
    13  H    0.436381
    14  N   -0.590984
    15  H    0.380608
    16  C   -0.083251
    17  H    0.206562
    18  C    0.627421
    19  C   -0.461297
    20  H    0.195608
    21  H    0.174803
    22  H    0.173715
    23  O   -0.518416
    24  N   -0.616005
    25  H    0.367151
    26  C   -0.063661
    27  H    0.174851
    28  C    0.647330
    29  C    0.108087
    30  H    0.176013
    31  O   -0.537787
    32  C   -0.529237
    33  H    0.270480
    34  H    0.150121
    35  H    0.162392
    36  O   -0.680943
    37  H    0.420690
    38  N   -0.613465
    39  H    0.362641
    40  C   -0.058210
    41  H    0.183858
    42  C    0.632699
    43  C   -0.091463
    44  H    0.152633
    45  O   -0.526972
    46  C   -0.461439
    47  H    0.138401
    48  H    0.184985
    49  H    0.151218
    50  C   -0.461702
    51  H    0.141319
    52  H    0.136724
    53  H    0.156825
    54  N   -0.655012
    55  H    0.381601
    56  C   -0.012596
    57  H    0.169633
    58  C    0.614816
    59  C   -0.094350
    60  H    0.175708
    61  O   -0.561950
    62  C   -0.266369
    63  H    0.137211
    64  H    0.138647
    65  C   -0.467581
    66  H    0.153631
    67  H    0.127806
    68  H    0.141652
    69  C   -0.458061
    70  H    0.157449
    71  H    0.144737
    72  H    0.159792
    73  N   -0.631616
    74  H    0.371804
    75  C   -0.046184
    76  H    0.183012
    77  C    0.611460
    78  C   -0.363090
    79  H    0.207819
    80  H    0.199953
    81  O   -0.533685
    82  C    0.635237
    83  O   -0.521353
    84  O   -0.585960
    85  N   -0.610799
    86  H    0.379889
    87  C   -0.073149
    88  H    0.195362
    89  C    0.631972
    90  C   -0.370365
    91  H    0.165246
    92  H    0.189993
    93  O   -0.552429
    94  C    0.275212
    95  C   -0.090884
    96  H    0.144755
    97  N   -0.602676
    98  H    0.365697
    99  C    0.195083
   100  H    0.170759
   101  N   -0.420084
   102  N   -0.613154
   103  H    0.363463
   104  C   -0.060725
   105  H    0.193677
   106  C    0.615193
   107  C   -0.277750
   108  H    0.143973
   109  H    0.156920
   110  O   -0.543560
   111  C   -0.080801
   112  H    0.147442
   113  C   -0.451905
   114  H    0.144820
   115  H    0.148190
   116  H    0.141666
   117  C   -0.445892
   118  H    0.142624
   119  H    0.143933
   120  H    0.147244
   121  N   -0.654852
   122  H    0.393747
   123  C   -0.059218
   124  H    0.193215
   125  C    0.606327
   126  C   -0.290760
   127  H    0.171493
   128  H    0.145912
   129  O   -0.599512
   130  C   -0.296935
   131  H    0.163808
   132  H    0.149797
   133  C   -0.132201
   134  H    0.156490
   135  H    0.186011
   136  N   -0.596980
   137  H    0.358049
   138  N   -0.733959
   139  H    0.293766
   140  H    0.469799
   141  N   -0.749627
   142  H    0.338077
   143  H    0.343325
   144  C    0.637557
   145  O   -0.496681
   146  H    0.457897
 Sum of Mulliken charges =   1.00000

 Dipole moment (field-independent basis, Debye):
    X=             -6.7303    Y=            -27.3527    Z=            -16.2781  Tot=             32.5337
 Quadrupole moment (field-independent basis, Debye-Ang):
   XX=           -117.2209   YY=           -242.8782   ZZ=           -322.1734
   XY=            117.4662   XZ=            131.2987   YZ=            106.9985

 Normal termination of Gaussian 16 at Sun Jun 12 09:22:37 2022.
