 Gaussian 16, Revision C.01,
 Gaussian 16:  ES64L-G16RevC.01  3-Jul-2019

 ----------------------------------------------------------------------
 # B3LYP/6-31G* empiricaldispersion=gd3 guess=read geom=check nosymm in
 tegral(ultrafinegrid)
 ----------------------------------------------------------------------

 ------------------------------------------------------
 Candidate Structure: Conf:156 Charge calc in gas phase
 ------------------------------------------------------
 Structure from the checkpoint file:  "conf-156.chk"
 Charge =  1 Multiplicity = 1

                          Input orientation:
 ---------------------------------------------------------------------
 Center     Atomic      Atomic             Coordinates (Angstroms)
 Number     Number       Type             X           Y           Z
 ---------------------------------------------------------------------
      1          7           0       -4.863467   -5.283743   -2.687507
      2          1           0       -5.291535   -5.625098   -1.822875
      3          1           0       -3.903419   -5.639772   -2.791232
      4          1           0       -4.773413   -4.223770   -2.681604
      5          6           0       -5.647652   -5.648370   -3.925603
      6          1           0       -5.794102   -6.732853   -3.928828
      7          6           0       -4.681385   -5.250025   -5.069555
      8          6           0       -7.035177   -4.906645   -3.845341
      9          1           0       -6.911779   -4.013661   -3.217724
     10          1           0       -7.738130   -5.571267   -3.334566
     11          8           0       -3.505133   -5.029269   -4.786374
     12          8           0       -7.599114   -4.575467   -5.087759
     13          1           0       -7.224744   -3.705919   -5.358533
     14          7           0       -5.207508   -5.085052   -6.307543
     15          1           0       -6.221190   -5.180975   -6.346289
     16          6           0       -4.671035   -3.956298   -7.100905
     17          1           0       -3.627758   -4.169143   -7.344780
     18          6           0       -4.768701   -2.749199   -6.145339
     19          6           0       -5.498838   -3.756678   -8.366407
     20          1           0       -5.079325   -2.943608   -8.965666
     21          1           0       -6.532513   -3.497067   -8.115844
     22          1           0       -5.493726   -4.669965   -8.967799
     23          8           0       -5.871694   -2.449440   -5.627180
     24          7           0       -3.632869   -2.149648   -5.799165
     25          1           0       -2.733164   -2.470942   -6.151260
     26          6           0       -3.521208   -1.144244   -4.745734
     27          1           0       -4.354777   -0.439309   -4.836247
     28          6           0       -2.161360   -0.452322   -4.992276
     29          6           0       -3.544084   -1.795905   -3.333576
     30          1           0       -2.708130   -2.503910   -3.289804
     31          8           0       -1.244366   -1.099938   -5.495502
     32          6           0       -3.462759   -0.783636   -2.197500
     33          1           0       -2.518857   -0.233468   -2.192545
     34          1           0       -4.281474   -0.058422   -2.266791
     35          1           0       -3.561278   -1.308344   -1.242786
     36          8           0       -4.754279   -2.581693   -3.160320
     37          1           0       -5.384869   -2.347589   -3.877296
     38          7           0       -2.089467    0.837816   -4.622843
     39          1           0       -2.838181    1.255708   -4.077666
     40          6           0       -0.836615    1.586095   -4.549471
     41          1           0       -0.018165    0.874175   -4.698353
     42          6           0       -0.802851    2.166500   -3.122151
     43          6           0       -0.764287    2.680252   -5.651375
     44          1           0       -1.599611    3.371547   -5.469687
     45          8           0       -1.855910    2.380399   -2.512900
     46          6           0        0.550098    3.472930   -5.586898
     47          1           0        1.416674    2.805843   -5.689709
     48          1           0        0.660375    4.033431   -4.654644
     49          1           0        0.593981    4.191340   -6.411436
     50          6           0       -0.941359    2.044748   -7.037913
     51          1           0       -0.143266    1.320478   -7.239842
     52          1           0       -1.899107    1.523517   -7.125791
     53          1           0       -0.905287    2.815784   -7.814458
     54          7           0        0.414324    2.407759   -2.600862
     55          1           0        1.263841    2.259764   -3.134406
     56          6           0        0.592131    3.020594   -1.292907
     57          1           0       -0.205107    3.757545   -1.159961
     58          6           0        1.961756    3.699879   -1.307389
     59          6           0        0.483046    1.955748   -0.152168
     60          1           0       -0.484531    1.472836   -0.344515
     61          8           0        2.854200    3.327655   -2.077190
     62          6           0        0.425016    2.553192    1.268613
     63          1           0        1.399721    2.976713    1.543910
     64          1           0        0.272641    1.712386    1.957107
     65          6           0        1.592903    0.900663   -0.252345
     66          1           0        2.572593    1.331518   -0.021452
     67          1           0        1.647937    0.460863   -1.253714
     68          1           0        1.416539    0.090524    0.462473
     69          6           0       -0.693432    3.578278    1.502204
     70          1           0       -0.783466    3.813115    2.567383
     71          1           0       -0.526282    4.532284    0.984560
     72          1           0       -1.659929    3.193275    1.155927
     73          7           0        2.131076    4.678513   -0.389885
     74          1           0        1.364916    4.910051    0.229325
     75          6           0        3.451554    5.212284   -0.040581
     76          1           0        3.968777    5.463892   -0.970983
     77          6           0        4.188011    4.092889    0.726937
     78          6           0        3.307569    6.457672    0.844772
     79          1           0        2.937855    6.153167    1.827281
     80          1           0        4.290395    6.918243    0.965740
     81          8           0        3.993673    3.915414    1.930512
     82          6           0        2.379344    7.468605    0.205425
     83          8           0        2.698401    8.320633   -0.586617
     84          8           0        1.090451    7.266345    0.603702
     85          7           0        4.959613    3.287956   -0.038693
     86          1           0        4.889915    3.413330   -1.042072
     87          6           0        5.390430    1.969386    0.441386
     88          1           0        4.620147    1.616588    1.137558
     89          6           0        6.713307    2.054374    1.242461
     90          6           0        5.500355    1.006546   -0.743371
     91          1           0        6.412653    1.250839   -1.302756
     92          1           0        4.642466    1.183009   -1.407455
     93          8           0        7.760770    1.546007    0.822537
     94          6           0        5.531774   -0.427989   -0.314997
     95          6           0        5.367668   -1.062668    0.894918
     96          1           0        5.218491   -0.611168    1.866048
     97          7           0        5.762085   -1.450624   -1.218817
     98          1           0        5.947375   -1.336826   -2.205112
     99          6           0        5.738974   -2.629381   -0.524247
    100          1           0        5.889400   -3.587386   -1.004704
    101          7           0        5.501793   -2.432523    0.753608
    102          7           0        6.613430    2.719528    2.399570
    103          1           0        5.681052    3.025559    2.667520
    104          6           0        7.595603    2.581627    3.468302
    105          1           0        8.589001    2.759378    3.047656
    106          6           0        7.532684    1.124814    4.006106
    107          6           0        7.259344    3.646605    4.539948
    108          1           0        7.091497    4.587033    3.994718
    109          1           0        6.295071    3.374600    4.994444
    110          8           0        6.629521    0.352055    3.597862
    111          6           0        8.286213    3.914947    5.656732
    112          1           0        8.422324    3.016304    6.266109
    113          6           0        9.664219    4.303896    5.105457
    114          1           0        9.598444    5.193899    4.463733
    115          1           0       10.350427    4.521152    5.929357
    116          1           0       10.124007    3.496340    4.525469
    117          6           0        7.741879    5.019645    6.574927
    118          1           0        7.621972    5.966952    6.030974
    119          1           0        8.427890    5.196152    7.410020
    120          1           0        6.765959    4.747642    6.995771
    121          7           0        8.463071    0.790505    4.885789
    122          1           0        9.188307    1.459330    5.224959
    123          6           0        8.390183   -0.225842    5.946065
    124          1           0        7.412117   -0.136462    6.438099
    125          6           0        9.493791    0.236598    7.009048
    126          6           0        8.601041   -1.686919    5.540871
    127          1           0        8.927678   -2.179408    6.461005
    128          1           0        9.444771   -1.736228    4.839300
    129          8           0        9.667887   -0.541193    7.954825
    130          6           0        7.360337   -2.412519    4.959775
    131          1           0        7.058297   -3.244174    5.607265
    132          1           0        6.507588   -1.728894    4.901645
    133          6           0        7.606764   -2.994814    3.567345
    134          1           0        8.440968   -3.704547    3.631287
    135          1           0        6.725078   -3.514437    3.171828
    136          7           0        7.960061   -1.911019    2.641937
    137          1           0        7.509280   -1.005267    2.861225
    138          7           0        9.304488   -3.198672    1.233449
    139          1           0        9.512613   -3.383555    0.263533
    140          1           0        9.126463   -4.015375    1.796990
    141          7           0        8.746773   -1.035983    0.639235
    142          1           0        9.571424   -1.004674    0.055910
    143          1           0        8.317798   -0.122654    0.831058
    144          6           0        8.648055   -2.042438    1.527757
    145          8           0       10.032975    1.351782    6.738162
    146          1           0        0.545806    7.931482    0.140270
 ---------------------------------------------------------------------

 SCF Done:  E(RB3LYP) =  -3503.55875336     A.U. after    3 cycles

 Alpha  occ. eigenvalues --  -19.28911 -19.28178 -19.27326 -19.27282 -19.26478
 Alpha  occ. eigenvalues --  -19.23171 -19.21867 -19.21324 -19.21298 -19.20531
 Alpha  occ. eigenvalues --  -19.18187 -19.15217 -19.06056 -19.04820 -14.59531
 Alpha  occ. eigenvalues --  -14.50007 -14.49271 -14.46953 -14.45956 -14.45659
 Alpha  occ. eigenvalues --  -14.45473 -14.44878 -14.44620 -14.42948 -14.42777
 Alpha  occ. eigenvalues --  -14.40798 -14.37638 -14.36480 -10.44142 -10.42948
 Alpha  occ. eigenvalues --  -10.40910 -10.40547 -10.40026 -10.39618 -10.39013
 Alpha  occ. eigenvalues --  -10.38623 -10.38371 -10.37344 -10.37331 -10.36917
 Alpha  occ. eigenvalues --  -10.36434 -10.35027 -10.33199 -10.32976 -10.32281
 Alpha  occ. eigenvalues --  -10.31586 -10.31092 -10.30481 -10.30120 -10.28747
 Alpha  occ. eigenvalues --  -10.28651 -10.28626 -10.28140 -10.27864 -10.27824
 Alpha  occ. eigenvalues --  -10.27743 -10.27095 -10.25908 -10.25816 -10.25547
 Alpha  occ. eigenvalues --  -10.25387 -10.25329 -10.25132 -10.23833 -10.22074
 Alpha  occ. eigenvalues --  -10.21526 -10.21493 -10.20135 -10.19143 -10.18883
 Alpha  occ. eigenvalues --  -10.18501  -1.20026  -1.18063  -1.17816  -1.16009
 Alpha  occ. eigenvalues --   -1.15431  -1.15169  -1.13925  -1.13524  -1.13021
 Alpha  occ. eigenvalues --   -1.12203  -1.09788  -1.09006  -1.08719  -1.07615
 Alpha  occ. eigenvalues --   -1.06542  -1.06166  -1.06036  -1.03639  -1.02611
 Alpha  occ. eigenvalues --   -1.02015  -1.01103  -0.99071  -0.98098  -0.97780
 Alpha  occ. eigenvalues --   -0.96823  -0.93462  -0.93360  -0.92430  -0.91244
 Alpha  occ. eigenvalues --   -0.90233  -0.90070  -0.89002  -0.88406  -0.87817
 Alpha  occ. eigenvalues --   -0.86726  -0.84000  -0.83685  -0.82674  -0.82586
 Alpha  occ. eigenvalues --   -0.80911  -0.80694  -0.80433  -0.79213  -0.78168
 Alpha  occ. eigenvalues --   -0.77012  -0.76645  -0.76332  -0.75899  -0.74335
 Alpha  occ. eigenvalues --   -0.73868  -0.72855  -0.72629  -0.72332  -0.71567
 Alpha  occ. eigenvalues --   -0.71440  -0.71417  -0.70268  -0.69705  -0.69467
 Alpha  occ. eigenvalues --   -0.69010  -0.68549  -0.68425  -0.67909  -0.67717
 Alpha  occ. eigenvalues --   -0.67345  -0.66722  -0.66441  -0.66123  -0.66006
 Alpha  occ. eigenvalues --   -0.65137  -0.64619  -0.64423  -0.64189  -0.64098
 Alpha  occ. eigenvalues --   -0.63400  -0.63173  -0.62574  -0.61990  -0.61555
 Alpha  occ. eigenvalues --   -0.61381  -0.60519  -0.59899  -0.59565  -0.59331
 Alpha  occ. eigenvalues --   -0.59091  -0.58337  -0.58073  -0.57968  -0.57431
 Alpha  occ. eigenvalues --   -0.57347  -0.57274  -0.56874  -0.56713  -0.56696
 Alpha  occ. eigenvalues --   -0.56418  -0.55872  -0.55790  -0.55561  -0.55435
 Alpha  occ. eigenvalues --   -0.54955  -0.54898  -0.54313  -0.53902  -0.53750
 Alpha  occ. eigenvalues --   -0.52933  -0.52806  -0.52761  -0.52291  -0.51983
 Alpha  occ. eigenvalues --   -0.51946  -0.51577  -0.51560  -0.51302  -0.50943
 Alpha  occ. eigenvalues --   -0.50790  -0.50718  -0.50513  -0.50436  -0.49877
 Alpha  occ. eigenvalues --   -0.49630  -0.49541  -0.49472  -0.49335  -0.49237
 Alpha  occ. eigenvalues --   -0.49042  -0.48772  -0.48710  -0.48408  -0.48077
 Alpha  occ. eigenvalues --   -0.47904  -0.47891  -0.47491  -0.47442  -0.47372
 Alpha  occ. eigenvalues --   -0.47268  -0.47077  -0.46776  -0.46730  -0.46544
 Alpha  occ. eigenvalues --   -0.46413  -0.46296  -0.46159  -0.45849  -0.45383
 Alpha  occ. eigenvalues --   -0.45338  -0.45076  -0.44614  -0.44267  -0.43981
 Alpha  occ. eigenvalues --   -0.43639  -0.43393  -0.43236  -0.43007  -0.42387
 Alpha  occ. eigenvalues --   -0.42304  -0.42142  -0.42013  -0.41857  -0.41248
 Alpha  occ. eigenvalues --   -0.41211  -0.41122  -0.41027  -0.40812  -0.40294
 Alpha  occ. eigenvalues --   -0.40061  -0.39958  -0.39827  -0.39404  -0.39371
 Alpha  occ. eigenvalues --   -0.38351  -0.38083  -0.37283  -0.37253  -0.37228
 Alpha  occ. eigenvalues --   -0.36641  -0.36463  -0.36169  -0.35844  -0.35535
 Alpha  occ. eigenvalues --   -0.35263  -0.34983  -0.34845  -0.34798  -0.34744
 Alpha  occ. eigenvalues --   -0.34444  -0.34312  -0.34278  -0.33916  -0.33341
 Alpha  occ. eigenvalues --   -0.33165  -0.33076  -0.32338  -0.31924  -0.30846
 Alpha  occ. eigenvalues --   -0.29176  -0.28642  -0.27539  -0.21044  -0.20967
 Alpha  occ. eigenvalues --   -0.19132
 Alpha virt. eigenvalues --   -0.14722  -0.12505  -0.09998  -0.09476  -0.08381
 Alpha virt. eigenvalues --   -0.07562  -0.07094  -0.05977  -0.05605  -0.04955
 Alpha virt. eigenvalues --   -0.04868  -0.04084  -0.03818  -0.02840  -0.02515

 Mulliken charges:
               1
     1  N   -0.762828
     2  H    0.405600
     3  H    0.417993
     4  H    0.454485
     5  C   -0.155982
     6  H    0.235880
     7  C    0.625074
     8  C   -0.047654
     9  H    0.163080
    10  H    0.190866
    11  O   -0.517428
    12  O   -0.623284
    13  H    0.447515
    14  N   -0.584262
    15  H    0.368612
    16  C   -0.049869
    17  H    0.194987
    18  C    0.628442
    19  C   -0.479913
    20  H    0.189600
    21  H    0.181792
    22  H    0.194306
    23  O   -0.609512
    24  N   -0.564758
    25  H    0.380090
    26  C   -0.122277
    27  H    0.192506
    28  C    0.620562
    29  C    0.166795
    30  H    0.161341
    31  O   -0.530785
    32  C   -0.469804
    33  H    0.185050
    34  H    0.167190
    35  H    0.166308
    36  O   -0.715714
    37  H    0.450558
    38  N   -0.596529
    39  H    0.359553
    40  C   -0.073919
    41  H    0.179880
    42  C    0.631020
    43  C   -0.072788
    44  H    0.144977
    45  O   -0.553635
    46  C   -0.470039
    47  H    0.146540
    48  H    0.160946
    49  H    0.169820
    50  C   -0.446072
    51  H    0.158018
    52  H    0.145292
    53  H    0.161956
    54  N   -0.611509
    55  H    0.358707
    56  C   -0.060936
    57  H    0.186369
    58  C    0.633478
    59  C   -0.079762
    60  H    0.151830
    61  O   -0.562907
    62  C   -0.288644
    63  H    0.161356
    64  H    0.153554
    65  C   -0.474172
    66  H    0.166878
    67  H    0.140795
    68  H    0.162584
    69  C   -0.471442
    70  H    0.170946
    71  H    0.138791
    72  H    0.160135
    73  N   -0.621299
    74  H    0.377574
    75  C   -0.063310
    76  H    0.195008
    77  C    0.644382
    78  C   -0.368787
    79  H    0.210419
    80  H    0.207169
    81  O   -0.541908
    82  C    0.570225
    83  O   -0.437519
    84  O   -0.573892
    85  N   -0.602341
    86  H    0.363963
    87  C   -0.073372
    88  H    0.193806
    89  C    0.669101
    90  C   -0.394530
    91  H    0.178093
    92  H    0.170775
    93  O   -0.577572
    94  C    0.343746
    95  C   -0.123496
    96  H    0.186644
    97  N   -0.614989
    98  H    0.331115
    99  C    0.201130
   100  H    0.152671
   101  N   -0.441201
   102  N   -0.599776
   103  H    0.377153
   104  C   -0.057347
   105  H    0.184342
   106  C    0.598566
   107  C   -0.284767
   108  H    0.138151
   109  H    0.140361
   110  O   -0.603163
   111  C   -0.096235
   112  H    0.183939
   113  C   -0.443379
   114  H    0.118943
   115  H    0.170108
   116  H    0.145312
   117  C   -0.446606
   118  H    0.125886
   119  H    0.160322
   120  H    0.135840
   121  N   -0.605393
   122  H    0.390485
   123  C   -0.070857
   124  H    0.146012
   125  C    0.585347
   126  C   -0.276689
   127  H    0.192124
   128  H    0.125327
   129  O   -0.569678
   130  C   -0.303883
   131  H    0.147476
   132  H    0.177505
   133  C   -0.165236
   134  H    0.145776
   135  H    0.184574
   136  N   -0.606741
   137  H    0.432928
   138  N   -0.759797
   139  H    0.353287
   140  H    0.368000
   141  N   -0.807415
   142  H    0.346137
   143  H    0.438167
   144  C    0.781679
   145  O   -0.613410
   146  H    0.419385
 Sum of Mulliken charges =   1.00000

 Dipole moment (field-independent basis, Debye):
    X=            -24.0567    Y=            -17.5979    Z=            -34.2708  Tot=             45.4191
 Quadrupole moment (field-independent basis, Debye-Ang):
   XX=           -395.7550   YY=           -277.2309   ZZ=           -457.0904
   XY=             43.8273   XZ=           -105.0883   YZ=             54.9128

 Normal termination of Gaussian 16 at Sun Jun 12 09:17:23 2022.
