 Gaussian 16, Revision C.01,
 Gaussian 16:  ES64L-G16RevC.01  3-Jul-2019

 ----------------------------------------------------------------------
 # B3LYP/6-31G* empiricaldispersion=gd3 guess=read geom=check nosymm in
 tegral(ultrafinegrid)
 ----------------------------------------------------------------------

 ------------------------------------------------------
 Candidate Structure: Conf:102 Charge calc in gas phase
 ------------------------------------------------------
 Structure from the checkpoint file:  "conf-102.chk"
 Charge =  1 Multiplicity = 1

                          Input orientation:
 ---------------------------------------------------------------------
 Center     Atomic      Atomic             Coordinates (Angstroms)
 Number     Number       Type             X           Y           Z
 ---------------------------------------------------------------------
      1          7           0       -7.825811   -1.026387   -4.030167
      2          1           0       -8.319016   -1.955385   -3.830757
      3          1           0       -7.726506   -0.500350   -3.156201
      4          1           0       -8.367073   -0.462565   -4.689835
      5          6           0       -6.502204   -1.506322   -4.577306
      6          1           0       -6.414677   -1.189513   -5.619382
      7          6           0       -6.621347   -3.047784   -4.464003
      8          6           0       -5.319811   -0.936101   -3.772103
      9          1           0       -5.346423   -1.344625   -2.752596
     10          1           0       -5.421764    0.161073   -3.723152
     11          8           0       -7.677441   -3.510304   -4.014476
     12          8           0       -4.156623   -1.318609   -4.461742
     13          1           0       -3.397412   -1.207677   -3.828042
     14          7           0       -5.555747   -3.748397   -4.871753
     15          1           0       -4.723801   -3.170154   -5.008768
     16          6           0       -5.310812   -5.082294   -4.317720
     17          1           0       -6.288782   -5.541762   -4.145120
     18          6           0       -4.648055   -4.845294   -2.932611
     19          6           0       -4.494336   -5.930004   -5.295304
     20          1           0       -4.393575   -6.959762   -4.938754
     21          1           0       -3.491047   -5.515756   -5.444023
     22          1           0       -5.001497   -5.967526   -6.262678
     23          8           0       -4.842678   -3.779101   -2.332160
     24          7           0       -3.851327   -5.810851   -2.446792
     25          1           0       -3.611378   -6.639016   -2.981149
     26          6           0       -3.075413   -5.653056   -1.213007
     27          1           0       -3.678241   -5.079226   -0.502465
     28          6           0       -1.776182   -4.876429   -1.550146
     29          6           0       -2.740322   -7.055390   -0.668054
     30          1           0       -2.038454   -6.922747    0.165664
     31          8           0       -0.665280   -5.402312   -1.476018
     32          6           0       -3.971190   -7.813455   -0.193447
     33          1           0       -4.465277   -7.280795    0.626032
     34          1           0       -4.691268   -7.942396   -1.008039
     35          1           0       -3.674677   -8.804853    0.158464
     36          8           0       -2.132242   -7.813612   -1.713900
     37          1           0       -1.251810   -7.413651   -1.841549
     38          7           0       -1.981045   -3.610008   -1.989002
     39          1           0       -2.935536   -3.261067   -2.039919
     40          6           0       -0.928621   -2.800093   -2.591078
     41          1           0        0.019894   -3.117688   -2.147054
     42          6           0       -1.250887   -1.350452   -2.231142
     43          6           0       -0.842477   -2.960132   -4.133832
     44          1           0       -1.812525   -2.642554   -4.541140
     45          8           0       -2.342569   -0.843431   -2.559902
     46          6           0        0.249226   -2.044258   -4.706972
     47          1           0        1.230509   -2.296493   -4.285556
     48          1           0        0.052652   -0.986780   -4.500088
     49          1           0        0.316126   -2.162444   -5.793070
     50          6           0       -0.604377   -4.420264   -4.539658
     51          1           0        0.330444   -4.802665   -4.117080
     52          1           0       -1.411474   -5.074614   -4.196319
     53          1           0       -0.545563   -4.501026   -5.630673
     54          7           0       -0.320788   -0.667282   -1.560932
     55          1           0        0.553415   -1.099611   -1.281834
     56          6           0       -0.484352    0.723334   -1.153226
     57          1           0       -0.986233    1.249760   -1.969746
     58          6           0        0.920565    1.278069   -0.923885
     59          6           0       -1.358288    0.835493    0.138168
     60          1           0       -2.279755    0.296261   -0.121524
     61          8           0        1.842990    0.522744   -0.584237
     62          6           0       -1.742317    2.285422    0.492569
     63          1           0       -0.844661    2.832004    0.804752
     64          1           0       -2.380828    2.231357    1.383592
     65          6           0       -0.693070    0.145050    1.337873
     66          1           0        0.195173    0.695518    1.663663
     67          1           0       -0.399063   -0.884164    1.104584
     68          1           0       -1.392742    0.108253    2.179499
     69          6           0       -2.496879    3.050430   -0.603170
     70          1           0       -2.903326    3.987172   -0.207758
     71          1           0       -1.864656    3.322934   -1.456734
     72          1           0       -3.335223    2.458211   -0.991983
     73          7           0        1.045117    2.604677   -1.058901
     74          1           0        0.280599    3.152702   -1.439737
     75          6           0        2.223340    3.338812   -0.629760
     76          1           0        3.066491    3.108748   -1.292482
     77          6           0        2.563891    2.960818    0.832839
     78          6           0        1.934376    4.857118   -0.638755
     79          1           0        1.204464    5.063399    0.153421
     80          1           0        2.853407    5.399930   -0.410090
     81          8           0        1.668585    2.826731    1.666204
     82          6           0        1.334481    5.355541   -1.937378
     83          8           0        0.308219    4.915593   -2.428633
     84          8           0        2.041850    6.351469   -2.487125
     85          7           0        3.876587    2.851394    1.090753
     86          1           0        4.594943    3.062701    0.397333
     87          6           0        4.428192    2.682579    2.425010
     88          1           0        4.006295    3.448999    3.088392
     89          6           0        5.947666    2.944973    2.271759
     90          6           0        4.073569    1.301305    3.030213
     91          1           0        2.981636    1.261932    3.104047
     92          1           0        4.458341    1.245263    4.053027
     93          8           0        6.392151    3.314085    1.180250
     94          6           0        4.588295    0.122872    2.270122
     95          6           0        5.583227   -0.780232    2.557778
     96          1           0        6.268462   -0.757133    3.395380
     97          7           0        4.045841   -0.303584    1.068992
     98          1           0        3.291053    0.144653    0.547987
     99          6           0        4.707449   -1.419923    0.687590
    100          1           0        4.482842   -1.953608   -0.225342
    101          7           0        5.646788   -1.748149    1.566994
    102          7           0        6.675774    2.790392    3.389297
    103          1           0        6.294841    2.233948    4.149102
    104          6           0        8.136572    2.775340    3.395651
    105          1           0        8.471576    2.893773    2.363698
    106          6           0        8.567945    1.388208    3.918201
    107          6           0        8.721974    3.892437    4.280890
    108          1           0        8.390389    3.716491    5.314005
    109          1           0        9.814872    3.785228    4.286982
    110          8           0        7.743958    0.661066    4.508662
    111          6           0        8.342152    5.321890    3.856186
    112          1           0        7.244854    5.400906    3.886832
    113          6           0        8.921339    6.328743    4.860694
    114          1           0       10.017774    6.288865    4.860991
    115          1           0        8.624010    7.353397    4.607947
    116          1           0        8.580519    6.119519    5.881930
    117          6           0        8.804048    5.647171    2.427340
    118          1           0        9.886212    5.493312    2.325843
    119          1           0        8.593792    6.695674    2.184065
    120          1           0        8.295303    5.026224    1.682736
    121          7           0        9.843896    1.097892    3.674995
    122          1           0       10.527993    1.839327    3.418872
    123          6           0       10.640213    0.050991    4.304564
    124          1           0       10.227980   -0.186541    5.291878
    125          6           0       12.102752    0.656454    4.462544
    126          6           0       10.703118   -1.214616    3.445194
    127          1           0       11.411970   -1.897934    3.925169
    128          1           0       11.125775   -0.945204    2.466494
    129          8           0       12.926530   -0.118295    4.971654
    130          6           0        9.328986   -1.854618    3.253338
    131          1           0        8.944582   -2.223366    4.214708
    132          1           0        8.617828   -1.093719    2.916685
    133          6           0        9.316087   -2.989382    2.231475
    134          1           0        9.647035   -2.639879    1.249454
    135          1           0        9.993339   -3.806748    2.503513
    136          7           0        7.944112   -3.507616    2.053039
    137          1           0        7.281137   -2.856079    1.603873
    138          7           0        8.040872   -5.268172    3.601828
    139          1           0        7.628885   -5.627119    4.451331
    140          1           0        9.049933   -5.237047    3.588710
    141          7           0        6.005671   -4.344677    2.974295
    142          1           0        5.499709   -5.147899    3.314895
    143          1           0        5.510656   -3.592220    2.492610
    144          6           0        7.346858   -4.357627    2.879732
    145          8           0       12.221011    1.831739    4.010702
    146          1           0        1.577275    6.632439   -3.299712
 ---------------------------------------------------------------------

 SCF Done:  E(RB3LYP) =  -3503.57730411     A.U. after    1 cycles

 Alpha  occ. eigenvalues --  -19.29079 -19.27600 -19.26612 -19.23830 -19.23684
 Alpha  occ. eigenvalues --  -19.23677 -19.23007 -19.22510 -19.22144 -19.19562
 Alpha  occ. eigenvalues --  -19.17511 -19.13326 -19.04533 -19.03346 -14.60741
 Alpha  occ. eigenvalues --  -14.49192 -14.48010 -14.47313 -14.47128 -14.46133
 Alpha  occ. eigenvalues --  -14.45870 -14.45768 -14.45434 -14.45321 -14.43441
 Alpha  occ. eigenvalues --  -14.40412 -14.40125 -14.34910 -10.43952 -10.42661
 Alpha  occ. eigenvalues --  -10.41955 -10.40902 -10.40808 -10.40248 -10.39112
 Alpha  occ. eigenvalues --  -10.39060 -10.37986 -10.36839 -10.35936 -10.34501
 Alpha  occ. eigenvalues --  -10.33589 -10.33576 -10.33430 -10.33068 -10.33017
 Alpha  occ. eigenvalues --  -10.31759 -10.30491 -10.30049 -10.29953 -10.29824
 Alpha  occ. eigenvalues --  -10.29514 -10.29431 -10.28614 -10.28007 -10.26904
 Alpha  occ. eigenvalues --  -10.26837 -10.26689 -10.26203 -10.25971 -10.25669
 Alpha  occ. eigenvalues --  -10.25462 -10.25449 -10.24739 -10.22411 -10.22230
 Alpha  occ. eigenvalues --  -10.20871 -10.20506 -10.20087 -10.19371 -10.18974
 Alpha  occ. eigenvalues --  -10.18705  -1.20131  -1.20079  -1.15931  -1.15499
 Alpha  occ. eigenvalues --   -1.14713  -1.14181  -1.14054  -1.13669  -1.11456
 Alpha  occ. eigenvalues --   -1.11292  -1.11078  -1.10522  -1.09226  -1.08423
 Alpha  occ. eigenvalues --   -1.06561  -1.04426  -1.04128  -1.03663  -1.02788
 Alpha  occ. eigenvalues --   -1.02500  -1.00355  -1.00097  -0.99580  -0.97575
 Alpha  occ. eigenvalues --   -0.97073  -0.94148  -0.92553  -0.92155  -0.91067
 Alpha  occ. eigenvalues --   -0.89970  -0.89042  -0.88777  -0.88412  -0.86350
 Alpha  occ. eigenvalues --   -0.86269  -0.83825  -0.83798  -0.83049  -0.81762
 Alpha  occ. eigenvalues --   -0.81060  -0.80249  -0.79999  -0.79326  -0.78104
 Alpha  occ. eigenvalues --   -0.77803  -0.77244  -0.76798  -0.76217  -0.75043
 Alpha  occ. eigenvalues --   -0.73647  -0.72973  -0.72855  -0.72060  -0.71498
 Alpha  occ. eigenvalues --   -0.70933  -0.70221  -0.70055  -0.69788  -0.69608
 Alpha  occ. eigenvalues --   -0.69526  -0.69437  -0.68725  -0.68320  -0.68005
 Alpha  occ. eigenvalues --   -0.67516  -0.67335  -0.67092  -0.66060  -0.65685
 Alpha  occ. eigenvalues --   -0.65582  -0.65015  -0.64848  -0.64362  -0.63411
 Alpha  occ. eigenvalues --   -0.62594  -0.62034  -0.61597  -0.61353  -0.60784
 Alpha  occ. eigenvalues --   -0.60514  -0.60355  -0.60094  -0.59639  -0.59541
 Alpha  occ. eigenvalues --   -0.59370  -0.58933  -0.58857  -0.58594  -0.57828
 Alpha  occ. eigenvalues --   -0.57745  -0.57358  -0.57025  -0.56972  -0.56783
 Alpha  occ. eigenvalues --   -0.55935  -0.55869  -0.55391  -0.55125  -0.54800
 Alpha  occ. eigenvalues --   -0.54773  -0.54472  -0.54157  -0.53831  -0.53647
 Alpha  occ. eigenvalues --   -0.53318  -0.52925  -0.52629  -0.52301  -0.52044
 Alpha  occ. eigenvalues --   -0.51822  -0.51618  -0.51436  -0.51386  -0.51046
 Alpha  occ. eigenvalues --   -0.50846  -0.50417  -0.50303  -0.50266  -0.49934
 Alpha  occ. eigenvalues --   -0.49786  -0.49694  -0.49519  -0.49328  -0.48989
 Alpha  occ. eigenvalues --   -0.48868  -0.48602  -0.48469  -0.48146  -0.48038
 Alpha  occ. eigenvalues --   -0.47886  -0.47695  -0.47635  -0.47353  -0.47210
 Alpha  occ. eigenvalues --   -0.47132  -0.46985  -0.46547  -0.46419  -0.46349
 Alpha  occ. eigenvalues --   -0.45978  -0.45933  -0.45437  -0.45346  -0.44875
 Alpha  occ. eigenvalues --   -0.44652  -0.44552  -0.44374  -0.44084  -0.43641
 Alpha  occ. eigenvalues --   -0.43475  -0.43422  -0.42956  -0.42390  -0.42364
 Alpha  occ. eigenvalues --   -0.42084  -0.42054  -0.41720  -0.41379  -0.41298
 Alpha  occ. eigenvalues --   -0.41122  -0.40837  -0.40676  -0.40348  -0.40316
 Alpha  occ. eigenvalues --   -0.39548  -0.39304  -0.39243  -0.39072  -0.38247
 Alpha  occ. eigenvalues --   -0.38040  -0.37926  -0.37619  -0.37609  -0.37130
 Alpha  occ. eigenvalues --   -0.36947  -0.36684  -0.36426  -0.36394  -0.36053
 Alpha  occ. eigenvalues --   -0.35684  -0.35443  -0.35318  -0.35063  -0.34614
 Alpha  occ. eigenvalues --   -0.34516  -0.34483  -0.34270  -0.34247  -0.33815
 Alpha  occ. eigenvalues --   -0.33622  -0.33161  -0.31851  -0.31584  -0.30222
 Alpha  occ. eigenvalues --   -0.29305  -0.27317  -0.26279  -0.19582  -0.19443
 Alpha  occ. eigenvalues --   -0.17624
 Alpha virt. eigenvalues --   -0.13185  -0.11882  -0.10428  -0.09646  -0.09166
 Alpha virt. eigenvalues --   -0.08178  -0.07532  -0.07269  -0.06793  -0.05730
 Alpha virt. eigenvalues --   -0.04974  -0.04485  -0.03318  -0.03154  -0.03069

 Mulliken charges:
               1
     1  N   -0.766451
     2  H    0.437684
     3  H    0.416456
     4  H    0.418984
     5  C   -0.125900
     6  H    0.233907
     7  C    0.648040
     8  C   -0.027201
     9  H    0.187468
    10  H    0.150424
    11  O   -0.531979
    12  O   -0.675230
    13  H    0.475292
    14  N   -0.565551
    15  H    0.378507
    16  C   -0.095493
    17  H    0.225594
    18  C    0.638659
    19  C   -0.488148
    20  H    0.180088
    21  H    0.175648
    22  H    0.194094
    23  O   -0.555523
    24  N   -0.601467
    25  H    0.364278
    26  C   -0.084416
    27  H    0.190887
    28  C    0.631730
    29  C    0.108913
    30  H    0.156017
    31  O   -0.539199
    32  C   -0.449093
    33  H    0.153037
    34  H    0.150076
    35  H    0.182433
    36  O   -0.645088
    37  H    0.420257
    38  N   -0.640184
    39  H    0.374864
    40  C   -0.032609
    41  H    0.173819
    42  C    0.653607
    43  C   -0.087407
    44  H    0.127751
    45  O   -0.604257
    46  C   -0.463121
    47  H    0.153772
    48  H    0.156874
    49  H    0.166814
    50  C   -0.456602
    51  H    0.171950
    52  H    0.137815
    53  H    0.155875
    54  N   -0.599246
    55  H    0.361272
    56  C   -0.068777
    57  H    0.180671
    58  C    0.664509
    59  C   -0.078028
    60  H    0.144259
    61  O   -0.581093
    62  C   -0.281312
    63  H    0.176154
    64  H    0.147357
    65  C   -0.478525
    66  H    0.193417
    67  H    0.132396
    68  H    0.154272
    69  C   -0.471428
    70  H    0.162518
    71  H    0.152839
    72  H    0.135100
    73  N   -0.630633
    74  H    0.392854
    75  C   -0.030192
    76  H    0.179166
    77  C    0.621346
    78  C   -0.399218
    79  H    0.219027
    80  H    0.209902
    81  O   -0.533024
    82  C    0.596897
    83  O   -0.478146
    84  O   -0.538120
    85  N   -0.624773
    86  H    0.366752
    87  C   -0.036830
    88  H    0.190757
    89  C    0.618458
    90  C   -0.395218
    91  H    0.196412
    92  H    0.182106
    93  O   -0.542528
    94  C    0.320782
    95  C   -0.083248
    96  H    0.212404
    97  N   -0.627259
    98  H    0.408614
    99  C    0.212109
   100  H    0.162807
   101  N   -0.532772
   102  N   -0.587848
   103  H    0.345497
   104  C   -0.096937
   105  H    0.191342
   106  C    0.614966
   107  C   -0.269144
   108  H    0.134543
   109  H    0.184703
   110  O   -0.598599
   111  C   -0.063192
   112  H    0.111985
   113  C   -0.443842
   114  H    0.157106
   115  H    0.136362
   116  H    0.138222
   117  C   -0.470008
   118  H    0.152374
   119  H    0.134020
   120  H    0.165211
   121  N   -0.595718
   122  H    0.363553
   123  C   -0.082718
   124  H    0.141743
   125  C    0.587534
   126  C   -0.255789
   127  H    0.162329
   128  H    0.133238
   129  O   -0.586091
   130  C   -0.262783
   131  H    0.132155
   132  H    0.170839
   133  C   -0.191243
   134  H    0.186153
   135  H    0.153706
   136  N   -0.591453
   137  H    0.397675
   138  N   -0.750732
   139  H    0.368104
   140  H    0.380761
   141  N   -0.780240
   142  H    0.356991
   143  H    0.398647
   144  C    0.777012
   145  O   -0.617395
   146  H    0.425480
 Sum of Mulliken charges =   1.00000

 Dipole moment (field-independent basis, Debye):
    X=            -39.4683    Y=            -15.8943    Z=            -22.0502  Tot=             47.9227
 Quadrupole moment (field-independent basis, Debye-Ang):
   XX=           -545.2532   YY=           -296.2684   ZZ=           -362.9352
   XY=            -70.2961   XZ=             -0.6752   YZ=            -28.5882

 Normal termination of Gaussian 16 at Sun Jun 12 09:16:26 2022.
