 Gaussian 16, Revision C.01,
 Gaussian 16:  ES64L-G16RevC.01  3-Jul-2019

 ----------------------------------------------------------------------
 # B3LYP/6-31G* empiricaldispersion=gd3 guess=read geom=check nosymm in
 tegral(ultrafinegrid)
 ----------------------------------------------------------------------

 ------------------------------------------------------
 Candidate Structure: Conf:961 Charge calc in gas phase
 ------------------------------------------------------
 Structure from the checkpoint file:  "conf-961.chk"
 Charge =  1 Multiplicity = 1

                          Input orientation:
 ---------------------------------------------------------------------
 Center     Atomic      Atomic             Coordinates (Angstroms)
 Number     Number       Type             X           Y           Z
 ---------------------------------------------------------------------
      1          7           0       -6.106081   -3.038185    0.937276
      2          1           0       -5.813474   -4.068644    0.995180
      3          1           0       -5.407076   -2.467195    1.422695
      4          1           0       -7.017219   -2.883640    1.374494
      5          6           0       -6.094673   -2.818798   -0.556806
      6          1           0       -7.122242   -2.668685   -0.897301
      7          6           0       -5.520529   -4.158662   -1.090040
      8          6           0       -5.250186   -1.591364   -0.938614
      9          1           0       -4.195972   -1.790100   -0.696723
     10          1           0       -5.595594   -0.725729   -0.349203
     11          8           0       -5.300813   -5.052787   -0.261935
     12          8           0       -5.453726   -1.396376   -2.315271
     13          1           0       -4.831707   -0.673447   -2.602676
     14          7           0       -5.321233   -4.235441   -2.410843
     15          1           0       -5.391341   -3.333533   -2.886663
     16          6           0       -4.297610   -5.147962   -2.931895
     17          1           0       -4.303687   -6.034360   -2.290844
     18          6           0       -2.943565   -4.412936   -2.719158
     19          6           0       -4.610181   -5.536764   -4.377645
     20          1           0       -3.911826   -6.296609   -4.741577
     21          1           0       -4.557015   -4.669756   -5.045885
     22          1           0       -5.615920   -5.960440   -4.437559
     23          8           0       -2.841990   -3.575757   -1.807061
     24          7           0       -1.948319   -4.673490   -3.575754
     25          1           0       -2.074321   -5.275795   -4.382856
     26          6           0       -0.681715   -3.932131   -3.592683
     27          1           0       -0.371612   -3.715413   -2.567212
     28          6           0       -0.890299   -2.597507   -4.351331
     29          6           0        0.375385   -4.792635   -4.305870
     30          1           0        1.262148   -4.167648   -4.440223
     31          8           0       -0.219442   -2.282574   -5.332385
     32          6           0        0.745674   -6.033934   -3.511597
     33          1           0        1.199616   -5.737839   -2.561255
     34          1           0       -0.131293   -6.659108   -3.310164
     35          1           0        1.464868   -6.628995   -4.080759
     36          8           0       -0.159046   -5.204196   -5.571745
     37          1           0       -0.111597   -4.417697   -6.143123
     38          7           0       -1.887407   -1.819989   -3.849981
     39          1           0       -2.358969   -2.137121   -3.006289
     40          6           0       -2.320957   -0.565085   -4.460271
     41          1           0       -1.495206   -0.221152   -5.092190
     42          6           0       -2.505567    0.378717   -3.261341
     43          6           0       -3.584343   -0.712368   -5.330532
     44          1           0       -4.399617   -1.051098   -4.678194
     45          8           0       -3.591773    0.479721   -2.661103
     46          6           0       -3.972757    0.644866   -5.933400
     47          1           0       -3.170570    1.028948   -6.575983
     48          1           0       -4.178128    1.387159   -5.155528
     49          1           0       -4.872186    0.547836   -6.550055
     50          6           0       -3.374313   -1.769798   -6.422867
     51          1           0       -2.538823   -1.501530   -7.078682
     52          1           0       -3.154181   -2.753912   -5.994909
     53          1           0       -4.275254   -1.861968   -7.038758
     54          7           0       -1.380666    0.978631   -2.850566
     55          1           0       -0.514739    0.785338   -3.348037
     56          6           0       -1.153010    1.567755   -1.531977
     57          1           0       -1.777466    2.460359   -1.424819
     58          6           0        0.333951    1.958033   -1.534864
     59          6           0       -1.500544    0.553683   -0.386925
     60          1           0       -2.547977    0.297470   -0.582305
     61          8           0        1.112552    1.448993   -2.346886
     62          6           0       -1.446893    1.156476    1.030874
     63          1           0       -0.406775    1.352021    1.312598
     64          1           0       -1.781032    0.366872    1.717456
     65          6           0       -0.655532   -0.726192   -0.475196
     66          1           0        0.387005   -0.538130   -0.206195
     67          1           0       -0.678479   -1.162769   -1.476564
     68          1           0       -1.047584   -1.480902    0.215796
     69          6           0       -2.330346    2.392704    1.249446
     70          1           0       -2.355402    2.672527    2.307846
     71          1           0       -1.984010    3.275552    0.695881
     72          1           0       -3.361902    2.206389    0.925191
     73          7           0        0.755562    2.857073   -0.610834
     74          1           0        0.128873    3.089687    0.147495
     75          6           0        2.185709    2.938686   -0.344876
     76          1           0        2.692533    3.145432   -1.289891
     77          6           0        2.665154    1.579655    0.224136
     78          6           0        2.521229    4.076270    0.643052
     79          1           0        2.199981    5.030974    0.217618
     80          1           0        2.035328    3.910583    1.608745
     81          8           0        1.926323    0.898815    0.927181
     82          6           0        4.036493    4.054877    0.779875
     83          8           0        4.774727    4.291666   -0.154723
     84          8           0        4.438759    3.585373    1.967351
     85          7           0        3.927551    1.208910   -0.125153
     86          1           0        4.554320    1.911239   -0.508192
     87          6           0        4.561839    0.047897    0.477141
     88          1           0        3.828877   -0.388276    1.161737
     89          6           0        5.796395    0.505706    1.279853
     90          6           0        4.927879   -1.005505   -0.603894
     91          1           0        5.449745   -1.842660   -0.128600
     92          1           0        5.645384   -0.547532   -1.299014
     93          8           0        6.241466    1.656632    1.197963
     94          6           0        3.746355   -1.550004   -1.342664
     95          6           0        3.210666   -2.817042   -1.410698
     96          1           0        3.558647   -3.707558   -0.903660
     97          7           0        2.956312   -0.794939   -2.191826
     98          1           0        2.958170    0.211862   -2.287954
     99          6           0        2.003188   -1.614783   -2.708545
    100          1           0        1.269746   -1.263557   -3.418477
    101          7           0        2.126282   -2.851901   -2.263822
    102          7           0        6.363030   -0.441399    2.047702
    103          1           0        5.970032   -1.372449    2.134831
    104          6           0        7.522619   -0.180569    2.891913
    105          1           0        8.199326    0.472856    2.335360
    106          6           0        8.173406   -1.537836    3.168908
    107          6           0        7.090450    0.508728    4.211892
    108          1           0        6.496621    1.384590    3.921144
    109          1           0        6.413439   -0.179104    4.735532
    110          8           0        7.483497   -2.569213    3.175587
    111          6           0        8.216865    0.958499    5.162186
    112          1           0        8.812440    0.086320    5.458539
    113          6           0        9.161742    1.977764    4.507824
    114          1           0        8.609965    2.869477    4.183745
    115          1           0        9.935231    2.291676    5.215568
    116          1           0        9.680006    1.579771    3.626467
    117          6           0        7.597597    1.549317    6.437717
    118          1           0        6.999325    2.440506    6.207424
    119          1           0        8.378193    1.843038    7.147481
    120          1           0        6.943490    0.825139    6.937673
    121          7           0        9.498048   -1.515305    3.420376
    122          1           0        9.965110   -0.623110    3.546648
    123          6           0       10.186044   -2.655041    4.007734
    124          1           0        9.408949   -3.357149    4.273184
    125          6           0       10.885839   -2.213045    5.301855
    126          6           0       11.189230   -3.302314    3.028528
    127          1           0       11.869376   -3.948005    3.595173
    128          1           0       11.803683   -2.495136    2.611957
    129          8           0       11.156730   -1.044660    5.504355
    130          6           0       10.535892   -4.104122    1.887191
    131          1           0        9.655395   -3.566033    1.512439
    132          1           0       11.244938   -4.162579    1.051251
    133          6           0       10.140258   -5.553008    2.234924
    134          1           0        9.860182   -6.080468    1.317176
    135          1           0       11.006691   -6.090076    2.635877
    136          7           0        9.022836   -5.706807    3.164467
    137          1           0        8.109634   -5.508960    2.775528
    138          7           0       10.205798   -5.606987    5.243400
    139          1           0       10.821444   -4.089977    5.879896
    140          1           0       10.953438   -6.081544    4.739436
    141          7           0        7.951099   -5.080933    5.111462
    142          1           0        8.046010   -4.922480    6.107261
    143          1           0        7.437048   -4.352571    4.621750
    144          6           0        9.131412   -5.486781    4.516747
    145          8           0       11.189062   -3.185296    6.152552
    146          1           0        5.361178    3.257159    1.850148
 ---------------------------------------------------------------------

 SCF Done:  E(RB3LYP) =  -3503.61808112     A.U. after    2 cycles

 Alpha  occ. eigenvalues --  -19.26613 -19.25731 -19.25498 -19.22657 -19.22349
 Alpha  occ. eigenvalues --  -19.22346 -19.21759 -19.21100 -19.20579 -19.20460
 Alpha  occ. eigenvalues --  -19.20388 -19.20072 -19.20055 -19.17641 -14.59798
 Alpha  occ. eigenvalues --  -14.48169 -14.46349 -14.45911 -14.45609 -14.44476
 Alpha  occ. eigenvalues --  -14.44427 -14.44407 -14.44063 -14.43528 -14.41721
 Alpha  occ. eigenvalues --  -14.40315 -14.37619 -14.35388 -10.42990 -10.39902
 Alpha  occ. eigenvalues --  -10.39427 -10.39043 -10.39006 -10.38958 -10.37383
 Alpha  occ. eigenvalues --  -10.37375 -10.37171 -10.37105 -10.36844 -10.36081
 Alpha  occ. eigenvalues --  -10.35152 -10.34728 -10.32894 -10.32810 -10.31970
 Alpha  occ. eigenvalues --  -10.31572 -10.30912 -10.30681 -10.30196 -10.29708
 Alpha  occ. eigenvalues --  -10.29197 -10.28891 -10.28864 -10.28686 -10.28200
 Alpha  occ. eigenvalues --  -10.28142 -10.27848 -10.27544 -10.26228 -10.26202
 Alpha  occ. eigenvalues --  -10.25835 -10.25510 -10.25199 -10.25043 -10.25026
 Alpha  occ. eigenvalues --  -10.24880 -10.24272 -10.24157 -10.23422 -10.22519
 Alpha  occ. eigenvalues --  -10.22156  -1.19132  -1.16905  -1.14673  -1.14412
 Alpha  occ. eigenvalues --   -1.14174  -1.13514  -1.13270  -1.12956  -1.12442
 Alpha  occ. eigenvalues --   -1.12235  -1.11867  -1.11186  -1.08423  -1.08025
 Alpha  occ. eigenvalues --   -1.07125  -1.05468  -1.05322  -1.04418  -1.02801
 Alpha  occ. eigenvalues --   -1.02473  -1.02245  -1.01051  -1.00880  -1.00556
 Alpha  occ. eigenvalues --   -1.00076  -0.95150  -0.92788  -0.91498  -0.90511
 Alpha  occ. eigenvalues --   -0.90140  -0.88789  -0.88349  -0.87690  -0.87478
 Alpha  occ. eigenvalues --   -0.86175  -0.85756  -0.84431  -0.83290  -0.82348
 Alpha  occ. eigenvalues --   -0.80562  -0.80509  -0.79440  -0.79291  -0.79089
 Alpha  occ. eigenvalues --   -0.77491  -0.76061  -0.75929  -0.75435  -0.74251
 Alpha  occ. eigenvalues --   -0.74001  -0.73547  -0.73205  -0.71846  -0.71743
 Alpha  occ. eigenvalues --   -0.71513  -0.70357  -0.69795  -0.69490  -0.68926
 Alpha  occ. eigenvalues --   -0.67879  -0.67770  -0.67256  -0.67185  -0.67110
 Alpha  occ. eigenvalues --   -0.66804  -0.66772  -0.66002  -0.65979  -0.65743
 Alpha  occ. eigenvalues --   -0.65206  -0.64998  -0.64403  -0.64176  -0.63824
 Alpha  occ. eigenvalues --   -0.63209  -0.62790  -0.62032  -0.61226  -0.61033
 Alpha  occ. eigenvalues --   -0.60606  -0.60338  -0.59834  -0.59294  -0.59069
 Alpha  occ. eigenvalues --   -0.59021  -0.58300  -0.58047  -0.57480  -0.57312
 Alpha  occ. eigenvalues --   -0.57278  -0.56794  -0.56566  -0.56364  -0.55891
 Alpha  occ. eigenvalues --   -0.55699  -0.55346  -0.54937  -0.54826  -0.54560
 Alpha  occ. eigenvalues --   -0.54315  -0.53781  -0.53700  -0.53316  -0.53215
 Alpha  occ. eigenvalues --   -0.53140  -0.52781  -0.52645  -0.52440  -0.52286
 Alpha  occ. eigenvalues --   -0.52111  -0.51572  -0.51166  -0.51130  -0.50969
 Alpha  occ. eigenvalues --   -0.50886  -0.50670  -0.50433  -0.50080  -0.49979
 Alpha  occ. eigenvalues --   -0.49953  -0.49734  -0.49503  -0.49324  -0.49322
 Alpha  occ. eigenvalues --   -0.49026  -0.49008  -0.48711  -0.48429  -0.48070
 Alpha  occ. eigenvalues --   -0.47970  -0.47611  -0.47589  -0.47451  -0.47245
 Alpha  occ. eigenvalues --   -0.47021  -0.46837  -0.46696  -0.46392  -0.46331
 Alpha  occ. eigenvalues --   -0.46028  -0.45923  -0.45732  -0.45698  -0.45526
 Alpha  occ. eigenvalues --   -0.45406  -0.45283  -0.44876  -0.44780  -0.44549
 Alpha  occ. eigenvalues --   -0.44489  -0.44244  -0.44162  -0.43913  -0.43625
 Alpha  occ. eigenvalues --   -0.43249  -0.43168  -0.43031  -0.42499  -0.42332
 Alpha  occ. eigenvalues --   -0.42005  -0.41765  -0.41572  -0.41385  -0.41345
 Alpha  occ. eigenvalues --   -0.41162  -0.41070  -0.40842  -0.40516  -0.39829
 Alpha  occ. eigenvalues --   -0.39567  -0.39397  -0.39085  -0.38283  -0.38219
 Alpha  occ. eigenvalues --   -0.38118  -0.37910  -0.37486  -0.37079  -0.36685
 Alpha  occ. eigenvalues --   -0.36168  -0.36052  -0.35073  -0.34879  -0.34812
 Alpha  occ. eigenvalues --   -0.34650  -0.34616  -0.34349  -0.34326  -0.33928
 Alpha  occ. eigenvalues --   -0.33626  -0.33507  -0.33470  -0.33417  -0.32990
 Alpha  occ. eigenvalues --   -0.32797  -0.32708  -0.32027  -0.31059  -0.29105
 Alpha  occ. eigenvalues --   -0.28387
 Alpha virt. eigenvalues --   -0.12347  -0.10943  -0.09304  -0.08772  -0.08144
 Alpha virt. eigenvalues --   -0.07001  -0.06520  -0.06252  -0.05974  -0.05602
 Alpha virt. eigenvalues --   -0.05483  -0.03879  -0.03480  -0.03343  -0.02373

 Mulliken charges:
               1
     1  N   -0.766484
     2  H    0.437593
     3  H    0.414713
     4  H    0.416798
     5  C   -0.123690
     6  H    0.234688
     7  C    0.652110
     8  C   -0.034240
     9  H    0.186872
    10  H    0.149258
    11  O   -0.534967
    12  O   -0.675118
    13  H    0.475671
    14  N   -0.567483
    15  H    0.378985
    16  C   -0.093770
    17  H    0.223552
    18  C    0.635705
    19  C   -0.490395
    20  H    0.182261
    21  H    0.176151
    22  H    0.191407
    23  O   -0.562232
    24  N   -0.599930
    25  H    0.363832
    26  C   -0.089007
    27  H    0.223473
    28  C    0.637158
    29  C    0.109108
    30  H    0.179866
    31  O   -0.545576
    32  C   -0.455376
    33  H    0.169957
    34  H    0.136222
    35  H    0.170519
    36  O   -0.652037
    37  H    0.414912
    38  N   -0.655143
    39  H    0.378951
    40  C   -0.041102
    41  H    0.182483
    42  C    0.641090
    43  C   -0.079360
    44  H    0.122888
    45  O   -0.587770
    46  C   -0.463849
    47  H    0.154773
    48  H    0.162814
    49  H    0.160672
    50  C   -0.460094
    51  H    0.170554
    52  H    0.136590
    53  H    0.155264
    54  N   -0.613708
    55  H    0.378050
    56  C   -0.047277
    57  H    0.183973
    58  C    0.647155
    59  C   -0.100002
    60  H    0.149945
    61  O   -0.560537
    62  C   -0.291679
    63  H    0.179520
    64  H    0.131325
    65  C   -0.488474
    66  H    0.202656
    67  H    0.147754
    68  H    0.140021
    69  C   -0.467079
    70  H    0.164148
    71  H    0.138339
    72  H    0.146847
    73  N   -0.606719
    74  H    0.353679
    75  C   -0.061461
    76  H    0.205677
    77  C    0.611875
    78  C   -0.349772
    79  H    0.198925
    80  H    0.182435
    81  O   -0.518231
    82  C    0.561009
    83  O   -0.459754
    84  O   -0.568016
    85  N   -0.608448
    86  H    0.366428
    87  C   -0.079708
    88  H    0.204220
    89  C    0.645385
    90  C   -0.363010
    91  H    0.166133
    92  H    0.172583
    93  O   -0.566826
    94  C    0.334952
    95  C   -0.076574
    96  H    0.132126
    97  N   -0.602388
    98  H    0.361013
    99  C    0.220741
   100  H    0.163383
   101  N   -0.472714
   102  N   -0.609570
   103  H    0.353175
   104  C   -0.055378
   105  H    0.186512
   106  C    0.624002
   107  C   -0.254392
   108  H    0.155425
   109  H    0.141386
   110  O   -0.579761
   111  C   -0.104158
   112  H    0.155170
   113  C   -0.448813
   114  H    0.146608
   115  H    0.171407
   116  H    0.128425
   117  C   -0.444681
   118  H    0.141346
   119  H    0.161150
   120  H    0.141642
   121  N   -0.596106
   122  H    0.364308
   123  C   -0.100191
   124  H    0.177460
   125  C    0.612315
   126  C   -0.262418
   127  H    0.155565
   128  H    0.159323
   129  O   -0.478187
   130  C   -0.264091
   131  H    0.150362
   132  H    0.152187
   133  C   -0.160332
   134  H    0.163451
   135  H    0.161176
   136  N   -0.557161
   137  H    0.332483
   138  N   -0.717178
   139  H    0.461742
   140  H    0.296190
   141  N   -0.743970
   142  H    0.346192
   143  H    0.355342
   144  C    0.590548
   145  O   -0.597204
   146  H    0.451512
 Sum of Mulliken charges =   1.00000

 Dipole moment (field-independent basis, Debye):
    X=            -15.1807    Y=            -10.1646    Z=             -1.6461  Tot=             18.3435
 Quadrupole moment (field-independent basis, Debye-Ang):
   XX=           -253.0217   YY=           -371.1558   ZZ=           -417.2245
   XY=             24.2380   XZ=            -20.6752   YZ=             13.3934

 Normal termination of Gaussian 16 at Sun Jun 12 09:22:48 2022.
