 Gaussian 16, Revision C.01,
 Gaussian 16:  ES64L-G16RevC.01  3-Jul-2019

 ----------------------------------------------------------------------
 # B3LYP/6-31G* empiricaldispersion=gd3 guess=read geom=check nosymm in
 tegral(ultrafinegrid)
 ----------------------------------------------------------------------

 ------------------------------------------------------
 Candidate Structure: Conf:472 Charge calc in gas phase
 ------------------------------------------------------
 Structure from the checkpoint file:  "conf-472.chk"
 Charge =  1 Multiplicity = 1

                          Input orientation:
 ---------------------------------------------------------------------
 Center     Atomic      Atomic             Coordinates (Angstroms)
 Number     Number       Type             X           Y           Z
 ---------------------------------------------------------------------
      1          7           0       -6.467778    0.862685   -8.099695
      2          1           0       -6.456702    1.147654   -9.081796
      3          1           0       -7.381936    1.159338   -7.627918
      4          1           0       -5.679098    1.308659   -7.620234
      5          6           0       -6.503141   -0.632953   -7.892897
      6          1           0       -6.549422   -1.126119   -8.866620
      7          6           0       -7.802966   -0.837463   -7.073569
      8          6           0       -5.258261   -1.124910   -7.120948
      9          1           0       -5.270275   -0.698519   -6.110237
     10          1           0       -4.355153   -0.774402   -7.647057
     11          8           0       -8.477541    0.161944   -6.802691
     12          8           0       -5.319090   -2.529309   -7.090159
     13          1           0       -5.012677   -2.810348   -6.189469
     14          7           0       -8.050314   -2.102998   -6.703882
     15          1           0       -7.283874   -2.740975   -6.929489
     16          6           0       -8.712498   -2.383879   -5.416938
     17          1           0       -9.387097   -1.549547   -5.214894
     18          6           0       -7.556195   -2.274981   -4.386837
     19          6           0       -9.481977   -3.699118   -5.474828
     20          1           0       -9.938239   -3.921420   -4.504660
     21          1           0       -8.833809   -4.536686   -5.758479
     22          1           0      -10.281232   -3.630036   -6.217268
     23          8           0       -6.992134   -1.192828   -4.225508
     24          7           0       -7.129929   -3.420862   -3.814396
     25          1           0       -7.683730   -4.268269   -3.840651
     26          6           0       -6.023059   -3.446919   -2.873584
     27          1           0       -6.339700   -3.005779   -1.919247
     28          6           0       -4.807181   -2.686183   -3.426380
     29          6           0       -5.620684   -4.920636   -2.636738
     30          1           0       -5.155264   -5.283923   -3.565997
     31          8           0       -4.425758   -2.815801   -4.598426
     32          6           0       -4.660993   -5.086676   -1.461323
     33          1           0       -3.727759   -4.534769   -1.607151
     34          1           0       -5.131107   -4.736662   -0.536349
     35          1           0       -4.404510   -6.144395   -1.334565
     36          8           0       -6.856100   -5.604830   -2.405091
     37          1           0       -6.669881   -6.551862   -2.310841
     38          7           0       -4.140931   -1.963701   -2.516255
     39          1           0       -4.420504   -1.988732   -1.540362
     40          6           0       -2.824269   -1.376544   -2.733171
     41          1           0       -2.437216   -1.773372   -3.676749
     42          6           0       -1.973855   -1.846882   -1.539288
     43          6           0       -2.898658    0.171684   -2.811788
     44          1           0       -3.323481    0.514520   -1.858100
     45          8           0       -2.495939   -1.991148   -0.432425
     46          6           0       -1.506614    0.797806   -2.983212
     47          1           0       -1.014979    0.425917   -3.891962
     48          1           0       -0.844229    0.587466   -2.138975
     49          1           0       -1.591548    1.885488   -3.076308
     50          6           0       -3.836765    0.602721   -3.948474
     51          1           0       -3.422592    0.288110   -4.916119
     52          1           0       -4.835052    0.167967   -3.838273
     53          1           0       -3.934637    1.694275   -3.961599
     54          7           0       -0.675178   -2.089940   -1.805561
     55          1           0       -0.277038   -1.839814   -2.705378
     56          6           0        0.317821   -2.366625   -0.774218
     57          1           0       -0.117354   -2.077409    0.188284
     58          6           0        1.519235   -1.474533   -1.131872
     59          6           0        0.705612   -3.874833   -0.720954
     60          1           0        1.191516   -4.113189   -1.678833
     61          8           0        1.767811   -1.207816   -2.309447
     62          6           0       -0.561804   -4.745351   -0.593669
     63          1           0       -1.236556   -4.494659   -1.419981
     64          1           0       -1.093204   -4.473575    0.328156
     65          6           0        1.703359   -4.143097    0.415973
     66          1           0        1.256581   -3.901752    1.390064
     67          1           0        2.620612   -3.557630    0.308390
     68          1           0        1.993690   -5.196663    0.438326
     69          6           0       -0.295716   -6.254431   -0.625714
     70          1           0       -1.240331   -6.809348   -0.654697
     71          1           0        0.283393   -6.536024   -1.513958
     72          1           0        0.255276   -6.598729    0.255215
     73          7           0        2.259377   -1.012720   -0.101864
     74          1           0        2.048473   -1.245312    0.862619
     75          6           0        3.452526   -0.217559   -0.306209
     76          1           0        4.033188   -0.635817   -1.134891
     77          6           0        4.261593   -0.262413    0.998968
     78          6           0        3.096371    1.251784   -0.692342
     79          1           0        2.499350    1.198325   -1.606359
     80          1           0        2.521239    1.726812    0.105793
     81          8           0        3.745050   -0.658047    2.054661
     82          6           0        4.385670    1.996059   -0.974073
     83          8           0        5.170113    1.640046   -1.831649
     84          8           0        4.630884    2.976651   -0.090936
     85          7           0        5.521534    0.212041    0.934675
     86          1           0        5.916790    0.564888    0.066732
     87          6           0        6.207032    0.585226    2.153173
     88          1           0        5.438974    0.922702    2.857151
     89          6           0        7.129280    1.791345    1.868684
     90          6           0        6.964886   -0.619230    2.806330
     91          1           0        8.040859   -0.542371    2.626723
     92          1           0        6.620243   -1.532862    2.310131
     93          8           0        7.260469    2.265353    0.734679
     94          6           0        6.711054   -0.710827    4.273366
     95          6           0        7.493426   -0.532104    5.386360
     96          1           0        8.537847   -0.259206    5.427571
     97          7           0        5.443829   -0.980285    4.765800
     98          1           0        4.624267   -1.098169    4.175505
     99          6           0        5.511213   -0.958085    6.122961
    100          1           0        4.656675   -1.142687    6.758845
    101          7           0        6.740501   -0.692313    6.536555
    102          7           0        7.748386    2.221986    2.972415
    103          1           0        7.537494    1.809557    3.881025
    104          6           0        8.757894    3.271971    3.076923
    105          1           0        9.511485    3.122031    2.298825
    106          6           0        9.363809    3.054985    4.474069
    107          6           0        8.130662    4.680104    2.944950
    108          1           0        7.591923    4.693764    1.988517
    109          1           0        7.379470    4.780695    3.739985
    110          8           0        8.665156    2.458250    5.332264
    111          6           0        9.108766    5.871558    2.995496
    112          1           0        9.652719    5.861072    3.948114
    113          6           0       10.150762    5.821602    1.868206
    114          1           0        9.664345    5.814867    0.883546
    115          1           0       10.809749    6.693506    1.922568
    116          1           0       10.796284    4.938181    1.929248
    117          6           0        8.310796    7.182124    2.929783
    118          1           0        7.760791    7.261516    1.982347
    119          1           0        8.980039    8.045967    3.003142
    120          1           0        7.583307    7.250450    3.747797
    121          7           0       10.577721    3.513967    4.715692
    122          1           0       11.074890    4.203802    4.123208
    123          6           0       11.136436    3.607505    6.058710
    124          1           0       10.310331    3.763979    6.759732
    125          6           0       12.030404    4.911403    6.072442
    126          6           0       11.920155    2.330568    6.423341
    127          1           0       12.823681    2.308235    5.803710
    128          1           0       11.322600    1.452025    6.135458
    129          8           0       12.498032    5.207898    7.186546
    130          6           0       12.310837    2.240914    7.913678
    131          1           0       13.294117    1.768490    8.023901
    132          1           0       12.411230    3.259957    8.305338
    133          6           0       11.336431    1.408503    8.756293
    134          1           0       11.308262    0.378130    8.383327
    135          1           0       11.652245    1.381185    9.805954
    136          7           0        9.966448    1.943801    8.673992
    137          1           0        9.890094    2.952196    8.609158
    138          7           0        8.749994   -0.052776    8.578918
    139          1           0        7.999669   -0.555528    8.090195
    140          1           0        9.431215   -0.555551    9.126802
    141          7           0        7.798340    1.943857    7.868241
    142          1           0        7.007160    1.347140    7.642963
    143          1           0        8.055422    2.532672    7.066339
    144          6           0        8.858274    1.265037    8.369453
    145          8           0       12.137509    5.470087    4.946115
    146          1           0        5.590373    3.185337   -0.149039
 ---------------------------------------------------------------------

 SCF Done:  E(RB3LYP) =  -3503.57858583     A.U. after    3 cycles

 Alpha  occ. eigenvalues --  -19.26675 -19.25971 -19.25237 -19.24703 -19.22604
 Alpha  occ. eigenvalues --  -19.22155 -19.20930 -19.20189 -19.19650 -19.19464
 Alpha  occ. eigenvalues --  -19.18343 -19.16881 -19.07070 -19.06128 -14.59890
 Alpha  occ. eigenvalues --  -14.48381 -14.46826 -14.46256 -14.46159 -14.44548
 Alpha  occ. eigenvalues --  -14.44357 -14.44311 -14.44095 -14.43809 -14.41791
 Alpha  occ. eigenvalues --  -14.41484 -14.40144 -14.38512 -10.43013 -10.40106
 Alpha  occ. eigenvalues --  -10.39867 -10.39770 -10.39406 -10.37959 -10.37524
 Alpha  occ. eigenvalues --  -10.37306 -10.37109 -10.36750 -10.35497 -10.34714
 Alpha  occ. eigenvalues --  -10.34672 -10.33914 -10.33135 -10.32244 -10.32102
 Alpha  occ. eigenvalues --  -10.31919 -10.31065 -10.30892 -10.29275 -10.28970
 Alpha  occ. eigenvalues --  -10.28839 -10.28413 -10.28090 -10.27488 -10.27152
 Alpha  occ. eigenvalues --  -10.27097 -10.27060 -10.26932 -10.26098 -10.25737
 Alpha  occ. eigenvalues --  -10.25082 -10.24942 -10.24636 -10.24061 -10.23005
 Alpha  occ. eigenvalues --  -10.22364 -10.21863 -10.21411 -10.21281 -10.19647
 Alpha  occ. eigenvalues --  -10.19367  -1.19130  -1.15957  -1.15099  -1.14203
 Alpha  occ. eigenvalues --   -1.13480  -1.13250  -1.12638  -1.12571  -1.12202
 Alpha  occ. eigenvalues --   -1.11334  -1.09930  -1.09004  -1.08801  -1.08011
 Alpha  occ. eigenvalues --   -1.07021  -1.05702  -1.03090  -1.02745  -1.01073
 Alpha  occ. eigenvalues --   -1.00746  -1.00502  -1.00261  -0.98596  -0.98452
 Alpha  occ. eigenvalues --   -0.96323  -0.95268  -0.94712  -0.91664  -0.91452
 Alpha  occ. eigenvalues --   -0.90223  -0.88744  -0.88213  -0.87536  -0.86680
 Alpha  occ. eigenvalues --   -0.85731  -0.84405  -0.83269  -0.82417  -0.81227
 Alpha  occ. eigenvalues --   -0.81054  -0.79434  -0.79348  -0.78959  -0.77711
 Alpha  occ. eigenvalues --   -0.76978  -0.76862  -0.76097  -0.75809  -0.74202
 Alpha  occ. eigenvalues --   -0.73469  -0.72046  -0.71834  -0.71731  -0.70865
 Alpha  occ. eigenvalues --   -0.70623  -0.70466  -0.70048  -0.69701  -0.69176
 Alpha  occ. eigenvalues --   -0.68867  -0.68754  -0.68065  -0.66831  -0.66700
 Alpha  occ. eigenvalues --   -0.66429  -0.66246  -0.66159  -0.65727  -0.65224
 Alpha  occ. eigenvalues --   -0.64799  -0.64511  -0.64368  -0.63601  -0.63332
 Alpha  occ. eigenvalues --   -0.63014  -0.62002  -0.61427  -0.61066  -0.60654
 Alpha  occ. eigenvalues --   -0.60430  -0.60151  -0.59240  -0.58987  -0.58330
 Alpha  occ. eigenvalues --   -0.58066  -0.58010  -0.57877  -0.57566  -0.57181
 Alpha  occ. eigenvalues --   -0.56777  -0.56576  -0.55890  -0.55719  -0.55380
 Alpha  occ. eigenvalues --   -0.54917  -0.54547  -0.54374  -0.54178  -0.53593
 Alpha  occ. eigenvalues --   -0.53459  -0.53270  -0.53199  -0.53067  -0.53044
 Alpha  occ. eigenvalues --   -0.52556  -0.52487  -0.52379  -0.51942  -0.51751
 Alpha  occ. eigenvalues --   -0.51714  -0.51671  -0.51423  -0.51131  -0.50723
 Alpha  occ. eigenvalues --   -0.50362  -0.50071  -0.49928  -0.49604  -0.49437
 Alpha  occ. eigenvalues --   -0.49240  -0.49056  -0.48877  -0.48844  -0.48615
 Alpha  occ. eigenvalues --   -0.48565  -0.48311  -0.48300  -0.48159  -0.47769
 Alpha  occ. eigenvalues --   -0.47587  -0.47482  -0.47303  -0.47206  -0.46846
 Alpha  occ. eigenvalues --   -0.46609  -0.46557  -0.46547  -0.46270  -0.45909
 Alpha  occ. eigenvalues --   -0.45683  -0.45465  -0.45088  -0.45013  -0.44864
 Alpha  occ. eigenvalues --   -0.44797  -0.44710  -0.44665  -0.44022  -0.43689
 Alpha  occ. eigenvalues --   -0.43413  -0.43268  -0.43023  -0.42692  -0.42471
 Alpha  occ. eigenvalues --   -0.42221  -0.41832  -0.41827  -0.41390  -0.40601
 Alpha  occ. eigenvalues --   -0.40560  -0.40430  -0.40420  -0.40108  -0.39622
 Alpha  occ. eigenvalues --   -0.39409  -0.39172  -0.38912  -0.38617  -0.37905
 Alpha  occ. eigenvalues --   -0.37758  -0.37384  -0.37342  -0.37285  -0.36708
 Alpha  occ. eigenvalues --   -0.36430  -0.36240  -0.36182  -0.36155  -0.35941
 Alpha  occ. eigenvalues --   -0.35409  -0.35301  -0.35239  -0.35196  -0.35011
 Alpha  occ. eigenvalues --   -0.34725  -0.34415  -0.34348  -0.33750  -0.33453
 Alpha  occ. eigenvalues --   -0.32900  -0.32820  -0.32682  -0.32154  -0.31677
 Alpha  occ. eigenvalues --   -0.30766  -0.29888  -0.29371  -0.22185  -0.21904
 Alpha  occ. eigenvalues --   -0.20328
 Alpha virt. eigenvalues --   -0.13035  -0.11066  -0.08732  -0.07955  -0.07570
 Alpha virt. eigenvalues --   -0.06431  -0.05830  -0.05738  -0.05593  -0.05168
 Alpha virt. eigenvalues --   -0.04643  -0.04166  -0.03008  -0.02431  -0.02243

 Mulliken charges:
               1
     1  N   -0.765852
     2  H    0.417668
     3  H    0.437191
     4  H    0.416248
     5  C   -0.124023
     6  H    0.231489
     7  C    0.643608
     8  C   -0.050777
     9  H    0.201015
    10  H    0.152276
    11  O   -0.523046
    12  O   -0.655141
    13  H    0.466563
    14  N   -0.573526
    15  H    0.372104
    16  C   -0.072464
    17  H    0.218735
    18  C    0.614861
    19  C   -0.486045
    20  H    0.182894
    21  H    0.161795
    22  H    0.193060
    23  O   -0.527892
    24  N   -0.631438
    25  H    0.371967
    26  C   -0.018229
    27  H    0.175344
    28  C    0.662960
    29  C    0.112635
    30  H    0.152167
    31  O   -0.594281
    32  C   -0.489050
    33  H    0.178743
    34  H    0.175102
    35  H    0.161130
    36  O   -0.641300
    37  H    0.414020
    38  N   -0.587126
    39  H    0.361206
    40  C   -0.068581
    41  H    0.173444
    42  C    0.624412
    43  C   -0.068402
    44  H    0.151467
    45  O   -0.547973
    46  C   -0.469135
    47  H    0.148868
    48  H    0.165360
    49  H    0.160699
    50  C   -0.484939
    51  H    0.125688
    52  H    0.196141
    53  H    0.149318
    54  N   -0.604138
    55  H    0.356857
    56  C   -0.061211
    57  H    0.175516
    58  C    0.626462
    59  C   -0.071123
    60  H    0.139785
    61  O   -0.544449
    62  C   -0.257142
    63  H    0.135879
    64  H    0.149197
    65  C   -0.476589
    66  H    0.144826
    67  H    0.156823
    68  H    0.167525
    69  C   -0.452868
    70  H    0.142848
    71  H    0.148593
    72  H    0.156331
    73  N   -0.620151
    74  H    0.357602
    75  C   -0.053557
    76  H    0.213174
    77  C    0.614470
    78  C   -0.327971
    79  H    0.208240
    80  H    0.173774
    81  O   -0.565812
    82  C    0.551884
    83  O   -0.460423
    84  O   -0.566385
    85  N   -0.616193
    86  H    0.380541
    87  C   -0.055091
    88  H    0.191578
    89  C    0.617868
    90  C   -0.357254
    91  H    0.188201
    92  H    0.183917
    93  O   -0.564243
    94  C    0.291694
    95  C   -0.054364
    96  H    0.167633
    97  N   -0.601718
    98  H    0.373279
    99  C    0.226823
   100  H    0.178660
   101  N   -0.509399
   102  N   -0.631794
   103  H    0.372485
   104  C   -0.037525
   105  H    0.181771
   106  C    0.612291
   107  C   -0.254988
   108  H    0.150508
   109  H    0.132990
   110  O   -0.623108
   111  C   -0.099768
   112  H    0.167978
   113  C   -0.446468
   114  H    0.133185
   115  H    0.170748
   116  H    0.141222
   117  C   -0.444706
   118  H    0.132082
   119  H    0.159706
   120  H    0.136438
   121  N   -0.594271
   122  H    0.383697
   123  C   -0.078655
   124  H    0.103389
   125  C    0.595103
   126  C   -0.255611
   127  H    0.161998
   128  H    0.116393
   129  O   -0.576234
   130  C   -0.306511
   131  H    0.152234
   132  H    0.217431
   133  C   -0.157616
   134  H    0.148871
   135  H    0.173602
   136  N   -0.572674
   137  H    0.375989
   138  N   -0.771624
   139  H    0.405675
   140  H    0.360792
   141  N   -0.754130
   142  H    0.356824
   143  H    0.393045
   144  C    0.738654
   145  O   -0.603125
   146  H    0.442845
 Sum of Mulliken charges =   1.00000

 Dipole moment (field-independent basis, Debye):
    X=            -29.9188    Y=            -17.8320    Z=            -19.8819  Tot=             40.1049
 Quadrupole moment (field-independent basis, Debye-Ang):
   XX=           -384.6744   YY=           -424.4845   ZZ=           -152.0528
   XY=           -103.7102   XZ=            191.2479   YZ=            -65.8136

 Normal termination of Gaussian 16 at Sun Jun 12 09:23:22 2022.
