 Gaussian 16, Revision C.01,
 Gaussian 16:  ES64L-G16RevC.01  3-Jul-2019

 ----------------------------------------------------------------------
 # B3LYP/6-31G* empiricaldispersion=gd3 guess=read geom=check nosymm in
 tegral(ultrafinegrid)
 ----------------------------------------------------------------------

 ------------------------------------------------------
 Candidate Structure: Conf:334 Charge calc in gas phase
 ------------------------------------------------------
 Structure from the checkpoint file:  "conf-334.chk"
 Charge =  1 Multiplicity = 1

                          Input orientation:
 ---------------------------------------------------------------------
 Center     Atomic      Atomic             Coordinates (Angstroms)
 Number     Number       Type             X           Y           Z
 ---------------------------------------------------------------------
      1          7           0       -7.730359    1.124076   -1.259825
      2          1           0       -8.257293    1.997872   -1.192841
      3          1           0       -8.390270    0.282708   -1.323985
      4          1           0       -7.144283    1.030672   -0.424271
      5          6           0       -6.944378    0.977995   -2.541428
      6          1           0       -7.165972    1.828949   -3.190147
      7          6           0       -7.499669   -0.341897   -3.135454
      8          6           0       -5.429733    0.926352   -2.270036
      9          1           0       -5.194571    0.012381   -1.707554
     10          1           0       -5.149634    1.804055   -1.663290
     11          8           0       -8.403067   -0.915166   -2.512845
     12          8           0       -4.805456    0.944536   -3.528387
     13          1           0       -3.868949    0.634780   -3.386337
     14          7           0       -6.947273   -0.744436   -4.286359
     15          1           0       -6.088044   -0.239780   -4.516499
     16          6           0       -6.951602   -2.168547   -4.630648
     17          1           0       -7.889757   -2.586611   -4.253397
     18          6           0       -5.788735   -2.799176   -3.814846
     19          6           0       -6.861191   -2.355988   -6.146363
     20          1           0       -6.968941   -3.409440   -6.422469
     21          1           0       -5.905277   -1.992016   -6.538818
     22          1           0       -7.669594   -1.805844   -6.634592
     23          8           0       -5.402529   -2.252636   -2.771975
     24          7           0       -5.219242   -3.914080   -4.298812
     25          1           0       -5.466539   -4.304096   -5.202088
     26          6           0       -4.029805   -4.523694   -3.696128
     27          1           0       -4.106196   -4.419137   -2.609601
     28          6           0       -2.780361   -3.765594   -4.214943
     29          6           0       -3.976832   -6.004480   -4.120990
     30          1           0       -3.009198   -6.404738   -3.791759
     31          8           0       -1.957170   -4.301404   -4.956378
     32          6           0       -5.108794   -6.829238   -3.526486
     33          1           0       -5.059904   -6.826899   -2.432385
     34          1           0       -6.083692   -6.435130   -3.831698
     35          1           0       -5.032357   -7.860431   -3.880692
     36          8           0       -4.083990   -6.070550   -5.543292
     37          1           0       -3.237170   -5.721802   -5.879503
     38          7           0       -2.719391   -2.464295   -3.837985
     39          1           0       -3.455960   -2.094431   -3.242024
     40          6           0       -1.765314   -1.518645   -4.406653
     41          1           0       -0.871884   -2.085752   -4.685198
     42          6           0       -1.457503   -0.511080   -3.299702
     43          6           0       -2.308843   -0.783100   -5.661968
     44          1           0       -3.209196   -0.237369   -5.346423
     45          8           0       -2.373887    0.163890   -2.783916
     46          6           0       -1.277502    0.233558   -6.174014
     47          1           0       -0.340966   -0.266502   -6.450569
     48          1           0       -1.044789    0.998637   -5.425451
     49          1           0       -1.655117    0.745490   -7.064860
     50          6           0       -2.706286   -1.768023   -6.768930
     51          1           0       -1.851762   -2.373991   -7.086740
     52          1           0       -3.490965   -2.455688   -6.438889
     53          1           0       -3.081831   -1.220315   -7.640431
     54          7           0       -0.185861   -0.394152   -2.919188
     55          1           0        0.552943   -0.947560   -3.344843
     56          6           0        0.266769    0.535782   -1.890238
     57          1           0       -0.263522    1.480513   -2.041289
     58          6           0        1.770652    0.715031   -2.134971
     59          6           0       -0.057581   -0.011956   -0.463712
     60          1           0       -1.129628   -0.246082   -0.512031
     61          8           0        2.418084   -0.133027   -2.742889
     62          6           0        0.138022    1.024483    0.660689
     63          1           0        1.207601    1.223562    0.796040
     64          1           0       -0.185606    0.543350    1.592546
     65          6           0        0.723274   -1.298158   -0.159302
     66          1           0        1.791023   -1.090356   -0.038167
     67          1           0        0.603232   -2.042526   -0.953453
     68          1           0        0.360458   -1.743038    0.773549
     69          6           0       -0.651299    2.329629    0.489007
     70          1           0       -0.594062    2.941383    1.395353
     71          1           0       -0.282687    2.951006   -0.338192
     72          1           0       -1.709788    2.125821    0.283996
     73          7           0        2.326598    1.857263   -1.645895
     74          1           0        1.786106    2.383679   -0.972351
     75          6           0        3.771783    1.952797   -1.529554
     76          1           0        4.213547    1.708029   -2.497826
     77          6           0        4.288096    0.972333   -0.449595
     78          6           0        4.154811    3.400218   -1.140430
     79          1           0        3.816253    4.076422   -1.932821
     80          1           0        3.670837    3.683204   -0.200913
     81          8           0        3.587917    0.657789    0.511699
     82          6           0        5.664614    3.520066   -0.995187
     83          8           0        6.446159    3.107273   -1.830721
     84          8           0        6.019601    4.050523    0.179159
     85          7           0        5.577186    0.568817   -0.604068
     86          1           0        6.114776    1.015232   -1.341092
     87          6           0        6.349000    0.104851    0.554662
     88          1           0        5.721844   -0.605778    1.099446
     89          6           0        6.658456    1.342379    1.427504
     90          6           0        7.648040   -0.558314    0.090298
     91          1           0        8.224825    0.194353   -0.460817
     92          1           0        7.392544   -1.360820   -0.611444
     93          8           0        7.666006    2.024249    1.219454
     94          6           0        8.509480   -1.101436    1.199910
     95          6           0        9.717447   -1.759567    1.132693
     96          1           0       10.274288   -2.040043    0.249113
     97          7           0        8.236579   -0.997848    2.549482
     98          1           0        7.538453   -0.425535    3.054940
     99          6           0        9.262321   -1.562413    3.226185
    100          1           0        9.283170   -1.597451    4.306372
    101          7           0       10.183593   -2.043315    2.400330
    102          7           0        5.739000    1.635936    2.369977
    103          1           0        4.968847    0.992111    2.497625
    104          6           0        6.074190    2.533675    3.470259
    105          1           0        6.471549    3.454253    3.038570
    106          6           0        7.163404    1.843239    4.319570
    107          6           0        4.818802    2.826980    4.308185
    108          1           0        4.030663    3.175306    3.624738
    109          1           0        4.473833    1.876846    4.741303
    110          8           0        7.176664    0.594977    4.416018
    111          6           0        5.004850    3.863461    5.435715
    112          1           0        5.818688    3.532288    6.092511
    113          6           0        5.380915    5.252202    4.898745
    114          1           0        4.612808    5.625378    4.207247
    115          1           0        5.476597    5.965266    5.723348
    116          1           0        6.341863    5.255083    4.374704
    117          6           0        3.721321    3.939815    6.274866
    118          1           0        2.873254    4.281648    5.665680
    119          1           0        3.841534    4.644520    7.104669
    120          1           0        3.459302    2.962615    6.698385
    121          7           0        8.024438    2.646240    4.919483
    122          1           0        7.909913    3.671732    5.006329
    123          6           0        9.037559    2.240430    5.880255
    124          1           0        8.609763    1.499752    6.567445
    125          6           0        9.404731    3.557570    6.687260
    126          6           0       10.258143    1.625900    5.170648
    127          1           0       10.811774    2.425130    4.659368
    128          1           0        9.891761    0.939174    4.393496
    129          8           0        8.704766    4.560441    6.376972
    130          6           0       11.178425    0.906729    6.163042
    131          1           0       11.364301    1.607190    6.985281
    132          1           0       10.668672    0.029029    6.585135
    133          6           0       12.517280    0.472979    5.573221
    134          1           0       13.063872    1.344790    5.190459
    135          1           0       13.123789   -0.001813    6.353579
    136          7           0       12.334615   -0.505583    4.481968
    137          1           0       11.462395   -0.464909    3.964571
    138          7           0       14.486227   -1.389764    4.548998
    139          1           0       15.046475   -2.228998    4.540421
    140          1           0       14.785207   -0.648440    5.164094
    141          7           0       12.840664   -2.407162    3.261283
    142          1           0       13.551463   -2.914641    2.753992
    143          1           0       11.856066   -2.422570    2.898084
    144          6           0       13.212131   -1.428074    4.093887
    145          8           0       10.335959    3.440332    7.506138
    146          1           0        6.968256    3.847245    0.337939
 ---------------------------------------------------------------------

 SCF Done:  E(RB3LYP) =  -3503.58376952     A.U. after    3 cycles

 Alpha  occ. eigenvalues --  -19.26830 -19.25710 -19.25637 -19.22901 -19.22529
 Alpha  occ. eigenvalues --  -19.21953 -19.20954 -19.20552 -19.20470 -19.19719
 Alpha  occ. eigenvalues --  -19.17703 -19.14857 -19.06383 -19.05508 -14.59989
 Alpha  occ. eigenvalues --  -14.48367 -14.47045 -14.46580 -14.45951 -14.45505
 Alpha  occ. eigenvalues --  -14.44736 -14.44634 -14.43960 -14.43494 -14.43335
 Alpha  occ. eigenvalues --  -14.41535 -14.38869 -14.36978 -10.43170 -10.41926
 Alpha  occ. eigenvalues --  -10.40031 -10.39975 -10.39123 -10.39025 -10.37896
 Alpha  occ. eigenvalues --  -10.37398 -10.37156 -10.36439 -10.35093 -10.34540
 Alpha  occ. eigenvalues --  -10.32377 -10.32326 -10.32012 -10.31947 -10.31860
 Alpha  occ. eigenvalues --  -10.31385 -10.30427 -10.29667 -10.29315 -10.29220
 Alpha  occ. eigenvalues --  -10.28353 -10.28338 -10.27994 -10.27239 -10.27127
 Alpha  occ. eigenvalues --  -10.26490 -10.25693 -10.25562 -10.25530 -10.25504
 Alpha  occ. eigenvalues --  -10.25293 -10.25011 -10.24477 -10.23717 -10.22983
 Alpha  occ. eigenvalues --  -10.21971 -10.21918 -10.21746 -10.21066 -10.20357
 Alpha  occ. eigenvalues --  -10.19725  -1.19310  -1.16899  -1.14980  -1.14423
 Alpha  occ. eigenvalues --   -1.13779  -1.13156  -1.12783  -1.12513  -1.11330
 Alpha  occ. eigenvalues --   -1.10433  -1.09569  -1.09454  -1.08042  -1.07010
 Alpha  occ. eigenvalues --   -1.05958  -1.05743  -1.03150  -1.02378  -1.01350
 Alpha  occ. eigenvalues --   -1.01272  -1.00146  -0.99795  -0.99529  -0.98267
 Alpha  occ. eigenvalues --   -0.97925  -0.94061  -0.92689  -0.91732  -0.90693
 Alpha  occ. eigenvalues --   -0.89930  -0.88826  -0.88116  -0.87191  -0.85481
 Alpha  occ. eigenvalues --   -0.85369  -0.84709  -0.83774  -0.82863  -0.80801
 Alpha  occ. eigenvalues --   -0.80492  -0.79450  -0.79201  -0.78653  -0.77939
 Alpha  occ. eigenvalues --   -0.77019  -0.76656  -0.76032  -0.75451  -0.74334
 Alpha  occ. eigenvalues --   -0.72964  -0.72097  -0.72031  -0.71131  -0.71020
 Alpha  occ. eigenvalues --   -0.70659  -0.70615  -0.70039  -0.69469  -0.68751
 Alpha  occ. eigenvalues --   -0.68489  -0.67889  -0.67691  -0.67102  -0.67061
 Alpha  occ. eigenvalues --   -0.66378  -0.66195  -0.66081  -0.65799  -0.65088
 Alpha  occ. eigenvalues --   -0.64725  -0.64546  -0.64104  -0.63723  -0.63340
 Alpha  occ. eigenvalues --   -0.62094  -0.61797  -0.60930  -0.60649  -0.59939
 Alpha  occ. eigenvalues --   -0.59671  -0.59556  -0.59499  -0.59018  -0.58822
 Alpha  occ. eigenvalues --   -0.58509  -0.58026  -0.57831  -0.57636  -0.57342
 Alpha  occ. eigenvalues --   -0.57044  -0.56287  -0.56144  -0.55873  -0.55645
 Alpha  occ. eigenvalues --   -0.55386  -0.55159  -0.55045  -0.54794  -0.54344
 Alpha  occ. eigenvalues --   -0.54127  -0.53781  -0.53477  -0.53061  -0.52918
 Alpha  occ. eigenvalues --   -0.52830  -0.52595  -0.52029  -0.51857  -0.51788
 Alpha  occ. eigenvalues --   -0.50976  -0.50722  -0.50640  -0.50503  -0.50484
 Alpha  occ. eigenvalues --   -0.50158  -0.49999  -0.49522  -0.49436  -0.49387
 Alpha  occ. eigenvalues --   -0.49199  -0.49116  -0.48794  -0.48709  -0.48476
 Alpha  occ. eigenvalues --   -0.48110  -0.47965  -0.47730  -0.47513  -0.47119
 Alpha  occ. eigenvalues --   -0.47029  -0.46955  -0.46819  -0.46705  -0.46383
 Alpha  occ. eigenvalues --   -0.46193  -0.46110  -0.46020  -0.45999  -0.45894
 Alpha  occ. eigenvalues --   -0.45495  -0.45393  -0.45054  -0.44720  -0.44585
 Alpha  occ. eigenvalues --   -0.44341  -0.44185  -0.44006  -0.43557  -0.43424
 Alpha  occ. eigenvalues --   -0.43346  -0.43316  -0.43255  -0.42640  -0.42247
 Alpha  occ. eigenvalues --   -0.41767  -0.41711  -0.41594  -0.41109  -0.41055
 Alpha  occ. eigenvalues --   -0.41011  -0.40408  -0.40117  -0.39999  -0.39670
 Alpha  occ. eigenvalues --   -0.39495  -0.38812  -0.38771  -0.38375  -0.38260
 Alpha  occ. eigenvalues --   -0.38084  -0.37415  -0.37093  -0.36913  -0.36767
 Alpha  occ. eigenvalues --   -0.36692  -0.36075  -0.35923  -0.35848  -0.35567
 Alpha  occ. eigenvalues --   -0.35458  -0.35357  -0.35353  -0.34979  -0.34770
 Alpha  occ. eigenvalues --   -0.34452  -0.34274  -0.33971  -0.33922  -0.33847
 Alpha  occ. eigenvalues --   -0.33790  -0.33397  -0.32783  -0.31618  -0.30440
 Alpha  occ. eigenvalues --   -0.29051  -0.28037  -0.27763  -0.21587  -0.21246
 Alpha  occ. eigenvalues --   -0.19750
 Alpha virt. eigenvalues --   -0.12435  -0.11129  -0.09465  -0.08462  -0.07060
 Alpha virt. eigenvalues --   -0.06841  -0.06317  -0.06165  -0.06071  -0.05825
 Alpha virt. eigenvalues --   -0.04317  -0.03621  -0.03090  -0.02479  -0.02226

 Mulliken charges:
               1
     1  N   -0.766530
     2  H    0.417791
     3  H    0.437232
     4  H    0.415908
     5  C   -0.125851
     6  H    0.233084
     7  C    0.648624
     8  C   -0.026195
     9  H    0.187343
    10  H    0.147912
    11  O   -0.533660
    12  O   -0.675379
    13  H    0.475665
    14  N   -0.566072
    15  H    0.379216
    16  C   -0.095326
    17  H    0.224093
    18  C    0.639056
    19  C   -0.488565
    20  H    0.179920
    21  H    0.176993
    22  H    0.192397
    23  O   -0.556391
    24  N   -0.600899
    25  H    0.363860
    26  C   -0.085188
    27  H    0.189791
    28  C    0.632835
    29  C    0.108907
    30  H    0.159444
    31  O   -0.534653
    32  C   -0.449062
    33  H    0.152109
    34  H    0.148572
    35  H    0.181906
    36  O   -0.646261
    37  H    0.421601
    38  N   -0.641724
    39  H    0.372684
    40  C   -0.032275
    41  H    0.181574
    42  C    0.652417
    43  C   -0.087151
    44  H    0.124563
    45  O   -0.610461
    46  C   -0.463744
    47  H    0.159984
    48  H    0.155426
    49  H    0.163694
    50  C   -0.456447
    51  H    0.175298
    52  H    0.136508
    53  H    0.153180
    54  N   -0.600633
    55  H    0.371105
    56  C   -0.069891
    57  H    0.176863
    58  C    0.640611
    59  C   -0.075790
    60  H    0.145278
    61  O   -0.534080
    62  C   -0.293540
    63  H    0.176273
    64  H    0.148593
    65  C   -0.475558
    66  H    0.191253
    67  H    0.142201
    68  H    0.150385
    69  C   -0.463587
    70  H    0.164211
    71  H    0.132189
    72  H    0.141666
    73  N   -0.611710
    74  H    0.349198
    75  C   -0.059075
    76  H    0.205706
    77  C    0.626891
    78  C   -0.369160
    79  H    0.202240
    80  H    0.185253
    81  O   -0.537216
    82  C    0.583411
    83  O   -0.471533
    84  O   -0.556274
    85  N   -0.602958
    86  H    0.369251
    87  C   -0.058443
    88  H    0.177746
    89  C    0.611573
    90  C   -0.357358
    91  H    0.194625
    92  H    0.177428
    93  O   -0.566035
    94  C    0.339935
    95  C   -0.066756
    96  H    0.140892
    97  N   -0.629605
    98  H    0.407217
    99  C    0.203199
   100  H    0.186569
   101  N   -0.512812
   102  N   -0.585859
   103  H    0.350702
   104  C   -0.038052
   105  H    0.174099
   106  C    0.636787
   107  C   -0.286272
   108  H    0.134744
   109  H    0.141686
   110  O   -0.619037
   111  C   -0.091044
   112  H    0.168663
   113  C   -0.445166
   114  H    0.121353
   115  H    0.169007
   116  H    0.156636
   117  C   -0.444110
   118  H    0.126220
   119  H    0.157785
   120  H    0.139041
   121  N   -0.599503
   122  H    0.378146
   123  C   -0.065527
   124  H    0.147248
   125  C    0.584715
   126  C   -0.277796
   127  H    0.146996
   128  H    0.124309
   129  O   -0.608559
   130  C   -0.306343
   131  H    0.232845
   132  H    0.133555
   133  C   -0.160447
   134  H    0.181858
   135  H    0.157029
   136  N   -0.613441
   137  H    0.381505
   138  N   -0.763331
   139  H    0.367442
   140  H    0.380273
   141  N   -0.795500
   142  H    0.349192
   143  H    0.421505
   144  C    0.793581
   145  O   -0.580358
   146  H    0.445916
 Sum of Mulliken charges =   1.00000

 Dipole moment (field-independent basis, Debye):
    X=            -13.1887    Y=             -8.8410    Z=            -14.7102  Tot=             21.6448
 Quadrupole moment (field-independent basis, Debye-Ang):
   XX=             30.6758   YY=           -428.4939   ZZ=           -448.5554
   XY=           -160.6691   XZ=             46.0456   YZ=            -75.7261

 Normal termination of Gaussian 16 at Sun Jun 12 09:23:38 2022.
