 Gaussian 16, Revision C.01,
 Gaussian 16:  ES64L-G16RevC.01  3-Jul-2019

 ----------------------------------------------------------------------
 # B3LYP/6-31G* empiricaldispersion=gd3 guess=read geom=check nosymm in
 tegral(ultrafinegrid)
 ----------------------------------------------------------------------

 ------------------------------------------------------
 Candidate Structure: Conf:112 Charge calc in gas phase
 ------------------------------------------------------
 Structure from the checkpoint file:  "conf-112.chk"
 Charge =  1 Multiplicity = 1

                          Input orientation:
 ---------------------------------------------------------------------
 Center     Atomic      Atomic             Coordinates (Angstroms)
 Number     Number       Type             X           Y           Z
 ---------------------------------------------------------------------
      1          7           0       -8.140955    1.228524   -9.367151
      2          1           0       -7.482054    1.780188   -9.923650
      3          1           0       -8.215926    0.276512   -9.801458
      4          1           0       -9.046105    1.723864   -9.310309
      5          6           0       -7.656855    0.952157   -7.969279
      6          1           0       -6.980498    1.754848   -7.666677
      7          6           0       -6.973516   -0.431456   -8.058919
      8          6           0       -8.916614    0.899377   -7.068676
      9          1           0       -8.612772    0.909330   -6.016802
     10          1           0       -9.453890   -0.035441   -7.260720
     11          8           0       -7.243198   -1.136746   -9.038763
     12          8           0       -9.796470    1.957066   -7.413059
     13          1           0       -9.635909    2.728494   -6.846789
     14          7           0       -6.203757   -0.767309   -7.030943
     15          1           0       -6.034616   -0.153879   -6.229714
     16          6           0       -5.582915   -2.081258   -6.862878
     17          1           0       -6.341369   -2.851684   -7.042371
     18          6           0       -5.138477   -2.107301   -5.385542
     19          6           0       -4.400575   -2.284496   -7.822931
     20          1           0       -3.964354   -3.279269   -7.692190
     21          1           0       -3.621323   -1.539782   -7.634369
     22          1           0       -4.746483   -2.196477   -8.855938
     23          8           0       -5.178527   -1.068016   -4.712080
     24          7           0       -4.711566   -3.285680   -4.917946
     25          1           0       -4.621976   -4.106612   -5.510579
     26          6           0       -4.197557   -3.476121   -3.559591
     27          1           0       -4.769155   -2.830487   -2.885933
     28          6           0       -2.702907   -3.082148   -3.536781
     29          6           0       -4.370022   -4.966955   -3.194935
     30          1           0       -3.826763   -5.138615   -2.256103
     31          8           0       -1.814072   -3.938248   -3.552395
     32          6           0       -5.827953   -5.369055   -3.028381
     33          1           0       -6.296188   -4.810306   -2.211079
     34          1           0       -6.393792   -5.183080   -3.947642
     35          1           0       -5.886869   -6.437192   -2.804057
     36          8           0       -3.812663   -5.755027   -4.244835
     37          1           0       -2.851376   -5.581041   -4.201990
     38          7           0       -2.470148   -1.753512   -3.547088
     39          1           0       -3.246246   -1.097111   -3.557523
     40          6           0       -1.130609   -1.181779   -3.591178
     41          1           0       -0.444774   -1.935531   -3.191628
     42          6           0       -1.177863    0.072929   -2.710050
     43          6           0       -0.687233   -0.799793   -5.030695
     44          1           0       -1.375244   -0.010400   -5.366113
     45          8           0       -2.120208    0.857889   -2.808807
     46          6           0        0.743660   -0.239509   -5.028024
     47          1           0        1.454381   -0.990403   -4.659069
     48          1           0        0.844928    0.651769   -4.401029
     49          1           0        1.049828    0.030505   -6.044112
     50          6           0       -0.798326   -1.995584   -5.985657
     51          1           0       -0.164404   -2.824836   -5.654466
     52          1           0       -1.824753   -2.370017   -6.046556
     53          1           0       -0.483708   -1.704757   -6.994449
     54          7           0       -0.135097    0.234895   -1.861052
     55          1           0        0.670793   -0.372710   -1.947986
     56          6           0        0.079394    1.442720   -1.076807
     57          1           0       -0.633290    2.192213   -1.432782
     58          6           0        1.515816    1.895603   -1.352059
     59          6           0       -0.138376    1.197858    0.451418
     60          1           0        0.612865    0.459335    0.756941
     61          8           0        2.406393    1.071645   -1.619061
     62          6           0       -1.522963    0.574633    0.733817
     63          1           0       -1.529504    0.280731    1.791281
     64          1           0       -1.618561   -0.355153    0.160432
     65          6           0        0.092914    2.470627    1.284384
     66          1           0       -0.502578    3.314414    0.913401
     67          1           0        1.139877    2.784479    1.306587
     68          1           0       -0.211911    2.290616    2.320442
     69          6           0       -2.730982    1.475048    0.446406
     70          1           0       -3.657526    0.954992    0.714377
     71          1           0       -2.697448    2.400056    1.032637
     72          1           0       -2.795455    1.732437   -0.615284
     73          7           0        1.756079    3.217767   -1.261405
     74          1           0        1.035751    3.832784   -0.897122
     75          6           0        3.124608    3.734070   -1.198084
     76          1           0        3.691407    3.232231   -1.987225
     77          6           0        3.720378    3.390771    0.183539
     78          6           0        3.177771    5.246133   -1.457324
     79          1           0        4.220002    5.569818   -1.483602
     80          1           0        2.736737    5.443522   -2.442364
     81          8           0        3.476700    4.093924    1.166750
     82          6           0        2.470258    6.139269   -0.452100
     83          8           0        2.920635    7.150632    0.020173
     84          8           0        1.189680    5.723940   -0.208398
     85          7           0        4.463722    2.264023    0.235673
     86          1           0        4.616772    1.745778   -0.619553
     87          6           0        5.120284    1.802809    1.465116
     88          1           0        4.446572    2.041131    2.293835
     89          6           0        6.445213    2.581847    1.634417
     90          6           0        5.379325    0.289269    1.416920
     91          1           0        6.051656    0.050555    2.245919
     92          1           0        5.952327    0.064148    0.506627
     93          8           0        7.529812    2.065876    1.334165
     94          6           0        4.166257   -0.575187    1.541327
     95          6           0        3.793646   -1.459378    2.529938
     96          1           0        4.326484   -1.678807    3.446377
     97          7           0        3.165509   -0.675299    0.590166
     98          1           0        3.059356   -0.121571   -0.255756
     99          6           0        2.261232   -1.591515    1.052556
    100          1           0        1.375831   -1.860433    0.490465
    101          7           0        2.608673   -2.087265    2.220839
    102          7           0        6.305198    3.844130    2.057554
    103          1           0        5.370637    4.178879    2.262702
    104          6           0        7.419583    4.770224    2.191887
    105          1           0        7.990730    4.762633    1.256196
    106          6           0        8.372093    4.362321    3.331264
    107          6           0        6.891785    6.192914    2.479233
    108          1           0        6.403907    6.179793    3.464766
    109          1           0        7.759473    6.857422    2.572941
    110          8           0        8.031154    3.511985    4.182236
    111          6           0        5.912772    6.769860    1.438008
    112          1           0        4.979658    6.191058    1.449079
    113          6           0        5.560208    8.212674    1.826626
    114          1           0        6.449293    8.853692    1.787165
    115          1           0        4.803153    8.617936    1.148222
    116          1           0        5.161274    8.260608    2.847002
    117          6           0        6.478308    6.716046    0.012371
    118          1           0        7.452747    7.216943   -0.044017
    119          1           0        5.798035    7.223163   -0.681673
    120          1           0        6.611944    5.683449   -0.337699
    121          7           0        9.529578    5.033870    3.344636
    122          1           0        9.629082    5.805057    2.645740
    123          6           0       10.105236    5.640964    4.561732
    124          1           0        9.319353    5.691066    5.326119
    125          6           0       10.421042    7.158038    4.128700
    126          6           0       11.347124    4.989394    5.178844
    127          1           0       11.862240    5.819860    5.670942
    128          1           0       12.009234    4.628986    4.379538
    129          8           0       10.976659    7.841566    4.995349
    130          6           0       11.103524    3.879576    6.227367
    131          1           0       11.804407    3.998268    7.062879
    132          1           0       10.099034    3.976507    6.659719
    133          6           0       11.294610    2.449371    5.723428
    134          1           0       12.305438    2.357090    5.302689
    135          1           0       11.206336    1.735771    6.555019
    136          7           0       10.317700    2.113967    4.684712
    137          1           0        9.444763    2.685925    4.625480
    138          7           0       11.491351    0.256788    3.887347
    139          1           0       11.862202   -0.151317    3.041172
    140          1           0       12.148607    0.347119    4.647251
    141          7           0        9.660369    1.061192    2.728726
    142          1           0        9.641676    0.211784    2.185418
    143          1           0        8.920656    1.734590    2.515002
    144          6           0       10.485531    1.169961    3.776334
    145          8           0       10.043495    7.450654    2.953609
    146          1           0        0.821192    6.330837    0.461063
 ---------------------------------------------------------------------

 SCF Done:  E(RB3LYP) =  -3503.55657960     A.U. after    2 cycles

 Alpha  occ. eigenvalues --  -19.32342 -19.28046 -19.27017 -19.24142 -19.22012
 Alpha  occ. eigenvalues --  -19.21734 -19.20746 -19.20607 -19.20109 -19.19870
 Alpha  occ. eigenvalues --  -19.17750 -19.15597 -19.06341 -19.05109 -14.61582
 Alpha  occ. eigenvalues --  -14.51048 -14.47685 -14.45381 -14.44738 -14.44700
 Alpha  occ. eigenvalues --  -14.44466 -14.44431 -14.43003 -14.42627 -14.42437
 Alpha  occ. eigenvalues --  -14.41103 -14.35624 -14.35442 -10.45189 -10.42473
 Alpha  occ. eigenvalues --  -10.41173 -10.41020 -10.39795 -10.39362 -10.38318
 Alpha  occ. eigenvalues --  -10.37614 -10.37075 -10.37003 -10.36574 -10.34586
 Alpha  occ. eigenvalues --  -10.32864 -10.32623 -10.32295 -10.31423 -10.31410
 Alpha  occ. eigenvalues --  -10.31277 -10.30365 -10.29949 -10.28472 -10.28295
 Alpha  occ. eigenvalues --  -10.28216 -10.27641 -10.26756 -10.26580 -10.26562
 Alpha  occ. eigenvalues --  -10.26311 -10.25427 -10.25248 -10.25146 -10.24314
 Alpha  occ. eigenvalues --  -10.24130 -10.24013 -10.23945 -10.22851 -10.22120
 Alpha  occ. eigenvalues --  -10.21497 -10.21208 -10.20844 -10.20150 -10.19154
 Alpha  occ. eigenvalues --  -10.18589  -1.21002  -1.19400  -1.17439  -1.16090
 Alpha  occ. eigenvalues --   -1.15225  -1.13547  -1.12682  -1.11921  -1.11606
 Alpha  occ. eigenvalues --   -1.09539  -1.09403  -1.08585  -1.08470  -1.07678
 Alpha  occ. eigenvalues --   -1.06257  -1.05467  -1.03898  -1.02106  -1.01031
 Alpha  occ. eigenvalues --   -1.00934  -1.00764  -0.99265  -0.97779  -0.97605
 Alpha  occ. eigenvalues --   -0.96620  -0.94390  -0.93311  -0.91201  -0.90372
 Alpha  occ. eigenvalues --   -0.90083  -0.89231  -0.88239  -0.87104  -0.85903
 Alpha  occ. eigenvalues --   -0.85585  -0.83692  -0.82734  -0.82356  -0.81912
 Alpha  occ. eigenvalues --   -0.80708  -0.79942  -0.78900  -0.78219  -0.78205
 Alpha  occ. eigenvalues --   -0.77221  -0.76138  -0.75955  -0.75777  -0.75568
 Alpha  occ. eigenvalues --   -0.75281  -0.73086  -0.71854  -0.71200  -0.70754
 Alpha  occ. eigenvalues --   -0.70689  -0.70466  -0.69597  -0.69328  -0.68784
 Alpha  occ. eigenvalues --   -0.68662  -0.68574  -0.67744  -0.67115  -0.67024
 Alpha  occ. eigenvalues --   -0.66588  -0.66355  -0.65673  -0.65580  -0.65423
 Alpha  occ. eigenvalues --   -0.64478  -0.64397  -0.63829  -0.63361  -0.62964
 Alpha  occ. eigenvalues --   -0.62673  -0.61981  -0.61543  -0.61150  -0.60822
 Alpha  occ. eigenvalues --   -0.60199  -0.59478  -0.59365  -0.59133  -0.58794
 Alpha  occ. eigenvalues --   -0.58560  -0.57878  -0.57738  -0.57686  -0.57099
 Alpha  occ. eigenvalues --   -0.56986  -0.56616  -0.56452  -0.56119  -0.55887
 Alpha  occ. eigenvalues --   -0.55653  -0.55078  -0.54890  -0.54553  -0.54529
 Alpha  occ. eigenvalues --   -0.54389  -0.53909  -0.53713  -0.53397  -0.53109
 Alpha  occ. eigenvalues --   -0.52478  -0.52247  -0.52161  -0.51754  -0.51668
 Alpha  occ. eigenvalues --   -0.51295  -0.51262  -0.50733  -0.50586  -0.50540
 Alpha  occ. eigenvalues --   -0.50229  -0.49982  -0.49330  -0.49116  -0.48858
 Alpha  occ. eigenvalues --   -0.48718  -0.48435  -0.48125  -0.48016  -0.47826
 Alpha  occ. eigenvalues --   -0.47781  -0.47598  -0.47386  -0.47317  -0.47164
 Alpha  occ. eigenvalues --   -0.46967  -0.46891  -0.46386  -0.46303  -0.46296
 Alpha  occ. eigenvalues --   -0.45987  -0.45918  -0.45898  -0.45630  -0.45472
 Alpha  occ. eigenvalues --   -0.45351  -0.45113  -0.45057  -0.44839  -0.44685
 Alpha  occ. eigenvalues --   -0.44590  -0.44491  -0.44074  -0.43972  -0.43703
 Alpha  occ. eigenvalues --   -0.43221  -0.43117  -0.42950  -0.42338  -0.42288
 Alpha  occ. eigenvalues --   -0.41965  -0.41731  -0.41265  -0.41123  -0.40902
 Alpha  occ. eigenvalues --   -0.40869  -0.40718  -0.39904  -0.39562  -0.39241
 Alpha  occ. eigenvalues --   -0.39091  -0.38921  -0.38783  -0.38645  -0.38318
 Alpha  occ. eigenvalues --   -0.38143  -0.37329  -0.37141  -0.36651  -0.36053
 Alpha  occ. eigenvalues --   -0.35722  -0.35553  -0.35452  -0.35151  -0.35069
 Alpha  occ. eigenvalues --   -0.34972  -0.34759  -0.34689  -0.34374  -0.34057
 Alpha  occ. eigenvalues --   -0.33476  -0.33305  -0.33245  -0.32873  -0.32802
 Alpha  occ. eigenvalues --   -0.32230  -0.32215  -0.31727  -0.31009  -0.30894
 Alpha  occ. eigenvalues --   -0.29314  -0.27512  -0.26789  -0.21320  -0.21181
 Alpha  occ. eigenvalues --   -0.19206
 Alpha virt. eigenvalues --   -0.14042  -0.12201  -0.09895  -0.08263  -0.07502
 Alpha virt. eigenvalues --   -0.07223  -0.06934  -0.06759  -0.05484  -0.05201
 Alpha virt. eigenvalues --   -0.04483  -0.04384  -0.03770  -0.03395  -0.02269

 Mulliken charges:
               1
     1  N   -0.740263
     2  H    0.419922
     3  H    0.429405
     4  H    0.428868
     5  C   -0.145672
     6  H    0.214404
     7  C    0.653665
     8  C   -0.065124
     9  H    0.205213
    10  H    0.209252
    11  O   -0.530675
    12  O   -0.607026
    13  H    0.432818
    14  N   -0.612286
    15  H    0.373874
    16  C   -0.052901
    17  H    0.200864
    18  C    0.638504
    19  C   -0.461044
    20  H    0.180546
    21  H    0.177345
    22  H    0.193401
    23  O   -0.555721
    24  N   -0.604983
    25  H    0.360667
    26  C   -0.085470
    27  H    0.185512
    28  C    0.639922
    29  C    0.108644
    30  H    0.160131
    31  O   -0.544044
    32  C   -0.449565
    33  H    0.152596
    34  H    0.141338
    35  H    0.184160
    36  O   -0.648066
    37  H    0.424519
    38  N   -0.622909
    39  H    0.374201
    40  C   -0.042247
    41  H    0.174088
    42  C    0.618905
    43  C   -0.073275
    44  H    0.134213
    45  O   -0.541054
    46  C   -0.466311
    47  H    0.153220
    48  H    0.156976
    49  H    0.156943
    50  C   -0.454452
    51  H    0.172099
    52  H    0.133663
    53  H    0.146068
    54  N   -0.600282
    55  H    0.349367
    56  C   -0.075675
    57  H    0.184485
    58  C    0.642689
    59  C   -0.088446
    60  H    0.152027
    61  O   -0.580669
    62  C   -0.258019
    63  H    0.151952
    64  H    0.136312
    65  C   -0.497157
    66  H    0.139722
    67  H    0.175879
    68  H    0.170079
    69  C   -0.474084
    70  H    0.145586
    71  H    0.145095
    72  H    0.175559
    73  N   -0.600961
    74  H    0.387686
    75  C   -0.071074
    76  H    0.179881
    77  C    0.661357
    78  C   -0.392225
    79  H    0.216252
    80  H    0.193639
    81  O   -0.543052
    82  C    0.632007
    83  O   -0.432590
    84  O   -0.599028
    85  N   -0.599039
    86  H    0.349076
    87  C   -0.061930
    88  H    0.195838
    89  C    0.661486
    90  C   -0.391323
    91  H    0.182482
    92  H    0.165604
    93  O   -0.581687
    94  C    0.330364
    95  C   -0.082285
    96  H    0.135749
    97  N   -0.641553
    98  H    0.375625
    99  C    0.190161
   100  H    0.142367
   101  N   -0.420563
   102  N   -0.602654
   103  H    0.373769
   104  C   -0.046689
   105  H    0.174457
   106  C    0.593491
   107  C   -0.332940
   108  H    0.141568
   109  H    0.216201
   110  O   -0.595852
   111  C   -0.083799
   112  H    0.134588
   113  C   -0.452533
   114  H    0.162133
   115  H    0.156810
   116  H    0.137413
   117  C   -0.465615
   118  H    0.167886
   119  H    0.147442
   120  H    0.116937
   121  N   -0.589058
   122  H    0.363256
   123  C   -0.089316
   124  H    0.146304
   125  C    0.584851
   126  C   -0.267655
   127  H    0.196319
   128  H    0.123598
   129  O   -0.561190
   130  C   -0.301367
   131  H    0.154505
   132  H    0.161511
   133  C   -0.155166
   134  H    0.152213
   135  H    0.161278
   136  N   -0.615129
   137  H    0.433873
   138  N   -0.764589
   139  H    0.358953
   140  H    0.369852
   141  N   -0.805608
   142  H    0.349484
   143  H    0.436028
   144  C    0.788168
   145  O   -0.609652
   146  H    0.426382
 Sum of Mulliken charges =   1.00000

 Dipole moment (field-independent basis, Debye):
    X=            -32.5179    Y=             -7.8170    Z=            -39.4457  Tot=             51.7154
 Quadrupole moment (field-independent basis, Debye-Ang):
   XX=           -151.9880   YY=           -550.1194   ZZ=           -129.7622
   XY=           -217.6246   XZ=            241.8506   YZ=           -113.3332

 Normal termination of Gaussian 16 at Sun Jun 12 09:16:40 2022.
