 Gaussian 16, Revision C.01,
 Gaussian 16:  ES64L-G16RevC.01  3-Jul-2019

 ----------------------------------------------------------------------
 # B3LYP/6-31G* empiricaldispersion=gd3 guess=read geom=check nosymm in
 tegral(ultrafinegrid)
 ----------------------------------------------------------------------

 ------------------------------------------------------
 Candidate Structure: Conf:474 Charge calc in gas phase
 ------------------------------------------------------
 Structure from the checkpoint file:  "conf-474.chk"
 Charge =  1 Multiplicity = 1

                          Input orientation:
 ---------------------------------------------------------------------
 Center     Atomic      Atomic             Coordinates (Angstroms)
 Number     Number       Type             X           Y           Z
 ---------------------------------------------------------------------
      1          7           0       -1.682688    4.683579   -2.121329
      2          1           0       -1.048224    5.480847   -2.059686
      3          1           0       -2.664854    4.975174   -1.967768
      4          1           0       -1.437691    3.968733   -1.298612
      5          6           0       -1.661164    4.038148   -3.470905
      6          1           0       -1.434643    4.800591   -4.223911
      7          6           0       -3.103211    3.520639   -3.673930
      8          6           0       -0.591817    2.937862   -3.572728
      9          1           0       -0.926901    2.047846   -3.031089
     10          1           0        0.345559    3.284514   -3.116368
     11          8           0       -3.991294    3.901324   -2.910894
     12          8           0       -0.453936    2.671937   -4.962458
     13          1           0        0.111382    1.877858   -5.090449
     14          7           0       -3.276395    2.671902   -4.706891
     15          1           0       -2.419141    2.359713   -5.164586
     16          6           0       -4.416089    1.769933   -4.715897
     17          1           0       -5.274156    2.331346   -4.330997
     18          6           0       -4.127519    0.624537   -3.704632
     19          6           0       -4.698750    1.292351   -6.144844
     20          1           0       -5.599931    0.675317   -6.197185
     21          1           0       -3.862825    0.703140   -6.536392
     22          1           0       -4.849773    2.158529   -6.794509
     23          8           0       -3.207722    0.724532   -2.881928
     24          7           0       -4.916213   -0.464765   -3.798711
     25          1           0       -5.775982   -0.406520   -4.332641
     26          6           0       -4.864344   -1.600107   -2.868045
     27          1           0       -4.721351   -1.204857   -1.852902
     28          6           0       -3.669293   -2.526079   -3.230043
     29          6           0       -6.197531   -2.378129   -2.969367
     30          1           0       -6.173419   -2.950335   -3.900495
     31          8           0       -3.828037   -3.631877   -3.736840
     32          6           0       -6.387382   -3.330153   -1.795701
     33          1           0       -5.575767   -4.062273   -1.764094
     34          1           0       -6.402854   -2.782179   -0.843567
     35          1           0       -7.335695   -3.863780   -1.903314
     36          8           0       -7.293692   -1.473735   -3.123891
     37          1           0       -7.469656   -1.058914   -2.262987
     38          7           0       -2.460881   -1.984469   -2.943124
     39          1           0       -2.437572   -1.017109   -2.626649
     40          6           0       -1.207872   -2.558059   -3.386606
     41          1           0       -1.286825   -3.645780   -3.283711
     42          6           0       -0.117344   -2.044656   -2.446812
     43          6           0       -0.835643   -2.222475   -4.882615
     44          1           0        0.258315   -2.134061   -4.934959
     45          8           0       -0.258194   -1.010098   -1.771996
     46          6           0       -1.275374   -3.353885   -5.822337
     47          1           0       -2.353979   -3.518828   -5.753057
     48          1           0       -0.781033   -4.299332   -5.567844
     49          1           0       -1.020260   -3.110952   -6.860060
     50          6           0       -1.424342   -0.876789   -5.321698
     51          1           0       -2.511433   -0.953892   -5.423993
     52          1           0       -1.204392   -0.079377   -4.606695
     53          1           0       -1.002606   -0.585392   -6.287444
     54          7           0        1.033573   -2.744951   -2.437928
     55          1           0        1.098195   -3.571575   -3.016859
     56          6           0        2.138350   -2.494146   -1.510572
     57          1           0        1.681058   -2.175526   -0.562602
     58          6           0        3.062641   -1.321058   -1.912097
     59          6           0        2.943412   -3.786654   -1.251675
     60          1           0        3.758830   -3.480690   -0.588273
     61          8           0        4.249991   -1.330357   -1.606736
     62          6           0        3.588033   -4.339760   -2.541547
     63          1           0        4.050403   -3.511198   -3.090201
     64          1           0        2.815026   -4.768844   -3.199977
     65          6           0        2.077127   -4.825499   -0.524786
     66          1           0        1.252297   -5.182389   -1.154280
     67          1           0        1.641206   -4.409336    0.390878
     68          1           0        2.671791   -5.696906   -0.238616
     69          6           0        4.654459   -5.409061   -2.278473
     70          1           0        5.119661   -5.730589   -3.216027
     71          1           0        5.444571   -5.012882   -1.630687
     72          1           0        4.235412   -6.298665   -1.797056
     73          7           0        2.473675   -0.259478   -2.547505
     74          1           0        1.460961   -0.183559   -2.496293
     75          6           0        3.249011    0.966320   -2.753825
     76          1           0        4.293445    0.649256   -2.743914
     77          6           0        2.993477    1.930907   -1.567419
     78          6           0        2.926159    1.657412   -4.094841
     79          1           0        2.139157    2.396958   -3.957774
     80          1           0        3.819059    2.176467   -4.454418
     81          8           0        2.362850    2.980220   -1.695237
     82          6           0        2.463974    0.657070   -5.117491
     83          8           0        1.296739    0.505024   -5.451438
     84          8           0        3.455781   -0.091368   -5.610101
     85          7           0        3.468429    1.461690   -0.391489
     86          1           0        4.075128    0.641768   -0.363116
     87          6           0        3.325215    2.160498    0.871529
     88          1           0        3.276308    3.235322    0.671668
     89          6           0        4.548846    1.789991    1.730663
     90          6           0        2.041939    1.725908    1.639422
     91          1           0        2.020720    2.255341    2.598568
     92          1           0        2.129184    0.657309    1.868876
     93          8           0        5.112313    0.708199    1.560611
     94          6           0        0.784929    2.000057    0.880812
     95          6           0        0.118270    3.172367    0.626267
     96          1           0        0.351108    4.163518    0.988591
     97          7           0        0.097176    1.042902    0.155685
     98          1           0        0.332332    0.066300    0.025457
     99          6           0       -0.927161    1.640559   -0.492714
    100          1           0       -1.624348    1.108008   -1.122232
    101          7           0       -0.938056    2.941410   -0.230625
    102          7           0        4.874564    2.677903    2.684564
    103          1           0        4.416241    3.580069    2.777186
    104          6           0        5.941344    2.452637    3.652781
    105          1           0        5.870777    1.418778    4.002643
    106          6           0        5.678864    3.438116    4.800714
    107          6           0        7.328581    2.691291    3.005308
    108          1           0        7.356416    2.074235    2.098604
    109          1           0        7.365986    3.741478    2.685813
    110          8           0        5.038854    4.480362    4.599804
    111          6           0        8.563387    2.363383    3.868094
    112          1           0        8.542199    2.972585    4.780412
    113          6           0        8.607015    0.886567    4.288926
    114          1           0        8.601845    0.231067    3.408557
    115          1           0        9.512679    0.680095    4.868043
    116          1           0        7.758203    0.599749    4.920024
    117          6           0        9.835482    2.734393    3.090971
    118          1           0        9.919548    2.141532    2.170775
    119          1           0       10.729868    2.543850    3.694393
    120          1           0        9.838174    3.794184    2.808291
    121          7           0        6.209374    3.103492    5.985635
    122          1           0        6.855998    2.320196    6.087682
    123          6           0        6.342449    4.047784    7.082297
    124          1           0        6.641765    5.014872    6.655682
    125          6           0        7.550092    3.554671    7.949511
    126          6           0        5.005622    4.249460    7.858572
    127          1           0        5.120074    3.923430    8.900319
    128          1           0        4.266193    3.584149    7.405158
    129          8           0        7.817254    4.286201    8.970994
    130          6           0        4.457563    5.691267    7.804939
    131          1           0        4.650323    6.098095    6.805470
    132          1           0        3.368349    5.680578    7.936778
    133          6           0        5.023553    6.628287    8.888859
    134          1           0        4.736230    7.665093    8.679156
    135          1           0        4.594453    6.370571    9.864136
    136          7           0        6.472944    6.504522    9.010328
    137          1           0        6.873264    5.512922    9.121823
    138          7           0        7.189126    8.712904    8.599295
    139          1           0        7.809801    9.261843    8.022215
    140          1           0        6.253343    9.071079    8.712616
    141          7           0        8.669642    6.920727    8.506656
    142          1           0        9.448080    7.522892    8.736233
    143          1           0        8.790900    5.907747    8.642643
    144          6           0        7.412253    7.377653    8.707473
    145          8           0        8.158343    2.548990    7.568107
    146          1           0        3.067519   -0.725829   -6.243054
 ---------------------------------------------------------------------

 SCF Done:  E(RB3LYP) =  -3503.64212959     A.U. after    3 cycles

 Alpha  occ. eigenvalues --  -19.29756 -19.24797 -19.24152 -19.23097 -19.22938
 Alpha  occ. eigenvalues --  -19.22404 -19.22050 -19.20910 -19.20444 -19.19356
 Alpha  occ. eigenvalues --  -19.18218 -19.16874 -19.13898 -19.12995 -14.52113
 Alpha  occ. eigenvalues --  -14.47913 -14.46882 -14.45967 -14.45781 -14.45095
 Alpha  occ. eigenvalues --  -14.45094 -14.43816 -14.43494 -14.43111 -14.43086
 Alpha  occ. eigenvalues --  -14.42677 -14.42315 -14.39789 -10.42658 -10.40867
 Alpha  occ. eigenvalues --  -10.39543 -10.39273 -10.38657 -10.37963 -10.37417
 Alpha  occ. eigenvalues --  -10.36609 -10.35502 -10.35464 -10.33579 -10.33481
 Alpha  occ. eigenvalues --  -10.33168 -10.33033 -10.32898 -10.32864 -10.32080
 Alpha  occ. eigenvalues --  -10.31720 -10.31692 -10.31576 -10.31365 -10.30953
 Alpha  occ. eigenvalues --  -10.30174 -10.29191 -10.29072 -10.28867 -10.28542
 Alpha  occ. eigenvalues --  -10.27934 -10.27569 -10.27323 -10.26533 -10.25859
 Alpha  occ. eigenvalues --  -10.25149 -10.25125 -10.24778 -10.24772 -10.24400
 Alpha  occ. eigenvalues --  -10.23855 -10.23790 -10.23169 -10.22824 -10.21108
 Alpha  occ. eigenvalues --  -10.20834  -1.21002  -1.14837  -1.14738  -1.13487
 Alpha  occ. eigenvalues --   -1.13022  -1.12086  -1.11972  -1.11231  -1.11189
 Alpha  occ. eigenvalues --   -1.10872  -1.10260  -1.10198  -1.09533  -1.08441
 Alpha  occ. eigenvalues --   -1.07168  -1.06582  -1.03354  -1.02424  -1.01889
 Alpha  occ. eigenvalues --   -1.01796  -1.00418  -1.00265  -0.99457  -0.98805
 Alpha  occ. eigenvalues --   -0.98085  -0.97395  -0.96709  -0.96372  -0.89999
 Alpha  occ. eigenvalues --   -0.88738  -0.88550  -0.87865  -0.87805  -0.85879
 Alpha  occ. eigenvalues --   -0.85771  -0.84991  -0.84050  -0.83110  -0.82631
 Alpha  occ. eigenvalues --   -0.80470  -0.80328  -0.79201  -0.78384  -0.78104
 Alpha  occ. eigenvalues --   -0.76938  -0.76035  -0.75746  -0.74338  -0.73460
 Alpha  occ. eigenvalues --   -0.73428  -0.71874  -0.71519  -0.71166  -0.70894
 Alpha  occ. eigenvalues --   -0.70870  -0.70625  -0.69635  -0.69151  -0.68521
 Alpha  occ. eigenvalues --   -0.68380  -0.68127  -0.68005  -0.67397  -0.66777
 Alpha  occ. eigenvalues --   -0.66629  -0.66333  -0.66089  -0.65041  -0.64951
 Alpha  occ. eigenvalues --   -0.64695  -0.64664  -0.63814  -0.63162  -0.62627
 Alpha  occ. eigenvalues --   -0.62451  -0.62158  -0.62017  -0.61378  -0.60909
 Alpha  occ. eigenvalues --   -0.60168  -0.59571  -0.59206  -0.58894  -0.58666
 Alpha  occ. eigenvalues --   -0.58520  -0.57818  -0.57743  -0.57564  -0.57183
 Alpha  occ. eigenvalues --   -0.56587  -0.56364  -0.56136  -0.55807  -0.55571
 Alpha  occ. eigenvalues --   -0.55433  -0.55366  -0.54623  -0.54476  -0.54212
 Alpha  occ. eigenvalues --   -0.54001  -0.53705  -0.53280  -0.53166  -0.52974
 Alpha  occ. eigenvalues --   -0.52911  -0.52777  -0.52590  -0.52094  -0.51918
 Alpha  occ. eigenvalues --   -0.51804  -0.51567  -0.51257  -0.50997  -0.50826
 Alpha  occ. eigenvalues --   -0.50471  -0.50335  -0.50217  -0.50017  -0.49879
 Alpha  occ. eigenvalues --   -0.49716  -0.49630  -0.49591  -0.49434  -0.49112
 Alpha  occ. eigenvalues --   -0.48868  -0.48701  -0.48623  -0.48416  -0.48341
 Alpha  occ. eigenvalues --   -0.48104  -0.47877  -0.47408  -0.47300  -0.47140
 Alpha  occ. eigenvalues --   -0.46609  -0.46356  -0.46218  -0.46171  -0.46024
 Alpha  occ. eigenvalues --   -0.45993  -0.45877  -0.45297  -0.45267  -0.45213
 Alpha  occ. eigenvalues --   -0.44989  -0.44911  -0.44865  -0.44704  -0.44400
 Alpha  occ. eigenvalues --   -0.44251  -0.43825  -0.43599  -0.43471  -0.43305
 Alpha  occ. eigenvalues --   -0.42786  -0.42372  -0.41928  -0.41904  -0.41790
 Alpha  occ. eigenvalues --   -0.41637  -0.41225  -0.40905  -0.40776  -0.40471
 Alpha  occ. eigenvalues --   -0.40209  -0.40164  -0.40108  -0.40017  -0.39624
 Alpha  occ. eigenvalues --   -0.39136  -0.38545  -0.38259  -0.38037  -0.37847
 Alpha  occ. eigenvalues --   -0.37515  -0.37427  -0.37295  -0.37146  -0.36711
 Alpha  occ. eigenvalues --   -0.36623  -0.36570  -0.36523  -0.36403  -0.35879
 Alpha  occ. eigenvalues --   -0.35436  -0.34854  -0.34494  -0.33859  -0.33413
 Alpha  occ. eigenvalues --   -0.33251  -0.32878  -0.32351  -0.32066  -0.31771
 Alpha  occ. eigenvalues --   -0.30705  -0.30574  -0.30359  -0.29277  -0.28204
 Alpha  occ. eigenvalues --   -0.27119
 Alpha virt. eigenvalues --   -0.09686  -0.09096  -0.08673  -0.08100  -0.07745
 Alpha virt. eigenvalues --   -0.06880  -0.06039  -0.05789  -0.05629  -0.05077
 Alpha virt. eigenvalues --   -0.04221  -0.03193  -0.03014  -0.02563  -0.02425

 Mulliken charges:
               1
     1  N   -0.788362
     2  H    0.385949
     3  H    0.405215
     4  H    0.442379
     5  C   -0.102462
     6  H    0.217398
     7  C    0.637658
     8  C   -0.098872
     9  H    0.176223
    10  H    0.188940
    11  O   -0.532218
    12  O   -0.675985
    13  H    0.458607
    14  N   -0.586258
    15  H    0.377344
    16  C   -0.088590
    17  H    0.213185
    18  C    0.651512
    19  C   -0.474179
    20  H    0.168289
    21  H    0.174136
    22  H    0.187767
    23  O   -0.558226
    24  N   -0.612206
    25  H    0.363602
    26  C   -0.078952
    27  H    0.166477
    28  C    0.634976
    29  C    0.112609
    30  H    0.184077
    31  O   -0.522940
    32  C   -0.481253
    33  H    0.184296
    34  H    0.136951
    35  H    0.180506
    36  O   -0.629113
    37  H    0.396313
    38  N   -0.636836
    39  H    0.395891
    40  C   -0.052125
    41  H    0.184836
    42  C    0.623003
    43  C   -0.095571
    44  H    0.132790
    45  O   -0.580660
    46  C   -0.458773
    47  H    0.190980
    48  H    0.139227
    49  H    0.149093
    50  C   -0.461706
    51  H    0.150204
    52  H    0.141166
    53  H    0.162298
    54  N   -0.599150
    55  H    0.354126
    56  C   -0.067779
    57  H    0.178687
    58  C    0.623493
    59  C   -0.104652
    60  H    0.182146
    61  O   -0.507725
    62  C   -0.275868
    63  H    0.158976
    64  H    0.114160
    65  C   -0.459001
    66  H    0.135781
    67  H    0.150454
    68  H    0.174869
    69  C   -0.452395
    70  H    0.157198
    71  H    0.166076
    72  H    0.154863
    73  N   -0.642275
    74  H    0.367554
    75  C   -0.066302
    76  H    0.219478
    77  C    0.628239
    78  C   -0.375975
    79  H    0.200054
    80  H    0.202770
    81  O   -0.540590
    82  C    0.608020
    83  O   -0.496792
    84  O   -0.531465
    85  N   -0.628349
    86  H    0.383429
    87  C   -0.041912
    88  H    0.176350
    89  C    0.626319
    90  C   -0.359761
    91  H    0.183969
    92  H    0.168644
    93  O   -0.537123
    94  C    0.339039
    95  C   -0.024308
    96  H    0.150943
    97  N   -0.606775
    98  H    0.363499
    99  C    0.226135
   100  H    0.233359
   101  N   -0.549201
   102  N   -0.621631
   103  H    0.347785
   104  C   -0.050451
   105  H    0.177893
   106  C    0.604512
   107  C   -0.256575
   108  H    0.163186
   109  H    0.135090
   110  O   -0.568061
   111  C   -0.094929
   112  H    0.147014
   113  C   -0.446981
   114  H    0.143952
   115  H    0.163521
   116  H    0.140233
   117  C   -0.444787
   118  H    0.140458
   119  H    0.152824
   120  H    0.135996
   121  N   -0.623733
   122  H    0.376521
   123  C   -0.051787
   124  H    0.152153
   125  C    0.602898
   126  C   -0.289281
   127  H    0.161341
   128  H    0.163505
   129  O   -0.637981
   130  C   -0.273410
   131  H    0.173173
   132  H    0.145418
   133  C   -0.160235
   134  H    0.135692
   135  H    0.180377
   136  N   -0.608117
   137  H    0.429968
   138  N   -0.756566
   139  H    0.363635
   140  H    0.365051
   141  N   -0.778244
   142  H    0.350755
   143  H    0.407208
   144  C    0.751930
   145  O   -0.533606
   146  H    0.424444
 Sum of Mulliken charges =   1.00000

 Dipole moment (field-independent basis, Debye):
    X=              1.5269    Y=             17.7182    Z=             -3.8327  Tot=             18.1922
 Quadrupole moment (field-independent basis, Debye-Ang):
   XX=           -357.9608   YY=           -223.4000   ZZ=           -295.8117
   XY=             85.7351   XZ=             41.6764   YZ=            111.2443

 Normal termination of Gaussian 16 at Sun Jun 12 09:23:29 2022.
