 Gaussian 16, Revision C.01,
 Gaussian 16:  ES64L-G16RevC.01  3-Jul-2019

 ----------------------------------------------------------------------
 # B3LYP/6-31G* empiricaldispersion=gd3 guess=read geom=check nosymm in
 tegral(ultrafinegrid)
 ----------------------------------------------------------------------

 ------------------------------------------------------
 Candidate Structure: Conf:123 Charge calc in gas phase
 ------------------------------------------------------
 Structure from the checkpoint file:  "conf-123.chk"
 Charge =  1 Multiplicity = 1

                          Input orientation:
 ---------------------------------------------------------------------
 Center     Atomic      Atomic             Coordinates (Angstroms)
 Number     Number       Type             X           Y           Z
 ---------------------------------------------------------------------
      1          7           0       -2.483450    5.369814    0.460457
      2          1           0       -3.041543    6.134410    0.847948
      3          1           0       -2.412492    4.583218    1.154078
      4          1           0       -1.520211    5.699735    0.314659
      5          6           0       -3.073128    4.731580   -0.771163
      6          1           0       -4.005112    5.238934   -1.029347
      7          6           0       -3.308913    3.265167   -0.363286
      8          6           0       -2.077071    4.828390   -1.968243
      9          1           0       -1.114219    4.401425   -1.659465
     10          1           0       -1.929713    5.888459   -2.206786
     11          8           0       -2.839098    2.858062    0.702873
     12          8           0       -2.605077    4.177043   -3.091098
     13          1           0       -2.234579    3.263877   -3.076392
     14          7           0       -3.989238    2.513537   -1.249202
     15          1           0       -4.142210    2.952941   -2.153567
     16          6           0       -3.771123    1.069300   -1.276701
     17          1           0       -3.850901    0.704607   -0.248763
     18          6           0       -2.333785    0.809883   -1.793513
     19          6           0       -4.812731    0.388570   -2.171345
     20          1           0       -4.657568   -0.693651   -2.184923
     21          1           0       -4.735748    0.751019   -3.202903
     22          1           0       -5.821148    0.591721   -1.800714
     23          8           0       -1.689548    1.683902   -2.390532
     24          7           0       -1.858231   -0.424391   -1.573391
     25          1           0       -2.398793   -1.106284   -1.055190
     26          6           0       -0.546252   -0.865310   -2.014618
     27          1           0       -0.141492   -0.097668   -2.676998
     28          6           0       -0.681513   -2.226788   -2.692070
     29          6           0        0.426597   -1.065719   -0.803267
     30          1           0        1.379526   -1.415470   -1.225539
     31          8           0       -1.431270   -3.073359   -2.191108
     32          6           0        0.643911    0.219732   -0.016886
     33          1           0        1.095965    0.991473   -0.649066
     34          1           0       -0.306931    0.596488    0.374151
     35          1           0        1.306118    0.007348    0.826624
     36          8           0       -0.090421   -2.042461    0.102473
     37          1           0       -0.512908   -2.751652   -0.417009
     38          7           0        0.161668   -2.499758   -3.720768
     39          1           0        0.878071   -1.804279   -3.900853
     40          6           0        0.639918   -3.890152   -3.868579
     41          1           0       -0.240755   -4.531223   -3.965417
     42          6           0        1.408570   -4.155923   -2.557237
     43          6           0        1.547193   -4.046874   -5.098457
     44          1           0        2.394548   -3.360512   -4.956072
     45          8           0        2.318482   -3.384716   -2.246575
     46          6           0        2.101823   -5.478244   -5.158590
     47          1           0        1.288420   -6.209158   -5.252856
     48          1           0        2.685954   -5.729408   -4.266778
     49          1           0        2.753898   -5.595574   -6.029764
     50          6           0        0.804443   -3.679465   -6.389166
     51          1           0       -0.038537   -4.360652   -6.559268
     52          1           0        0.408136   -2.659205   -6.359360
     53          1           0        1.475999   -3.757731   -7.250456
     54          7           0        0.972254   -5.175168   -1.787482
     55          1           0        0.141580   -5.662350   -2.098983
     56          6           0        1.305317   -5.358429   -0.368342
     57          1           0        0.587065   -4.762371    0.208562
     58          6           0        2.715701   -4.824786   -0.053253
     59          6           0        1.126643   -6.843143    0.039516
     60          1           0        0.051547   -7.053905   -0.090760
     61          8           0        3.743753   -5.378797   -0.422746
     62          6           0        1.456380   -7.063844    1.529811
     63          1           0        2.532366   -6.906747    1.680233
     64          1           0        1.270843   -8.122409    1.750193
     65          6           0        1.918937   -7.813580   -0.849004
     66          1           0        2.992431   -7.648325   -0.738618
     67          1           0        1.671179   -7.689284   -1.908556
     68          1           0        1.686532   -8.846604   -0.568041
     69          6           0        0.659036   -6.197141    2.512962
     70          1           0        0.834660   -6.523846    3.543389
     71          1           0        0.946032   -5.141671    2.455653
     72          1           0       -0.419528   -6.268422    2.322799
     73          7           0        2.715002   -3.721882    0.749252
     74          1           0        1.865992   -3.170580    0.861857
     75          6           0        3.953326   -3.013032    0.999942
     76          1           0        4.717988   -3.729132    1.312212
     77          6           0        3.674222   -1.977438    2.091225
     78          6           0        4.432151   -2.300115   -0.289150
     79          1           0        4.460308   -3.044169   -1.093035
     80          1           0        3.706784   -1.543311   -0.599078
     81          8           0        2.553253   -1.496818    2.246157
     82          6           0        5.788539   -1.662834   -0.197407
     83          8           0        6.646510   -1.911958    0.643005
     84          8           0        5.978751   -0.767781   -1.177664
     85          7           0        4.741425   -1.575376    2.832823
     86          1           0        5.663773   -1.849947    2.512415
     87          6           0        4.604167   -0.370648    3.636298
     88          1           0        3.819593   -0.538864    4.379897
     89          6           0        4.211700    0.803774    2.725897
     90          6           0        5.930326   -0.053803    4.369300
     91          1           0        6.712950    0.109698    3.616457
     92          1           0        6.215902   -0.945914    4.936725
     93          8           0        4.850065    1.044892    1.681093
     94          6           0        5.833527    1.098170    5.316120
     95          6           0        5.753798    1.134587    6.690258
     96          1           0        5.801698    0.294289    7.371584
     97          7           0        5.735528    2.427077    4.928910
     98          1           0        5.694918    2.804256    3.986930
     99          6           0        5.586779    3.171187    6.065018
    100          1           0        5.444371    4.242179    6.024064
    101          7           0        5.603434    2.423091    7.148488
    102          7           0        3.200722    1.573875    3.134138
    103          1           0        2.740988    1.345929    4.006523
    104          6           0        2.818348    2.826327    2.464931
    105          1           0        2.903075    2.667829    1.389750
    106          6           0        3.816269    3.915686    2.908822
    107          6           0        1.388047    3.187862    2.873218
    108          1           0        0.734790    2.334513    2.641769
    109          1           0        1.385774    3.325667    3.961678
    110          8           0        3.605803    4.590777    3.901539
    111          6           0        0.839915    4.469210    2.217630
    112          1           0        1.604456    5.245397    2.299229
    113          6           0        0.566812    4.275477    0.720471
    114          1           0       -0.242898    3.552536    0.543830
    115          1           0        0.323437    5.245766    0.255112
    116          1           0        1.466780    3.958095    0.192926
    117          6           0       -0.412399    4.932555    2.975241
    118          1           0       -1.211664    4.176044    2.934378
    119          1           0       -0.792899    5.883135    2.572436
    120          1           0       -0.194072    5.113606    4.032852
    121          7           0        5.037851    3.973013    2.204674
    122          1           0        4.897239    3.487344    1.319651
    123          6           0        5.402578    5.386248    1.887794
    124          1           0        5.223756    5.957544    2.803310
    125          6           0        4.394960    5.916321    0.787970
    126          6           0        6.864961    5.548035    1.490893
    127          1           0        6.965094    6.586277    1.167121
    128          1           0        7.077595    4.942231    0.597175
    129          8           0        4.731467    6.955747    0.206488
    130          6           0        7.858449    5.210857    2.629889
    131          1           0        8.542247    6.046403    2.814790
    132          1           0        7.318617    5.043743    3.570561
    133          6           0        8.731947    3.987780    2.348742
    134          1           0        9.366884    4.177122    1.472853
    135          1           0        9.379291    3.778591    3.211086
    136          7           0        7.896718    2.807125    2.070460
    137          1           0        6.882308    2.936921    2.135876
    138          7           0        9.698625    1.435755    1.571604
    139          1           0       10.072491    0.603545    1.141538
    140          1           0       10.354022    2.101485    1.950156
    141          7           0        7.537743    0.698453    1.160912
    142          1           0        7.828744   -0.274742    1.136753
    143          1           0        6.519957    0.809930    1.310957
    144          6           0        8.369039    1.650689    1.615657
    145          8           0        3.352108    5.201226    0.662940
    146          1           0        6.861030   -0.366154   -1.065752
 ---------------------------------------------------------------------

 SCF Done:  E(RB3LYP) =  -3503.57774619     A.U. after    3 cycles

 Alpha  occ. eigenvalues --  -19.28989 -19.26421 -19.25542 -19.24117 -19.23724
 Alpha  occ. eigenvalues --  -19.22881 -19.22415 -19.21906 -19.20293 -19.19826
 Alpha  occ. eigenvalues --  -19.18700 -19.17844 -19.10099 -19.08899 -14.58614
 Alpha  occ. eigenvalues --  -14.49433 -14.48764 -14.48079 -14.47425 -14.46556
 Alpha  occ. eigenvalues --  -14.45850 -14.45646 -14.44780 -14.44315 -14.44048
 Alpha  occ. eigenvalues --  -14.42253 -14.41047 -14.36075 -10.44711 -10.42872
 Alpha  occ. eigenvalues --  -10.42045 -10.40502 -10.39138 -10.39017 -10.38266
 Alpha  occ. eigenvalues --  -10.37069 -10.36937 -10.36637 -10.35393 -10.35353
 Alpha  occ. eigenvalues --  -10.35176 -10.33288 -10.32775 -10.32579 -10.32394
 Alpha  occ. eigenvalues --  -10.31735 -10.31414 -10.30619 -10.30280 -10.29391
 Alpha  occ. eigenvalues --  -10.28895 -10.28784 -10.27876 -10.27853 -10.27794
 Alpha  occ. eigenvalues --  -10.27408 -10.26383 -10.26151 -10.25763 -10.25608
 Alpha  occ. eigenvalues --  -10.25397 -10.25210 -10.25182 -10.24874 -10.24692
 Alpha  occ. eigenvalues --  -10.24664 -10.24583 -10.24013 -10.23642 -10.23111
 Alpha  occ. eigenvalues --  -10.22463  -1.20226  -1.18731  -1.15494  -1.14415
 Alpha  occ. eigenvalues --   -1.13690  -1.13667  -1.13210  -1.12663  -1.12204
 Alpha  occ. eigenvalues --   -1.11938  -1.11110  -1.10352  -1.10110  -1.09758
 Alpha  occ. eigenvalues --   -1.06393  -1.05844  -1.03690  -1.02900  -1.02572
 Alpha  occ. eigenvalues --   -1.02299  -1.01932  -1.01124  -1.01048  -1.00944
 Alpha  occ. eigenvalues --   -0.99233  -0.97063  -0.94067  -0.92147  -0.91329
 Alpha  occ. eigenvalues --   -0.89348  -0.88833  -0.88181  -0.87971  -0.87387
 Alpha  occ. eigenvalues --   -0.87148  -0.86149  -0.85747  -0.83093  -0.81416
 Alpha  occ. eigenvalues --   -0.80632  -0.80281  -0.79834  -0.79020  -0.78159
 Alpha  occ. eigenvalues --   -0.77998  -0.76265  -0.76083  -0.75962  -0.75461
 Alpha  occ. eigenvalues --   -0.75192  -0.74319  -0.73206  -0.73094  -0.72078
 Alpha  occ. eigenvalues --   -0.71506  -0.70606  -0.70230  -0.69894  -0.69720
 Alpha  occ. eigenvalues --   -0.69518  -0.68960  -0.68437  -0.68123  -0.67621
 Alpha  occ. eigenvalues --   -0.67158  -0.66701  -0.66592  -0.66107  -0.65033
 Alpha  occ. eigenvalues --   -0.64906  -0.64642  -0.64412  -0.64258  -0.63764
 Alpha  occ. eigenvalues --   -0.63458  -0.62930  -0.62541  -0.62014  -0.61501
 Alpha  occ. eigenvalues --   -0.61402  -0.60665  -0.60443  -0.60150  -0.59633
 Alpha  occ. eigenvalues --   -0.59253  -0.59142  -0.58866  -0.58448  -0.58301
 Alpha  occ. eigenvalues --   -0.57871  -0.57570  -0.57475  -0.57405  -0.56749
 Alpha  occ. eigenvalues --   -0.56518  -0.56299  -0.56073  -0.55811  -0.55629
 Alpha  occ. eigenvalues --   -0.54975  -0.54734  -0.54271  -0.53997  -0.53678
 Alpha  occ. eigenvalues --   -0.53162  -0.52938  -0.52891  -0.52719  -0.52590
 Alpha  occ. eigenvalues --   -0.52343  -0.52241  -0.51647  -0.51247  -0.51063
 Alpha  occ. eigenvalues --   -0.50889  -0.50544  -0.50330  -0.50170  -0.50109
 Alpha  occ. eigenvalues --   -0.49800  -0.49676  -0.49472  -0.49134  -0.49003
 Alpha  occ. eigenvalues --   -0.48822  -0.48476  -0.48376  -0.48200  -0.48104
 Alpha  occ. eigenvalues --   -0.47726  -0.47657  -0.47438  -0.47294  -0.47213
 Alpha  occ. eigenvalues --   -0.47088  -0.46915  -0.46843  -0.46509  -0.46440
 Alpha  occ. eigenvalues --   -0.45939  -0.45900  -0.45825  -0.45737  -0.45560
 Alpha  occ. eigenvalues --   -0.45371  -0.45207  -0.45005  -0.44784  -0.44676
 Alpha  occ. eigenvalues --   -0.44531  -0.44306  -0.44072  -0.43833  -0.43092
 Alpha  occ. eigenvalues --   -0.43008  -0.42414  -0.42322  -0.41665  -0.41654
 Alpha  occ. eigenvalues --   -0.41317  -0.41096  -0.41067  -0.40894  -0.40761
 Alpha  occ. eigenvalues --   -0.40726  -0.40556  -0.40209  -0.40075  -0.39918
 Alpha  occ. eigenvalues --   -0.39795  -0.39239  -0.39118  -0.39084  -0.38939
 Alpha  occ. eigenvalues --   -0.38871  -0.38383  -0.38008  -0.37928  -0.37458
 Alpha  occ. eigenvalues --   -0.37141  -0.36983  -0.36599  -0.36545  -0.36100
 Alpha  occ. eigenvalues --   -0.35869  -0.34837  -0.34435  -0.34247  -0.34062
 Alpha  occ. eigenvalues --   -0.33726  -0.33090  -0.32877  -0.31959  -0.31502
 Alpha  occ. eigenvalues --   -0.31073  -0.30979  -0.28009  -0.25266  -0.24772
 Alpha  occ. eigenvalues --   -0.22870
 Alpha virt. eigenvalues --   -0.12210  -0.09547  -0.09381  -0.09347  -0.08887
 Alpha virt. eigenvalues --   -0.08827  -0.08067  -0.06613  -0.06189  -0.05764
 Alpha virt. eigenvalues --   -0.04812  -0.04587  -0.04504  -0.03036  -0.02717

 Mulliken charges:
               1
     1  N   -0.782376
     2  H    0.415384
     3  H    0.446008
     4  H    0.418860
     5  C   -0.117957
     6  H    0.221840
     7  C    0.630348
     8  C   -0.057713
     9  H    0.196105
    10  H    0.183207
    11  O   -0.521879
    12  O   -0.630847
    13  H    0.449908
    14  N   -0.570476
    15  H    0.357936
    16  C   -0.091801
    17  H    0.206916
    18  C    0.656176
    19  C   -0.467456
    20  H    0.184276
    21  H    0.173761
    22  H    0.191849
    23  O   -0.569764
    24  N   -0.568545
    25  H    0.358326
    26  C   -0.122848
    27  H    0.190171
    28  C    0.620726
    29  C    0.129822
    30  H    0.167392
    31  O   -0.548152
    32  C   -0.485175
    33  H    0.150312
    34  H    0.154560
    35  H    0.209944
    36  O   -0.657271
    37  H    0.419400
    38  N   -0.580862
    39  H    0.345221
    40  C   -0.042040
    41  H    0.166393
    42  C    0.627695
    43  C   -0.105418
    44  H    0.148221
    45  O   -0.557941
    46  C   -0.469139
    47  H    0.146227
    48  H    0.178054
    49  H    0.165844
    50  C   -0.447416
    51  H    0.152142
    52  H    0.150189
    53  H    0.163010
    54  N   -0.605156
    55  H    0.343920
    56  C   -0.026899
    57  H    0.153500
    58  C    0.650314
    59  C   -0.112095
    60  H    0.121852
    61  O   -0.534118
    62  C   -0.264514
    63  H    0.157486
    64  H    0.147419
    65  C   -0.452732
    66  H    0.192727
    67  H    0.134953
    68  H    0.147645
    69  C   -0.462819
    70  H    0.156633
    71  H    0.152302
    72  H    0.141609
    73  N   -0.632650
    74  H    0.382170
    75  C   -0.048611
    76  H    0.194558
    77  C    0.620969
    78  C   -0.374401
    79  H    0.256509
    80  H    0.197791
    81  O   -0.530856
    82  C    0.618409
    83  O   -0.524654
    84  O   -0.547494
    85  N   -0.620949
    86  H    0.362145
    87  C   -0.016747
    88  H    0.179546
    89  C    0.650012
    90  C   -0.401899
    91  H    0.139895
    92  H    0.188062
    93  O   -0.606721
    94  C    0.303036
    95  C   -0.081794
    96  H    0.138711
    97  N   -0.641126
    98  H    0.366474
    99  C    0.204161
   100  H    0.180121
   101  N   -0.420781
   102  N   -0.580269
   103  H    0.356301
   104  C   -0.031517
   105  H    0.187584
   106  C    0.619736
   107  C   -0.301862
   108  H    0.145827
   109  H    0.158512
   110  O   -0.502762
   111  C   -0.059215
   112  H    0.206300
   113  C   -0.497643
   114  H    0.119760
   115  H    0.119848
   116  H    0.217427
   117  C   -0.490033
   118  H    0.139214
   119  H    0.102025
   120  H    0.183294
   121  N   -0.655467
   122  H    0.336649
   123  C   -0.100214
   124  H    0.181122
   125  C    0.579456
   126  C   -0.295080
   127  H    0.202681
   128  H    0.126268
   129  O   -0.562272
   130  C   -0.305917
   131  H    0.171520
   132  H    0.167228
   133  C   -0.163976
   134  H    0.175535
   135  H    0.171093
   136  N   -0.628299
   137  H    0.407300
   138  N   -0.763538
   139  H    0.375200
   140  H    0.384976
   141  N   -0.855348
   142  H    0.369555
   143  H    0.434513
   144  C    0.807763
   145  O   -0.627412
   146  H    0.417077
 Sum of Mulliken charges =   1.00000

 Dipole moment (field-independent basis, Debye):
    X=              4.4844    Y=              1.3194    Z=             -3.3427  Tot=              5.7467
 Quadrupole moment (field-independent basis, Debye-Ang):
   XX=           -180.5315   YY=           -386.1117   ZZ=           -423.4210
   XY=            -53.0774   XZ=             25.9132   YZ=             15.4764

 Normal termination of Gaussian 16 at Sun Jun 12 09:17:59 2022.
