 Gaussian 16, Revision C.01,
 Gaussian 16:  ES64L-G16RevC.01  3-Jul-2019

 ----------------------------------------------------------------------
 # B3LYP/6-31G* empiricaldispersion=gd3 guess=read geom=check nosymm in
 tegral(ultrafinegrid)
 ----------------------------------------------------------------------

 ------------------------------------------------------
 Candidate Structure: Conf:250 Charge calc in gas phase
 ------------------------------------------------------
 Structure from the checkpoint file:  "conf-250.chk"
 Charge =  1 Multiplicity = 1

                          Input orientation:
 ---------------------------------------------------------------------
 Center     Atomic      Atomic             Coordinates (Angstroms)
 Number     Number       Type             X           Y           Z
 ---------------------------------------------------------------------
      1          7           0       -1.991391    4.121900   -1.862799
      2          1           0       -1.382371    4.929545   -1.696356
      3          1           0       -2.473884    4.173074   -2.808111
      4          1           0       -2.702471    4.100464   -1.125480
      5          6           0       -1.222174    2.828762   -1.967415
      6          1           0       -0.157202    3.059328   -1.917997
      7          6           0       -1.613860    2.289235   -3.359295
      8          6           0       -1.584401    1.870077   -0.814960
      9          1           0       -2.625343    1.544579   -0.923207
     10          1           0       -1.467527    2.411924    0.137447
     11          8           0       -2.431234    2.938248   -4.023379
     12          8           0       -0.691665    0.785526   -0.888307
     13          1           0       -1.192756   -0.045665   -0.700298
     14          7           0       -1.022548    1.148640   -3.745992
     15          1           0       -0.487654    0.669552   -3.020292
     16          6           0       -1.716814    0.293993   -4.706883
     17          1           0       -2.116198    0.942788   -5.492002
     18          6           0       -2.915042   -0.348752   -3.949696
     19          6           0       -0.748331   -0.728459   -5.308170
     20          1           0       -1.211107   -1.284090   -6.128543
     21          1           0       -0.428456   -1.454872   -4.553679
     22          1           0        0.129553   -0.215343   -5.710280
     23          8           0       -3.249269    0.081454   -2.837764
     24          7           0       -3.533393   -1.386938   -4.536155
     25          1           0       -3.203314   -1.796556   -5.403745
     26          6           0       -4.579352   -2.173299   -3.870913
     27          1           0       -5.193419   -1.489064   -3.277284
     28          6           0       -3.896064   -3.214573   -2.943178
     29          6           0       -5.411472   -2.885706   -4.954353
     30          1           0       -6.091237   -3.577737   -4.441024
     31          8           0       -3.990517   -4.425373   -3.142239
     32          6           0       -6.209047   -1.920977   -5.819273
     33          1           0       -6.923153   -1.353734   -5.212825
     34          1           0       -5.548611   -1.212942   -6.330603
     35          1           0       -6.759307   -2.482617   -6.578531
     36          8           0       -4.519166   -3.606784   -5.805652
     37          1           0       -4.199861   -4.353711   -5.265542
     38          7           0       -3.137902   -2.663111   -1.967842
     39          1           0       -3.147448   -1.652669   -1.850661
     40          6           0       -2.183340   -3.402430   -1.160906
     41          1           0       -2.602889   -4.389025   -0.936405
     42          6           0       -1.965281   -2.571982    0.103248
     43          6           0       -0.789175   -3.585473   -1.860627
     44          1           0       -0.339025   -2.584074   -1.914400
     45          8           0       -2.007802   -1.327974    0.054881
     46          6           0        0.141012   -4.500993   -1.048141
     47          1           0       -0.327525   -5.481998   -0.891898
     48          1           0        0.423397   -4.087707   -0.078203
     49          1           0        1.073190   -4.658747   -1.595560
     50          6           0       -0.922384   -4.127595   -3.290843
     51          1           0       -1.397371   -5.112726   -3.298811
     52          1           0       -1.516427   -3.470587   -3.931322
     53          1           0        0.074857   -4.221439   -3.735675
     54          7           0       -1.662352   -3.221591    1.237911
     55          1           0       -1.568745   -4.229476    1.207268
     56          6           0       -1.048089   -2.528898    2.382321
     57          1           0       -1.497131   -1.534044    2.416293
     58          6           0        0.459828   -2.419974    2.052466
     59          6           0       -1.303871   -3.268709    3.702458
     60          1           0       -0.756909   -4.219387    3.646085
     61          8           0        1.259407   -3.283233    2.388495
     62          6           0       -2.801727   -3.584012    3.909987
     63          1           0       -2.900303   -4.092303    4.877255
     64          1           0       -3.130410   -4.310385    3.155448
     65          6           0       -0.704820   -2.463606    4.866877
     66          1           0       -1.145865   -1.462423    4.937242
     67          1           0        0.377196   -2.352505    4.751341
     68          1           0       -0.889286   -2.977370    5.815873
     69          6           0       -3.743151   -2.373350    3.871482
     70          1           0       -4.772115   -2.683689    4.081034
     71          1           0       -3.469743   -1.619713    4.617981
     72          1           0       -3.742410   -1.890101    2.887011
     73          7           0        0.795543   -1.362254    1.250142
     74          1           0        0.149332   -0.586127    1.182321
     75          6           0        2.187165   -1.076594    0.956257
     76          1           0        2.708047   -2.035103    0.897087
     77          6           0        2.793430   -0.181024    2.048328
     78          6           0        2.314594   -0.332003   -0.386179
     79          1           0        1.624474    0.513198   -0.430106
     80          1           0        3.332464    0.069562   -0.489015
     81          8           0        2.118270    0.688283    2.596117
     82          6           0        2.091013   -1.257827   -1.560624
     83          8           0        2.418870   -2.419781   -1.609358
     84          8           0        1.498819   -0.629997   -2.619352
     85          7           0        4.118376   -0.373593    2.284986
     86          1           0        4.620669   -1.027033    1.695806
     87          6           0        4.923934    0.660759    2.946957
     88          1           0        4.372839    0.983512    3.834120
     89          6           0        5.062998    1.811160    1.932072
     90          6           0        6.309095    0.128607    3.341650
     91          1           0        6.850891   -0.124343    2.424212
     92          1           0        6.186655   -0.790819    3.927290
     93          8           0        5.887722    1.752792    1.018749
     94          6           0        7.083894    1.159919    4.100989
     95          6           0        7.817214    2.250644    3.691897
     96          1           0        8.039531    2.575109    2.682945
     97          7           0        7.075665    1.236684    5.486633
     98          1           0        6.657585    0.567585    6.117562
     99          6           0        7.803631    2.337601    5.840032
    100          1           0        7.969052    2.615585    6.872494
    101          7           0        8.260193    2.973670    4.782589
    102          7           0        4.159153    2.806733    2.062165
    103          1           0        3.425604    2.691589    2.750116
    104          6           0        3.966076    3.810524    1.013271
    105          1           0        4.317724    3.346776    0.085309
    106          6           0        4.839705    5.062393    1.293188
    107          6           0        2.481984    4.168966    0.929345
    108          1           0        1.897910    3.236471    0.955636
    109          1           0        2.227262    4.751105    1.822415
    110          8           0        4.325284    6.150075    1.564506
    111          6           0        2.091812    4.978206   -0.318927
    112          1           0        2.726036    5.870372   -0.348253
    113          6           0        2.302622    4.175221   -1.611832
    114          1           0        1.839225    3.179292   -1.542055
    115          1           0        1.883120    4.694729   -2.482986
    116          1           0        3.364012    4.011981   -1.821533
    117          6           0        0.637721    5.450188   -0.172478
    118          1           0       -0.027906    4.593271    0.017883
    119          1           0        0.305363    5.989636   -1.074512
    120          1           0        0.524548    6.135129    0.673877
    121          7           0        6.162368    4.836668    1.208844
    122          1           0        6.517673    3.899386    1.031857
    123          6           0        7.164730    5.845870    1.535458
    124          1           0        6.896185    6.782857    1.041839
    125          6           0        8.544532    5.393302    1.025933
    126          6           0        7.234940    6.075891    3.070643
    127          1           0        7.159290    5.104295    3.570153
    128          1           0        6.351020    6.655735    3.355585
    129          8           0        9.332877    6.271317    0.638102
    130          6           0        8.518057    6.793265    3.540920
    131          1           0        8.805265    7.533717    2.785873
    132          1           0        8.303642    7.339671    4.466348
    133          6           0        9.711384    5.829353    3.797297
    134          1           0        9.918298    5.753184    4.869547
    135          1           0        9.486621    4.820315    3.463033
    136          7           0       10.949903    6.277135    3.137632
    137          1           0       11.130006    7.271023    3.191596
    138          7           0       11.351164    4.388754    1.810664
    139          1           0       12.036890    3.945013    1.213533
    140          1           0       10.327451    4.178326    1.557121
    141          7           0       12.849316    6.166811    1.815328
    142          1           0       13.091136    6.027619    0.843148
    143          1           0       13.108091    7.073834    2.179519
    144          6           0       11.669747    5.609996    2.232020
    145          8           0        8.798925    4.142967    1.186034
    146          1           0        1.510615   -1.278406   -3.349523
 ---------------------------------------------------------------------

 SCF Done:  E(RB3LYP) =  -3503.60207505     A.U. after    2 cycles

 Alpha  occ. eigenvalues --  -19.29784 -19.26377 -19.25939 -19.23658 -19.23172
 Alpha  occ. eigenvalues --  -19.22818 -19.21806 -19.20583 -19.20390 -19.20091
 Alpha  occ. eigenvalues --  -19.18224 -19.15057 -19.12131 -19.10853 -14.58856
 Alpha  occ. eigenvalues --  -14.47832 -14.46957 -14.46816 -14.44819 -14.44502
 Alpha  occ. eigenvalues --  -14.44156 -14.44138 -14.43614 -14.43428 -14.42764
 Alpha  occ. eigenvalues --  -14.39906 -14.38435 -14.35799 -10.42438 -10.41848
 Alpha  occ. eigenvalues --  -10.39800 -10.39781 -10.38903 -10.38789 -10.37528
 Alpha  occ. eigenvalues --  -10.37265 -10.37120 -10.37018 -10.35212 -10.35016
 Alpha  occ. eigenvalues --  -10.32676 -10.32375 -10.32176 -10.32140 -10.31821
 Alpha  occ. eigenvalues --  -10.31801 -10.30921 -10.29796 -10.29778 -10.29183
 Alpha  occ. eigenvalues --  -10.28976 -10.28680 -10.28442 -10.27915 -10.27074
 Alpha  occ. eigenvalues --  -10.26801 -10.26792 -10.26768 -10.26315 -10.26284
 Alpha  occ. eigenvalues --  -10.25608 -10.25382 -10.25290 -10.24854 -10.24847
 Alpha  occ. eigenvalues --  -10.24207 -10.24205 -10.24084 -10.23374 -10.22373
 Alpha  occ. eigenvalues --  -10.21061  -1.20230  -1.18468  -1.15134  -1.14755
 Alpha  occ. eigenvalues --   -1.13944  -1.12734  -1.12617  -1.12357  -1.11764
 Alpha  occ. eigenvalues --   -1.11264  -1.10144  -1.09261  -1.07411  -1.06697
 Alpha  occ. eigenvalues --   -1.05912  -1.05155  -1.04754  -1.03188  -1.02932
 Alpha  occ. eigenvalues --   -1.01165  -1.01059  -1.01001  -0.99177  -0.97206
 Alpha  occ. eigenvalues --   -0.96173  -0.94985  -0.94336  -0.91636  -0.91255
 Alpha  occ. eigenvalues --   -0.89967  -0.89436  -0.88743  -0.88181  -0.87830
 Alpha  occ. eigenvalues --   -0.86109  -0.85250  -0.82945  -0.82597  -0.81970
 Alpha  occ. eigenvalues --   -0.80891  -0.79616  -0.79309  -0.78909  -0.77964
 Alpha  occ. eigenvalues --   -0.77726  -0.77238  -0.76513  -0.76063  -0.75563
 Alpha  occ. eigenvalues --   -0.73884  -0.73087  -0.72094  -0.71668  -0.71555
 Alpha  occ. eigenvalues --   -0.70503  -0.70161  -0.69833  -0.69297  -0.68993
 Alpha  occ. eigenvalues --   -0.68345  -0.68158  -0.67848  -0.67333  -0.66800
 Alpha  occ. eigenvalues --   -0.66213  -0.66123  -0.65917  -0.65736  -0.64985
 Alpha  occ. eigenvalues --   -0.64921  -0.64027  -0.63981  -0.63339  -0.62815
 Alpha  occ. eigenvalues --   -0.62586  -0.61974  -0.61069  -0.60889  -0.60681
 Alpha  occ. eigenvalues --   -0.60424  -0.59732  -0.59600  -0.59345  -0.58983
 Alpha  occ. eigenvalues --   -0.58534  -0.58134  -0.57975  -0.57855  -0.57492
 Alpha  occ. eigenvalues --   -0.57404  -0.57284  -0.56259  -0.56012  -0.55879
 Alpha  occ. eigenvalues --   -0.55634  -0.55478  -0.55308  -0.55177  -0.54803
 Alpha  occ. eigenvalues --   -0.54479  -0.54405  -0.54095  -0.54034  -0.53335
 Alpha  occ. eigenvalues --   -0.52702  -0.52564  -0.52536  -0.52472  -0.52237
 Alpha  occ. eigenvalues --   -0.51993  -0.51694  -0.51375  -0.50769  -0.50734
 Alpha  occ. eigenvalues --   -0.50581  -0.50296  -0.50063  -0.49984  -0.49802
 Alpha  occ. eigenvalues --   -0.49584  -0.49405  -0.49213  -0.48969  -0.48738
 Alpha  occ. eigenvalues --   -0.48711  -0.48506  -0.48171  -0.47996  -0.47786
 Alpha  occ. eigenvalues --   -0.47606  -0.47530  -0.47160  -0.46959  -0.46748
 Alpha  occ. eigenvalues --   -0.46615  -0.46346  -0.46262  -0.46177  -0.45936
 Alpha  occ. eigenvalues --   -0.45859  -0.45615  -0.45539  -0.45277  -0.45137
 Alpha  occ. eigenvalues --   -0.45085  -0.44953  -0.44892  -0.44562  -0.44460
 Alpha  occ. eigenvalues --   -0.44298  -0.44152  -0.43785  -0.43432  -0.43355
 Alpha  occ. eigenvalues --   -0.43085  -0.42736  -0.42384  -0.41965  -0.41872
 Alpha  occ. eigenvalues --   -0.41739  -0.41380  -0.41286  -0.40982  -0.40800
 Alpha  occ. eigenvalues --   -0.40502  -0.40432  -0.40154  -0.40081  -0.40013
 Alpha  occ. eigenvalues --   -0.39823  -0.39553  -0.39426  -0.39181  -0.38416
 Alpha  occ. eigenvalues --   -0.37938  -0.37878  -0.37250  -0.37118  -0.36882
 Alpha  occ. eigenvalues --   -0.36508  -0.36411  -0.35845  -0.35304  -0.35158
 Alpha  occ. eigenvalues --   -0.34422  -0.33731  -0.33664  -0.33088  -0.32983
 Alpha  occ. eigenvalues --   -0.32657  -0.32576  -0.31569  -0.31401  -0.31097
 Alpha  occ. eigenvalues --   -0.28634  -0.28505  -0.27335  -0.27024  -0.26626
 Alpha  occ. eigenvalues --   -0.24588
 Alpha virt. eigenvalues --   -0.11424  -0.09962  -0.09650  -0.09466  -0.09048
 Alpha virt. eigenvalues --   -0.07069  -0.06388  -0.05789  -0.05082  -0.04874
 Alpha virt. eigenvalues --   -0.04439  -0.04176  -0.03915  -0.02466  -0.01590

 Mulliken charges:
               1
     1  N   -0.772848
     2  H    0.414692
     3  H    0.432801
     4  H    0.411889
     5  C   -0.137408
     6  H    0.236558
     7  C    0.651950
     8  C   -0.044424
     9  H    0.196142
    10  H    0.157501
    11  O   -0.536271
    12  O   -0.662657
    13  H    0.470419
    14  N   -0.583643
    15  H    0.391418
    16  C   -0.091441
    17  H    0.221574
    18  C    0.645435
    19  C   -0.494833
    20  H    0.184119
    21  H    0.163213
    22  H    0.191327
    23  O   -0.558357
    24  N   -0.600162
    25  H    0.360911
    26  C   -0.085535
    27  H    0.189661
    28  C    0.632515
    29  C    0.107618
    30  H    0.160858
    31  O   -0.536346
    32  C   -0.448641
    33  H    0.151884
    34  H    0.148217
    35  H    0.181506
    36  O   -0.647579
    37  H    0.421097
    38  N   -0.646455
    39  H    0.387295
    40  C   -0.034185
    41  H    0.179485
    42  C    0.651641
    43  C   -0.088848
    44  H    0.117187
    45  O   -0.603951
    46  C   -0.484429
    47  H    0.144106
    48  H    0.171322
    49  H    0.185232
    50  C   -0.457020
    51  H    0.181138
    52  H    0.133724
    53  H    0.150771
    54  N   -0.594804
    55  H    0.355846
    56  C   -0.053297
    57  H    0.174532
    58  C    0.637892
    59  C   -0.102821
    60  H    0.156059
    61  O   -0.520812
    62  C   -0.257138
    63  H    0.152500
    64  H    0.129183
    65  C   -0.470380
    66  H    0.146000
    67  H    0.172983
    68  H    0.161593
    69  C   -0.461105
    70  H    0.159838
    71  H    0.153870
    72  H    0.145455
    73  N   -0.596985
    74  H    0.343512
    75  C   -0.080149
    76  H    0.209446
    77  C    0.631251
    78  C   -0.402219
    79  H    0.210890
    80  H    0.211681
    81  O   -0.542850
    82  C    0.616657
    83  O   -0.444979
    84  O   -0.590840
    85  N   -0.594381
    86  H    0.346716
    87  C   -0.037893
    88  H    0.170722
    89  C    0.629997
    90  C   -0.377268
    91  H    0.192528
    92  H    0.154797
    93  O   -0.547807
    94  C    0.296445
    95  C   -0.091888
    96  H    0.207118
    97  N   -0.611433
    98  H    0.332169
    99  C    0.213369
   100  H    0.160206
   101  N   -0.450163
   102  N   -0.591408
   103  H    0.354057
   104  C   -0.067296
   105  H    0.171360
   106  C    0.635826
   107  C   -0.288185
   108  H    0.127930
   109  H    0.165710
   110  O   -0.552866
   111  C   -0.069408
   112  H    0.190034
   113  C   -0.479814
   114  H    0.137252
   115  H    0.135396
   116  H    0.182944
   117  C   -0.488129
   118  H    0.104913
   119  H    0.129764
   120  H    0.192563
   121  N   -0.633578
   122  H    0.381019
   123  C    0.011200
   124  H    0.158683
   125  C    0.566029
   126  C   -0.298610
   127  H    0.171054
   128  H    0.158323
   129  O   -0.585728
   130  C   -0.301775
   131  H    0.167360
   132  H    0.138036
   133  C   -0.157845
   134  H    0.165536
   135  H    0.236305
   136  N   -0.575316
   137  H    0.336196
   138  N   -0.757507
   139  H    0.334178
   140  H    0.431334
   141  N   -0.758331
   142  H    0.360768
   143  H    0.347216
   144  C    0.772765
   145  O   -0.630063
   146  H    0.417892
 Sum of Mulliken charges =   1.00000

 Dipole moment (field-independent basis, Debye):
    X=              2.6953    Y=              7.9167    Z=             -1.3750  Tot=              8.4752
 Quadrupole moment (field-independent basis, Debye-Ang):
   XX=           -231.2626   YY=           -349.7524   ZZ=           -343.5404
   XY=             50.1940   XZ=             57.8214   YZ=              1.4334

 Normal termination of Gaussian 16 at Sun Jun 12 09:23:25 2022.
