 Gaussian 16, Revision C.01,
 Gaussian 16:  ES64L-G16RevC.01  3-Jul-2019

 ----------------------------------------------------------------------
 # B3LYP/6-31G* empiricaldispersion=gd3 guess=read geom=check nosymm in
 tegral(ultrafinegrid)
 ----------------------------------------------------------------------

 ------------------------------------------------------
 Candidate Structure: Conf:669 Charge calc in gas phase
 ------------------------------------------------------
 Structure from the checkpoint file:  "conf-669.chk"
 Charge =  1 Multiplicity = 1

                          Input orientation:
 ---------------------------------------------------------------------
 Center     Atomic      Atomic             Coordinates (Angstroms)
 Number     Number       Type             X           Y           Z
 ---------------------------------------------------------------------
      1          7           0       -9.629994   -7.059323   -7.233223
      2          1           0       -9.776243   -6.846102   -8.223868
      3          1           0       -8.759036   -7.637250   -7.146631
      4          1           0      -10.471565   -7.522469   -6.855737
      5          6           0       -9.339314   -5.835163   -6.404249
      6          1           0       -9.784152   -4.968858   -6.897550
      7          6           0       -7.795758   -5.779574   -6.318281
      8          6           0       -9.973176   -6.054398   -5.022117
      9          1           0       -9.963644   -5.102027   -4.477502
     10          1           0       -9.380722   -6.787441   -4.454544
     11          8           0       -7.170900   -6.805667   -6.613047
     12          8           0      -11.286523   -6.525797   -5.285748
     13          1           0      -11.733377   -6.750720   -4.454096
     14          7           0       -7.279196   -4.639315   -5.877226
     15          1           0       -7.846822   -3.827051   -5.625190
     16          6           0       -5.853976   -4.427996   -5.621622
     17          1           0       -5.477780   -5.272722   -5.032755
     18          6           0       -5.795238   -3.136064   -4.779167
     19          6           0       -5.047365   -4.307934   -6.923562
     20          1           0       -3.986222   -4.162331   -6.702050
     21          1           0       -5.398628   -3.456030   -7.514084
     22          1           0       -5.155150   -5.224175   -7.509588
     23          8           0       -6.821482   -2.446839   -4.649184
     24          7           0       -4.602965   -2.837920   -4.265563
     25          1           0       -3.820546   -3.489955   -4.321230
     26          6           0       -4.267143   -1.632077   -3.504140
     27          1           0       -4.605772   -0.747150   -4.054066
     28          6           0       -2.733194   -1.662963   -3.411164
     29          6           0       -4.979497   -1.607380   -2.104416
     30          1           0       -5.010249   -2.658256   -1.767721
     31          8           0       -2.133433   -2.740020   -3.444709
     32          6           0       -4.268753   -0.776646   -1.040423
     33          1           0       -3.289335   -1.194005   -0.787340
     34          1           0       -4.136539    0.263097   -1.352472
     35          1           0       -4.890328   -0.778182   -0.140649
     36          8           0       -6.280178   -1.067931   -2.233854
     37          1           0       -6.707973   -1.478622   -3.008777
     38          7           0       -2.137591   -0.460410   -3.296276
     39          1           0       -2.706325    0.366212   -3.133778
     40          6           0       -0.762776   -0.301880   -2.839224
     41          1           0       -0.450370   -1.251459   -2.391566
     42          6           0       -0.801245    0.802894   -1.768189
     43          6           0        0.222761    0.055537   -3.985770
     44          1           0        1.211190    0.163591   -3.516079
     45          8           0       -1.745513    1.594209   -1.711482
     46          6           0        0.296246   -1.087821   -5.005362
     47          1           0       -0.669139   -1.220674   -5.506191
     48          1           0        0.555476   -2.038828   -4.529218
     49          1           0        1.046956   -0.865889   -5.771439
     50          6           0       -0.140877    1.385415   -4.659299
     51          1           0       -1.128660    1.321254   -5.130640
     52          1           0       -0.162640    2.217380   -3.947732
     53          1           0        0.586784    1.625771   -5.441224
     54          7           0        0.264215    0.838625   -0.941953
     55          1           0        1.051007    0.215537   -1.087104
     56          6           0        0.474367    1.872109    0.063507
     57          1           0       -0.213795    2.691795   -0.157173
     58          6           0        1.932370    2.315011   -0.080508
     59          6           0        0.224315    1.334275    1.502874
     60          1           0        0.932383    0.503184    1.635826
     61          8           0        2.813933    1.471038   -0.294870
     62          6           0       -1.198172    0.757306    1.668160
     63          1           0       -1.233764    0.260440    2.647133
     64          1           0       -1.348441   -0.033284    0.922442
     65          6           0        0.544670    2.402950    2.562006
     66          1           0        0.001291    3.337251    2.378674
     67          1           0        1.612261    2.641909    2.590813
     68          1           0        0.252413    2.045471    3.555812
     69          6           0       -2.346412    1.769225    1.569748
     70          1           0       -3.305610    1.264353    1.730627
     71          1           0       -2.261511    2.557508    2.325829
     72          1           0       -2.385710    2.233229    0.580066
     73          7           0        2.182244    3.629784    0.070661
     74          1           0        1.468258    4.257717    0.431664
     75          6           0        3.543143    4.167600    0.097767
     76          1           0        4.128203    3.592133   -0.627261
     77          6           0        4.209895    3.981955    1.481000
     78          6           0        3.559066    5.644956   -0.302378
     79          1           0        4.585187    6.014371   -0.326552
     80          1           0        3.138738    5.749033   -1.310218
     81          8           0        4.617955    4.942699    2.133916
     82          6           0        2.732466    6.506441    0.631114
     83          8           0        1.696167    6.148049    1.166059
     84          8           0        3.228341    7.743850    0.757421
     85          7           0        4.315206    2.693534    1.890122
     86          1           0        4.096333    1.960573    1.217043
     87          6           0        5.053949    2.334541    3.101823
     88          1           0        4.932362    3.161820    3.805960
     89          6           0        6.540856    2.171147    2.713409
     90          6           0        4.505429    1.030385    3.698240
     91          1           0        4.781350    0.208059    3.031025
     92          1           0        3.410506    1.092086    3.724536
     93          8           0        7.016597    1.058260    2.488084
     94          6           0        5.039541    0.764830    5.071443
     95          6           0        6.264233    0.356339    5.547153
     96          1           0        7.165507    0.116224    4.994591
     97          7           0        4.267277    0.973513    6.206473
     98          1           0        3.305274    1.282038    6.216350
     99          6           0        5.026090    0.681132    7.295128
    100          1           0        4.657677    0.751801    8.309126
    101          7           0        6.236914    0.305058    6.931782
    102          7           0        7.216920    3.328875    2.550421
    103          1           0        6.728393    4.199958    2.724636
    104          6           0        8.521181    3.375915    1.878554
    105          1           0        8.568186    2.469864    1.265073
    106          6           0        9.691189    3.294458    2.893605
    107          6           0        8.643327    4.620997    0.995755
    108          1           0        8.760202    5.500889    1.639629
    109          1           0        9.590461    4.535114    0.450274
    110          8           0       10.536507    4.185754    2.964289
    111          6           0        7.486164    4.847823    0.004137
    112          1           0        6.587112    5.089523    0.585241
    113          6           0        7.794117    6.059821   -0.886603
    114          1           0        8.670809    5.868614   -1.518186
    115          1           0        6.950881    6.290436   -1.550510
    116          1           0        8.003971    6.952178   -0.285812
    117          6           0        7.180177    3.607441   -0.848964
    118          1           0        8.072498    3.278070   -1.396279
    119          1           0        6.404392    3.827269   -1.594390
    120          1           0        6.832697    2.763836   -0.241964
    121          7           0        9.698487    2.176951    3.651962
    122          1           0        9.039004    1.419063    3.485149
    123          6           0       10.809694    1.841140    4.532832
    124          1           0       11.750807    1.980163    3.989587
    125          6           0       10.681163    0.367277    4.968300
    126          6           0       10.857676    2.740463    5.790524
    127          1           0       10.804180    3.778160    5.448269
    128          1           0       11.837548    2.604159    6.260927
    129          8           0       11.697370   -0.066245    5.601809
    130          6           0        9.740574    2.469611    6.819323
    131          1           0        9.553129    3.390684    7.383303
    132          1           0        8.810853    2.245595    6.280954
    133          6           0       10.040422    1.330821    7.839715
    134          1           0       11.036144    0.921816    7.677969
    135          1           0       10.007794    1.728444    8.861685
    136          7           0        9.066475    0.237572    7.766220
    137          1           0        8.084845    0.504570    7.674837
    138          7           0       10.530411   -1.555229    7.398444
    139          1           0       10.557418   -2.559941    7.273880
    140          1           0       11.144996   -1.019147    6.690918
    141          7           0        8.218371   -1.898914    7.608912
    142          1           0        8.273488   -2.679489    6.966298
    143          1           0        7.318603   -1.421396    7.573794
    144          6           0        9.298660   -1.056651    7.555999
    145          8           0        9.594797   -0.225322    4.773409
    146          1           0        2.628812    8.237015    1.349862
 ---------------------------------------------------------------------

 SCF Done:  E(RB3LYP) =  -3503.59752342     A.U. after    3 cycles

 Alpha  occ. eigenvalues --  -19.31854 -19.27819 -19.25813 -19.24122 -19.20636
 Alpha  occ. eigenvalues --  -19.20443 -19.20183 -19.19533 -19.19477 -19.18621
 Alpha  occ. eigenvalues --  -19.15773 -19.11565 -19.08965 -19.08963 -14.61175
 Alpha  occ. eigenvalues --  -14.50792 -14.47053 -14.45133 -14.44087 -14.43703
 Alpha  occ. eigenvalues --  -14.43541 -14.42298 -14.39790 -14.38965 -14.38915
 Alpha  occ. eigenvalues --  -14.37819 -14.36097 -14.34838 -10.44957 -10.42246
 Alpha  occ. eigenvalues --  -10.40927 -10.40879 -10.38854 -10.37646 -10.36474
 Alpha  occ. eigenvalues --  -10.36360 -10.36274 -10.35406 -10.34691 -10.32735
 Alpha  occ. eigenvalues --  -10.32457 -10.31922 -10.30917 -10.30717 -10.30332
 Alpha  occ. eigenvalues --  -10.30049 -10.29486 -10.29034 -10.28686 -10.27427
 Alpha  occ. eigenvalues --  -10.26965 -10.26733 -10.26622 -10.26207 -10.25786
 Alpha  occ. eigenvalues --  -10.25186 -10.24305 -10.24279 -10.24127 -10.24100
 Alpha  occ. eigenvalues --  -10.23988 -10.23754 -10.23590 -10.22309 -10.22093
 Alpha  occ. eigenvalues --  -10.21239 -10.20991 -10.20666 -10.20484 -10.20012
 Alpha  occ. eigenvalues --  -10.18402  -1.20721  -1.19023  -1.16961  -1.15862
 Alpha  occ. eigenvalues --   -1.14831  -1.12662  -1.11748  -1.11042  -1.10229
 Alpha  occ. eigenvalues --   -1.08342  -1.07873  -1.07632  -1.07359  -1.07144
 Alpha  occ. eigenvalues --   -1.03656  -1.03502  -1.03290  -1.02024  -1.00967
 Alpha  occ. eigenvalues --   -1.00382  -1.00139  -0.98748  -0.96077  -0.94311
 Alpha  occ. eigenvalues --   -0.93733  -0.93155  -0.92873  -0.91251  -0.90758
 Alpha  occ. eigenvalues --   -0.89678  -0.88570  -0.87288  -0.86115  -0.85055
 Alpha  occ. eigenvalues --   -0.84965  -0.83940  -0.81707  -0.80978  -0.80134
 Alpha  occ. eigenvalues --   -0.80039  -0.79490  -0.78539  -0.77768  -0.77423
 Alpha  occ. eigenvalues --   -0.76575  -0.75813  -0.74983  -0.74860  -0.74744
 Alpha  occ. eigenvalues --   -0.74097  -0.72477  -0.71716  -0.71448  -0.70297
 Alpha  occ. eigenvalues --   -0.70082  -0.69079  -0.68932  -0.68377  -0.67640
 Alpha  occ. eigenvalues --   -0.67441  -0.66991  -0.66637  -0.66222  -0.66039
 Alpha  occ. eigenvalues --   -0.65899  -0.65338  -0.64908  -0.64120  -0.63932
 Alpha  occ. eigenvalues --   -0.63822  -0.63191  -0.62771  -0.61846  -0.61512
 Alpha  occ. eigenvalues --   -0.61415  -0.61075  -0.59971  -0.59624  -0.59531
 Alpha  occ. eigenvalues --   -0.59391  -0.59049  -0.58847  -0.58537  -0.57744
 Alpha  occ. eigenvalues --   -0.57236  -0.57074  -0.56986  -0.56445  -0.56151
 Alpha  occ. eigenvalues --   -0.55852  -0.55562  -0.55099  -0.54970  -0.54741
 Alpha  occ. eigenvalues --   -0.54374  -0.54105  -0.53970  -0.53712  -0.53215
 Alpha  occ. eigenvalues --   -0.52856  -0.52044  -0.51849  -0.51785  -0.51553
 Alpha  occ. eigenvalues --   -0.51488  -0.51248  -0.51129  -0.51031  -0.50487
 Alpha  occ. eigenvalues --   -0.50217  -0.50060  -0.49910  -0.49870  -0.49473
 Alpha  occ. eigenvalues --   -0.49271  -0.48994  -0.48860  -0.48770  -0.48673
 Alpha  occ. eigenvalues --   -0.48014  -0.47884  -0.47681  -0.46951  -0.46821
 Alpha  occ. eigenvalues --   -0.46706  -0.46669  -0.46490  -0.46158  -0.46067
 Alpha  occ. eigenvalues --   -0.45879  -0.45803  -0.45753  -0.45456  -0.45324
 Alpha  occ. eigenvalues --   -0.45147  -0.45064  -0.44771  -0.44462  -0.44405
 Alpha  occ. eigenvalues --   -0.44356  -0.44183  -0.44128  -0.43976  -0.43949
 Alpha  occ. eigenvalues --   -0.43827  -0.43508  -0.43422  -0.43323  -0.42730
 Alpha  occ. eigenvalues --   -0.42447  -0.42370  -0.41818  -0.41671  -0.41642
 Alpha  occ. eigenvalues --   -0.41047  -0.40928  -0.40654  -0.40439  -0.40367
 Alpha  occ. eigenvalues --   -0.40256  -0.40016  -0.39852  -0.39040  -0.38799
 Alpha  occ. eigenvalues --   -0.38778  -0.38567  -0.38443  -0.38194  -0.38124
 Alpha  occ. eigenvalues --   -0.37985  -0.37613  -0.35984  -0.35972  -0.35785
 Alpha  occ. eigenvalues --   -0.35636  -0.35393  -0.35264  -0.35256  -0.34705
 Alpha  occ. eigenvalues --   -0.34477  -0.34176  -0.34076  -0.34065  -0.33664
 Alpha  occ. eigenvalues --   -0.33250  -0.33044  -0.32877  -0.32766  -0.32153
 Alpha  occ. eigenvalues --   -0.31056  -0.30546  -0.30331  -0.28988  -0.28150
 Alpha  occ. eigenvalues --   -0.27644  -0.25606  -0.24906  -0.24212  -0.23380
 Alpha  occ. eigenvalues --   -0.23025
 Alpha virt. eigenvalues --   -0.13690  -0.11596  -0.09574  -0.07623  -0.06638
 Alpha virt. eigenvalues --   -0.06602  -0.05455  -0.05390  -0.05081  -0.04269
 Alpha virt. eigenvalues --   -0.04171  -0.03287  -0.02959  -0.01958  -0.01544

 Mulliken charges:
               1
     1  N   -0.742123
     2  H    0.421536
     3  H    0.427393
     4  H    0.430909
     5  C   -0.130709
     6  H    0.229344
     7  C    0.649948
     8  C   -0.048783
     9  H    0.200773
    10  H    0.183522
    11  O   -0.531745
    12  O   -0.628537
    13  H    0.441933
    14  N   -0.611415
    15  H    0.375417
    16  C   -0.054545
    17  H    0.199838
    18  C    0.639180
    19  C   -0.454464
    20  H    0.183487
    21  H    0.173600
    22  H    0.191622
    23  O   -0.570230
    24  N   -0.625575
    25  H    0.368838
    26  C   -0.075193
    27  H    0.185081
    28  C    0.602626
    29  C    0.167525
    30  H    0.120080
    31  O   -0.545107
    32  C   -0.477582
    33  H    0.151034
    34  H    0.177451
    35  H    0.175932
    36  O   -0.648728
    37  H    0.423011
    38  N   -0.595191
    39  H    0.364109
    40  C   -0.075379
    41  H    0.179447
    42  C    0.635703
    43  C   -0.077968
    44  H    0.140577
    45  O   -0.546859
    46  C   -0.442226
    47  H    0.145160
    48  H    0.159446
    49  H    0.154066
    50  C   -0.462060
    51  H    0.147852
    52  H    0.161671
    53  H    0.158626
    54  N   -0.607719
    55  H    0.354945
    56  C   -0.057952
    57  H    0.184697
    58  C    0.630217
    59  C   -0.070751
    60  H    0.134479
    61  O   -0.570852
    62  C   -0.261347
    63  H    0.136838
    64  H    0.136352
    65  C   -0.492195
    66  H    0.163596
    67  H    0.166316
    68  H    0.148990
    69  C   -0.471690
    70  H    0.147092
    71  H    0.146389
    72  H    0.182453
    73  N   -0.607162
    74  H    0.378943
    75  C   -0.094689
    76  H    0.207286
    77  C    0.657473
    78  C   -0.383520
    79  H    0.221204
    80  H    0.192972
    81  O   -0.538653
    82  C    0.625309
    83  O   -0.493620
    84  O   -0.546125
    85  N   -0.632110
    86  H    0.380675
    87  C   -0.053018
    88  H    0.180104
    89  C    0.642145
    90  C   -0.372720
    91  H    0.201068
    92  H    0.144220
    93  O   -0.538833
    94  C    0.307723
    95  C   -0.079570
    96  H    0.233092
    97  N   -0.606859
    98  H    0.338690
    99  C    0.222950
   100  H    0.174532
   101  N   -0.503684
   102  N   -0.603634
   103  H    0.358173
   104  C   -0.082520
   105  H    0.183960
   106  C    0.627476
   107  C   -0.277274
   108  H    0.157899
   109  H    0.159317
   110  O   -0.539881
   111  C   -0.096455
   112  H    0.129982
   113  C   -0.443625
   114  H    0.148332
   115  H    0.127739
   116  H    0.151430
   117  C   -0.464462
   118  H    0.152698
   119  H    0.127426
   120  H    0.153372
   121  N   -0.634317
   122  H    0.374323
   123  C   -0.016926
   124  H    0.161189
   125  C    0.587688
   126  C   -0.271039
   127  H    0.165802
   128  H    0.151412
   129  O   -0.627322
   130  C   -0.299374
   131  H    0.134420
   132  H    0.156070
   133  C   -0.152205
   134  H    0.207948
   135  H    0.150387
   136  N   -0.600488
   137  H    0.382948
   138  N   -0.760622
   139  H    0.322511
   140  H    0.420228
   141  N   -0.771998
   142  H    0.340074
   143  H    0.366992
   144  C    0.735302
   145  O   -0.594185
   146  H    0.421230
 Sum of Mulliken charges =   1.00000

 Dipole moment (field-independent basis, Debye):
    X=            -47.1060    Y=            -23.8279    Z=            -24.7490  Tot=             58.3031
 Quadrupole moment (field-independent basis, Debye-Ang):
   XX=           -219.3626   YY=           -226.5190   ZZ=           -181.9068
   XY=            243.6223   XZ=            216.4464   YZ=            161.9606

 Normal termination of Gaussian 16 at Sun Jun 12 09:23:01 2022.
