 Gaussian 16, Revision C.01,
 Gaussian 16:  ES64L-G16RevC.01  3-Jul-2019

 ----------------------------------------------------------------------
 # B3LYP/6-31G* empiricaldispersion=gd3 guess=read geom=check nosymm in
 tegral(ultrafinegrid)
 ----------------------------------------------------------------------

 ------------------------------------------------------
 Candidate Structure: Conf:126 Charge calc in gas phase
 ------------------------------------------------------
 Structure from the checkpoint file:  "conf-126.chk"
 Charge =  1 Multiplicity = 1

                          Input orientation:
 ---------------------------------------------------------------------
 Center     Atomic      Atomic             Coordinates (Angstroms)
 Number     Number       Type             X           Y           Z
 ---------------------------------------------------------------------
      1          7           0       -2.864662   -2.917772    1.557700
      2          1           0       -3.795176   -3.211938    1.256298
      3          1           0       -2.213446   -2.752076    0.687966
      4          1           0       -2.482657   -3.618861    2.196024
      5          6           0       -2.824461   -1.509439    2.117449
      6          1           0       -3.846212   -1.156945    2.268868
      7          6           0       -2.125324   -0.720654    0.978615
      8          6           0       -2.036335   -1.514146    3.439787
      9          1           0       -2.578923   -2.142283    4.158350
     10          1           0       -1.056728   -1.969618    3.247282
     11          8           0       -1.608735   -1.453814    0.059156
     12          6           0       -1.815885   -0.123265    4.070117
     13          1           0       -1.132481    0.455188    3.443414
     14          1           0       -1.361555   -0.264988    5.053413
     15          6           0       -3.130465    0.639127    4.288749
     16          8           0       -3.615842    1.290164    3.218460
     17          8           0       -3.716421    0.617963    5.347071
     18          7           0       -2.112424    0.568563    1.115950
     19          1           0       -3.022156    1.154610    2.408856
     20          6           0       -1.412752    1.366935    0.120289
     21          1           0       -1.556158    0.917432   -0.878356
     22          6           0        0.106784    1.379343    0.406894
     23          6           0       -1.951829    2.802755    0.158312
     24          1           0       -1.366562    3.412171   -0.543092
     25          1           0       -1.724475    3.215610    1.145833
     26          8           0        0.713715    2.417376    0.691434
     27          6           0       -3.420934    2.917205   -0.111653
     28          6           0       -4.353234    3.419226    0.763880
     29          1           0       -4.219880    3.737321    1.788515
     30          6           0       -4.140013    2.580654   -1.316581
     31          6           0       -5.504691    2.947365   -1.108504
     32          6           0       -3.797987    1.986834   -2.550236
     33          1           0       -2.804775    1.575955   -2.716551
     34          7           0       -5.597633    3.447520    0.171208
     35          1           0       -6.449276    3.743024    0.623979
     36          6           0       -6.100821    2.228413   -3.307289
     37          1           0       -6.841998    2.088578   -4.088134
     38          6           0       -6.485091    2.781927   -2.089667
     39          1           0       -7.516149    3.071110   -1.906369
     40          6           0       -4.771007    1.824546   -3.533033
     41          1           0       -4.508554    1.357228   -4.477789
     42          7           0        0.703391    0.166000    0.329614
     43          1           0        0.112258   -0.645244    0.141216
     44          6           0        2.065940   -0.068951    0.804302
     45          1           0        2.245418    0.589103    1.665202
     46          6           0        3.020348    0.313347   -0.344552
     47          6           0        2.207554   -1.533849    1.247581
     48          1           0        1.995988   -2.175423    0.386534
     49          8           0        3.453714   -0.505539   -1.148408
     50          6           0        3.600128   -1.843770    1.784308
     51          1           0        4.351088   -1.714159    1.000817
     52          1           0        3.635599   -2.877511    2.139441
     53          1           0        3.853694   -1.180897    2.622886
     54          8           0        1.185913   -1.843686    2.208518
     55          1           0        1.431387   -1.401677    3.037998
     56          7           0        3.242885    1.655444   -0.418027
     57          1           0        2.700632    2.253590    0.202745
     58          6           0        3.800693    2.276016   -1.596387
     59          1           0        4.416736    1.535601   -2.113226
     60          6           0        4.664951    3.461194   -1.181377
     61          6           0        2.685185    2.782260   -2.550037
     62          1           0        3.158134    3.331558   -3.376842
     63          1           0        2.062770    3.484510   -1.976602
     64          8           0        4.592587    4.032779   -0.119720
     65          6           0        1.815378    1.648668   -3.102057
     66          1           0        2.428913    0.959417   -3.693092
     67          1           0        1.398193    1.057773   -2.279917
     68          6           0        0.666948    2.140127   -3.986415
     69          1           0        1.021013    2.785462   -4.796144
     70          1           0        0.161779    1.290668   -4.457504
     71          7           0       -0.368952    2.877561   -3.236480
     72          1           0       -0.982684    2.322815   -2.653032
     73          7           0        0.273106    5.051034   -3.760668
     74          1           0        0.014129    5.998353   -3.995573
     75          1           0        1.255554    4.816866   -3.761900
     76          7           0       -1.840203    4.634948   -2.903339
     77          1           0       -2.614867    3.993685   -2.731382
     78          1           0       -1.959219    5.593283   -2.605672
     79          6           0       -0.640166    4.182964   -3.291412
     80          8           0        5.483626    3.837193   -2.190098
     81          1           0        5.994673    4.606425   -1.872597
 ---------------------------------------------------------------------

 SCF Done:  E(RB3LYP) =  -2054.03681732     A.U. after    1 cycles

 Alpha  occ. eigenvalues --  -19.28318 -19.23420 -19.22613 -19.22292 -19.21566
 Alpha  occ. eigenvalues --  -19.20632 -19.19506 -19.17685 -14.54426 -14.52497
 Alpha  occ. eigenvalues --  -14.52311 -14.51541 -14.46434 -14.43959 -14.43467
 Alpha  occ. eigenvalues --  -14.39549 -10.48627 -10.40608 -10.37168 -10.36662
 Alpha  occ. eigenvalues --  -10.36503 -10.36304 -10.36032 -10.35224 -10.32829
 Alpha  occ. eigenvalues --  -10.32172 -10.31287 -10.31158 -10.30806 -10.30271
 Alpha  occ. eigenvalues --  -10.30156 -10.29935 -10.29857 -10.28459 -10.27847
 Alpha  occ. eigenvalues --  -10.27837 -10.27496 -10.27495 -10.27206 -10.27193
 Alpha  occ. eigenvalues --  -10.26714 -10.25008  -1.19138  -1.16973  -1.13556
 Alpha  occ. eigenvalues --   -1.13101  -1.12346  -1.11265  -1.10453  -1.10273
 Alpha  occ. eigenvalues --   -1.07768  -1.06482  -1.06321  -1.05494  -1.04988
 Alpha  occ. eigenvalues --   -1.01134  -1.00488  -0.98185  -0.92932  -0.91480
 Alpha  occ. eigenvalues --   -0.90007  -0.88513  -0.87069  -0.85394  -0.84083
 Alpha  occ. eigenvalues --   -0.82548  -0.81349  -0.81042  -0.80051  -0.78928
 Alpha  occ. eigenvalues --   -0.77815  -0.74529  -0.74156  -0.72866  -0.72365
 Alpha  occ. eigenvalues --   -0.71542  -0.71042  -0.70220  -0.68778  -0.68305
 Alpha  occ. eigenvalues --   -0.68130  -0.66902  -0.66616  -0.66225  -0.65888
 Alpha  occ. eigenvalues --   -0.65255  -0.64865  -0.64651  -0.63364  -0.62063
 Alpha  occ. eigenvalues --   -0.61222  -0.60402  -0.60195  -0.59667  -0.59121
 Alpha  occ. eigenvalues --   -0.58113  -0.57999  -0.57189  -0.57002  -0.56808
 Alpha  occ. eigenvalues --   -0.56511  -0.55778  -0.55506  -0.55463  -0.54923
 Alpha  occ. eigenvalues --   -0.53914  -0.53598  -0.52513  -0.52419  -0.52158
 Alpha  occ. eigenvalues --   -0.52078  -0.51828  -0.51422  -0.50824  -0.50440
 Alpha  occ. eigenvalues --   -0.49902  -0.49675  -0.49397  -0.48980  -0.48628
 Alpha  occ. eigenvalues --   -0.48172  -0.48152  -0.47755  -0.47032  -0.46684
 Alpha  occ. eigenvalues --   -0.46514  -0.46179  -0.45839  -0.45658  -0.45279
 Alpha  occ. eigenvalues --   -0.45045  -0.44907  -0.44512  -0.44385  -0.44004
 Alpha  occ. eigenvalues --   -0.43839  -0.43109  -0.42417  -0.41896  -0.41414
 Alpha  occ. eigenvalues --   -0.40993  -0.40856  -0.40373  -0.37402  -0.36581
 Alpha  occ. eigenvalues --   -0.36432  -0.35986  -0.35687  -0.35470  -0.35378
 Alpha  occ. eigenvalues --   -0.34565  -0.33605  -0.32000  -0.31867  -0.31219
 Alpha  occ. eigenvalues --   -0.31088  -0.28992
 Alpha virt. eigenvalues --   -0.13076  -0.10523  -0.08365  -0.08009  -0.07562
 Alpha virt. eigenvalues --   -0.06946  -0.06684  -0.06102  -0.05928  -0.04870
 Alpha virt. eigenvalues --   -0.04164  -0.04021  -0.02082  -0.01722  -0.01640

 Mulliken charges:
               1
     1  N   -0.770081
     2  H    0.398690
     3  H    0.430747
     4  H    0.398444
     5  C   -0.103025
     6  H    0.215116
     7  C    0.619614
     8  C   -0.309268
     9  H    0.172995
    10  H    0.183815
    11  O   -0.656960
    12  C   -0.367161
    13  H    0.173329
    14  H    0.182980
    15  C    0.567351
    16  O   -0.625643
    17  O   -0.449755
    18  N   -0.564537
    19  H    0.459088
    20  C   -0.071198
    21  H    0.130399
    22  C    0.623822
    23  C   -0.377980
    24  H    0.119344
    25  H    0.180797
    26  O   -0.551549
    27  C    0.081098
    28  C    0.014041
    29  H    0.189836
    30  C    0.056353
    31  C    0.318379
    32  C   -0.292272
    33  H    0.106819
    34  N   -0.684413
    35  H    0.345923
    36  C   -0.156310
    37  H    0.148772
    38  C   -0.154426
    39  H    0.149522
    40  C   -0.127169
    41  H    0.136779
    42  N   -0.636570
    43  H    0.396589
    44  C   -0.063134
    45  H    0.161304
    46  C    0.632330
    47  C    0.109546
    48  H    0.168887
    49  O   -0.536558
    50  C   -0.483807
    51  H    0.191644
    52  H    0.172563
    53  H    0.141953
    54  O   -0.634729
    55  H    0.394420
    56  N   -0.597885
    57  H    0.377384
    58  C   -0.054256
    59  H    0.210898
    60  C    0.583102
    61  C   -0.302362
    62  H    0.154129
    63  H    0.152106
    64  O   -0.443507
    65  C   -0.267377
    66  H    0.188319
    67  H    0.180697
    68  C   -0.190109
    69  H    0.178931
    70  H    0.199370
    71  N   -0.595581
    72  H    0.382078
    73  N   -0.757602
    74  H    0.382443
    75  H    0.389346
    76  N   -0.767163
    77  H    0.406208
    78  H    0.377487
    79  C    0.801898
    80  O   -0.568576
    81  H    0.423281
 Sum of Mulliken charges =   1.00000

 Dipole moment (field-independent basis, Debye):
    X=             -6.3415    Y=              9.1210    Z=            -11.3941  Tot=             15.9133
 Quadrupole moment (field-independent basis, Debye-Ang):
   XX=           -185.1238   YY=           -133.9508   ZZ=           -210.0044
   XY=             10.4959   XZ=             11.5898   YZ=            -79.4879

 Normal termination of Gaussian 16 at Sat May 14 13:21:49 2022.
