 Gaussian 16, Revision C.01,
 Gaussian 16:  ES64L-G16RevC.01  3-Jul-2019

 ----------------------------------------------------------------------
 # B3LYP/6-31G* empiricaldispersion=gd3 guess=read geom=check nosymm in
 tegral(ultrafinegrid)
 ----------------------------------------------------------------------

 ------------------------------------------------------
 Candidate Structure: Conf:950 Charge calc in gas phase
 ------------------------------------------------------
 Structure from the checkpoint file:  "conf-950.chk"
 Charge =  1 Multiplicity = 1

                          Input orientation:
 ---------------------------------------------------------------------
 Center     Atomic      Atomic             Coordinates (Angstroms)
 Number     Number       Type             X           Y           Z
 ---------------------------------------------------------------------
      1          7           0       -5.520433    0.694586    2.686281
      2          1           0       -5.549116    0.799504    1.626990
      3          1           0       -5.526206   -0.305857    2.911711
      4          1           0       -6.311509    1.145353    3.149282
      5          6           0       -4.170972    1.310403    3.026960
      6          1           0       -4.376456    2.331094    3.364317
      7          6           0       -3.497026    1.388006    1.619931
      8          6           0       -3.482734    0.501071    4.134696
      9          1           0       -2.624748    1.072415    4.501618
     10          1           0       -4.192416    0.422759    4.969281
     11          8           0       -4.231221    1.172429    0.638130
     12          6           0       -2.952905   -0.870121    3.688854
     13          1           0       -3.629216   -1.409925    3.010975
     14          1           0       -2.832644   -1.506919    4.572672
     15          6           0       -1.555178   -0.754876    3.009379
     16          8           0       -1.299024   -1.601431    2.113205
     17          8           0       -0.830072    0.199038    3.403722
     18          7           0       -2.204452    1.703973    1.549587
     19          1           0       -1.639633    1.542265    2.397678
     20          6           0       -1.486853    1.453414    0.280403
     21          1           0       -1.820554    0.471199   -0.072481
     22          6           0        0.035745    1.413970    0.551649
     23          6           0       -1.780663    2.499036   -0.804177
     24          1           0       -1.367815    3.457261   -0.468716
     25          1           0       -2.865722    2.613708   -0.898045
     26          8           0        0.712282    2.446765    0.526584
     27          6           0       -1.180853    2.107802   -2.130759
     28          6           0       -0.611521    0.902634   -2.473397
     29          1           0       -0.401922    0.028322   -1.877195
     30          6           0       -1.100248    2.933547   -3.307379
     31          6           0       -0.477175    2.156767   -4.335463
     32          6           0       -1.483260    4.256370   -3.600553
     33          1           0       -1.953124    4.872518   -2.838704
     34          7           0       -0.188011    0.930797   -3.786160
     35          1           0        0.311252    0.175027   -4.230776
     36          6           0       -0.689032    3.958770   -5.893575
     37          1           0       -0.607919    4.350164   -6.905698
     38          6           0       -0.275225    2.651602   -5.627025
     39          1           0        0.164927    2.032469   -6.403878
     40          6           0       -1.272583    4.760296   -4.883648
     41          1           0       -1.586525    5.772341   -5.122255
     42          7           0        0.526299    0.177802    0.718949
     43          1           0       -0.117154   -0.591211    0.918123
     44          6           0        1.942377   -0.094890    0.817615
     45          1           0        2.407201    0.708320    1.401347
     46          6           0        2.534117   -0.061001   -0.601900
     47          6           0        2.187188   -1.459219    1.553707
     48          1           0        3.166254   -1.828569    1.223062
     49          8           0        1.921440   -0.433195   -1.596462
     50          6           0        2.207830   -1.250245    3.070441
     51          1           0        3.057466   -0.624224    3.369191
     52          1           0        2.304852   -2.221909    3.564662
     53          1           0        1.285112   -0.764572    3.404555
     54          8           0        1.251574   -2.433913    1.151557
     55          1           0        0.419543   -2.301068    1.657771
     56          7           0        3.796083    0.475142   -0.687748
     57          1           0        4.221822    0.848975    0.149724
     58          6           0        4.309467    0.921558   -1.967170
     59          1           0        3.792424    0.307585   -2.713887
     60          6           0        5.801418    0.677846   -2.158678
     61          6           0        3.989388    2.412417   -2.257964
     62          1           0        4.264759    2.599684   -3.300506
     63          1           0        4.645320    3.043238   -1.637179
     64          8           0        6.450134    1.224719   -3.025112
     65          6           0        2.526251    2.749002   -1.964136
     66          1           0        1.859135    2.123343   -2.563907
     67          1           0        2.298161    2.513160   -0.922990
     68          6           0        2.123095    4.212441   -2.134690
     69          1           0        1.174531    4.373568   -1.619062
     70          1           0        2.845628    4.898069   -1.674156
     71          7           0        1.882787    4.617381   -3.532345
     72          1           0        0.915187    4.567124   -3.843809
     73          7           0        4.069285    5.214042   -4.108950
     74          1           0        4.791219    5.105505   -4.808183
     75          1           0        4.372136    5.074640   -3.156018
     76          7           0        2.438177    5.000827   -5.740762
     77          1           0        1.487913    4.750427   -6.000965
     78          1           0        2.980438    5.551952   -6.390790
     79          6           0        2.791189    4.932940   -4.443688
     80          8           0        6.317760   -0.200052   -1.278712
     81          1           0        7.262261   -0.303183   -1.505643
 ---------------------------------------------------------------------

 SCF Done:  E(RB3LYP) =  -2054.04452672     A.U. after    1 cycles

 Alpha  occ. eigenvalues --  -19.27725 -19.24421 -19.21856 -19.18971 -19.18550
 Alpha  occ. eigenvalues --  -19.17410 -19.15674 -19.15216 -14.57138 -14.50590
 Alpha  occ. eigenvalues --  -14.49989 -14.49976 -14.46334 -14.45939 -14.43802
 Alpha  occ. eigenvalues --  -14.41634 -10.46642 -10.40749 -10.40186 -10.37985
 Alpha  occ. eigenvalues --  -10.35835 -10.35478 -10.33805 -10.33572 -10.32213
 Alpha  occ. eigenvalues --  -10.31485 -10.31252 -10.29750 -10.29602 -10.29172
 Alpha  occ. eigenvalues --  -10.29091 -10.28983 -10.28537 -10.28393 -10.28340
 Alpha  occ. eigenvalues --  -10.28147 -10.27814 -10.26908 -10.26798 -10.26674
 Alpha  occ. eigenvalues --  -10.26597 -10.21422  -1.18624  -1.16706  -1.15186
 Alpha  occ. eigenvalues --   -1.11199  -1.11050  -1.10004  -1.09561  -1.08773
 Alpha  occ. eigenvalues --   -1.06517  -1.05590  -1.04322  -1.03407  -1.02888
 Alpha  occ. eigenvalues --   -1.00474  -0.99929  -0.98510  -0.93510  -0.90775
 Alpha  occ. eigenvalues --   -0.89328  -0.88943  -0.85653  -0.84785  -0.82988
 Alpha  occ. eigenvalues --   -0.82281  -0.82011  -0.79997  -0.79442  -0.76641
 Alpha  occ. eigenvalues --   -0.76182  -0.74302  -0.73481  -0.72434  -0.71639
 Alpha  occ. eigenvalues --   -0.71398  -0.71329  -0.69380  -0.68521  -0.68346
 Alpha  occ. eigenvalues --   -0.67877  -0.67305  -0.66599  -0.66383  -0.64325
 Alpha  occ. eigenvalues --   -0.64058  -0.63639  -0.63110  -0.62957  -0.62518
 Alpha  occ. eigenvalues --   -0.60601  -0.60289  -0.59877  -0.58523  -0.57955
 Alpha  occ. eigenvalues --   -0.57212  -0.56571  -0.56459  -0.56386  -0.56180
 Alpha  occ. eigenvalues --   -0.55831  -0.55082  -0.54569  -0.54223  -0.54039
 Alpha  occ. eigenvalues --   -0.52998  -0.52700  -0.52505  -0.52000  -0.51763
 Alpha  occ. eigenvalues --   -0.51379  -0.51337  -0.50439  -0.50160  -0.49679
 Alpha  occ. eigenvalues --   -0.49272  -0.49080  -0.48778  -0.48735  -0.47941
 Alpha  occ. eigenvalues --   -0.47461  -0.47286  -0.46835  -0.46698  -0.46236
 Alpha  occ. eigenvalues --   -0.45980  -0.45859  -0.45431  -0.44728  -0.43827
 Alpha  occ. eigenvalues --   -0.43742  -0.43352  -0.43304  -0.43068  -0.42627
 Alpha  occ. eigenvalues --   -0.42565  -0.42128  -0.41637  -0.41086  -0.40645
 Alpha  occ. eigenvalues --   -0.39648  -0.38774  -0.38707  -0.36744  -0.36642
 Alpha  occ. eigenvalues --   -0.36184  -0.36033  -0.33351  -0.33135  -0.32761
 Alpha  occ. eigenvalues --   -0.31981  -0.31676  -0.31362  -0.30589  -0.29449
 Alpha  occ. eigenvalues --   -0.29180  -0.29046
 Alpha virt. eigenvalues --   -0.11090  -0.10843  -0.10627  -0.08056  -0.08038
 Alpha virt. eigenvalues --   -0.07286  -0.06075  -0.05653  -0.05069  -0.03651
 Alpha virt. eigenvalues --   -0.02993  -0.02007  -0.01537  -0.01035  -0.00974

 Mulliken charges:
               1
     1  N   -0.753209
     2  H    0.430763
     3  H    0.410032
     4  H    0.407129
     5  C   -0.111064
     6  H    0.219114
     7  C    0.640840
     8  C   -0.308164
     9  H    0.219981
    10  H    0.152142
    11  O   -0.553943
    12  C   -0.370338
    13  H    0.132879
    14  H    0.190357
    15  C    0.601291
    16  O   -0.589301
    17  O   -0.590080
    18  N   -0.623590
    19  H    0.397126
    20  C   -0.042166
    21  H    0.185302
    22  C    0.598826
    23  C   -0.337906
    24  H    0.167793
    25  H    0.179052
    26  O   -0.555759
    27  C    0.080042
    28  C    0.006610
    29  H    0.211618
    30  C    0.053617
    31  C    0.314468
    32  C   -0.242171
    33  H    0.147859
    34  N   -0.687465
    35  H    0.350237
    36  C   -0.230644
    37  H    0.149499
    38  C   -0.165954
    39  H    0.151155
    40  C   -0.159813
    41  H    0.148058
    42  N   -0.591165
    43  H    0.381969
    44  C   -0.051810
    45  H    0.157355
    46  C    0.628658
    47  C    0.120955
    48  H    0.143534
    49  O   -0.529433
    50  C   -0.502072
    51  H    0.129056
    52  H    0.161258
    53  H    0.207712
    54  O   -0.648676
    55  H    0.432357
    56  N   -0.595258
    57  H    0.334812
    58  C   -0.058829
    59  H    0.215382
    60  C    0.592389
    61  C   -0.284937
    62  H    0.150191
    63  H    0.129096
    64  O   -0.471022
    65  C   -0.293403
    66  H    0.181622
    67  H    0.214123
    68  C   -0.196058
    69  H    0.211546
    70  H    0.160529
    71  N   -0.598161
    72  H    0.390345
    73  N   -0.745342
    74  H    0.377968
    75  H    0.383113
    76  N   -0.774104
    77  H    0.380892
    78  H    0.371604
    79  C    0.788385
    80  O   -0.552064
    81  H    0.423260
 Sum of Mulliken charges =   1.00000

 Dipole moment (field-independent basis, Debye):
    X=             -3.5658    Y=             18.8153    Z=             -7.7707  Tot=             20.6668
 Quadrupole moment (field-independent basis, Debye-Ang):
   XX=           -100.6804   YY=           -171.6188   ZZ=           -133.5934
   XY=             29.5759   XZ=            -88.4941   YZ=            -65.0410

 Normal termination of Gaussian 16 at Sat May 14 13:21:48 2022.
