 Gaussian 16, Revision C.01,
 Gaussian 16:  ES64L-G16RevC.01  3-Jul-2019

 ----------------------------------------------------------------------
 # B3LYP/6-31G* empiricaldispersion=gd3 guess=read geom=check nosymm in
 tegral(ultrafinegrid)
 ----------------------------------------------------------------------

 ------------------------------------------------------
 Candidate Structure: Conf:123 Charge calc in gas phase
 ------------------------------------------------------
 Structure from the checkpoint file:  "conf-123.chk"
 Charge =  1 Multiplicity = 1

                          Input orientation:
 ---------------------------------------------------------------------
 Center     Atomic      Atomic             Coordinates (Angstroms)
 Number     Number       Type             X           Y           Z
 ---------------------------------------------------------------------
      1          7           0       -3.267468    1.698600    3.461498
      2          1           0       -4.280490    1.566551    3.543356
      3          1           0       -2.799574    0.757446    3.551702
      4          1           0       -2.951137    2.335900    4.198771
      5          6           0       -2.824073    2.143815    2.075618
      6          1           0       -3.621373    2.736294    1.619041
      7          6           0       -2.569481    0.799593    1.366462
      8          6           0       -1.498091    2.913203    2.230038
      9          1           0       -1.664159    3.780262    2.882565
     10          1           0       -0.797263    2.249733    2.744084
     11          8           0       -2.250512   -0.166351    2.072382
     12          6           0       -0.857087    3.375060    0.913051
     13          1           0       -1.310683    4.307283    0.556311
     14          1           0       -0.983482    2.645524    0.109738
     15          6           0        0.674482    3.587462    1.038897
     16          8           0        1.205189    3.458836    2.166100
     17          8           0        1.250951    3.827323   -0.063287
     18          7           0       -2.622098    0.801107    0.036392
     19          1           0       -2.947876    1.632972   -0.442955
     20          6           0       -2.050473   -0.286373   -0.776073
     21          1           0       -2.152536   -1.196685   -0.179719
     22          6           0       -0.559958    0.084159   -0.972352
     23          6           0       -2.808059   -0.421527   -2.109827
     24          1           0       -2.499609   -1.362362   -2.577190
     25          1           0       -2.467093    0.379680   -2.775084
     26          8           0       -0.198562    0.706277   -1.977220
     27          6           0       -4.294640   -0.360862   -1.925353
     28          6           0       -5.161675   -1.398969   -1.690554
     29          1           0       -4.969384   -2.463372   -1.662004
     30          6           0       -5.074613    0.849023   -1.850093
     31          6           0       -6.414022    0.469574   -1.555896
     32          6           0       -4.770012    2.216546   -1.992642
     33          1           0       -3.767731    2.535514   -2.278423
     34          7           0       -6.433339   -0.907970   -1.463657
     35          1           0       -7.261488   -1.473074   -1.350721
     36          6           0       -7.101683    2.754847   -1.527425
     37          1           0       -7.874862    3.509006   -1.413255
     38          6           0       -7.436204    1.410691   -1.395732
     39          1           0       -8.456134    1.104867   -1.179122
     40          6           0       -5.782111    3.155933   -1.824844
     41          1           0       -5.562514    4.212941   -1.946867
     42          7           0        0.252343   -0.222777    0.060541
     43          1           0       -0.160732   -0.580557    0.917027
     44          6           0        1.582438    0.387583    0.205840
     45          1           0        1.488262    1.451728   -0.032537
     46          6           0        2.598577   -0.228709   -0.771007
     47          6           0        2.063877    0.239172    1.668330
     48          1           0        2.173591   -0.831532    1.873613
     49          8           0        3.382367   -1.112790   -0.458671
     50          6           0        3.400436    0.946988    1.898158
     51          1           0        4.184750    0.537899    1.257330
     52          1           0        3.692506    0.815292    2.944139
     53          1           0        3.293017    2.020200    1.708479
     54          8           0        1.058590    0.723409    2.553035
     55          1           0        1.159878    1.704989    2.582309
     56          7           0        2.630888    0.389054   -2.002597
     57          1           0        1.716520    0.700616   -2.334807
     58          6           0        3.595153   -0.094543   -2.976470
     59          1           0        3.428091   -1.157799   -3.185171
     60          6           0        5.031573   -0.036876   -2.455512
     61          6           0        3.522637    0.662397   -4.321118
     62          1           0        2.480127    0.637034   -4.670999
     63          1           0        4.097815    0.058696   -5.030594
     64          8           0        5.909420   -0.754880   -2.866474
     65          6           0        4.055537    2.106847   -4.407789
     66          1           0        5.089822    2.135252   -4.037385
     67          1           0        4.109179    2.359036   -5.474207
     68          6           0        3.233644    3.223669   -3.739746
     69          1           0        3.562997    4.196823   -4.118324
     70          1           0        2.176416    3.125096   -4.009469
     71          7           0        3.288327    3.280330   -2.281621
     72          1           0        2.659720    2.684754   -1.756614
     73          7           0        5.258022    4.505034   -2.123628
     74          1           0        5.833135    5.167184   -1.625147
     75          1           0        5.655633    4.069993   -2.942396
     76          7           0        3.873435    4.197595   -0.262518
     77          1           0        2.861812    4.099267    0.048959
     78          1           0        4.570752    4.581058    0.358686
     79          6           0        4.148694    3.988242   -1.544472
     80          8           0        5.256330    0.975343   -1.572165
     81          1           0        6.188793    0.877248   -1.298608
 ---------------------------------------------------------------------

 SCF Done:  E(RB3LYP) =  -2054.05615013     A.U. after    1 cycles

 Alpha  occ. eigenvalues --  -19.27209 -19.26047 -19.22130 -19.21031 -19.19903
 Alpha  occ. eigenvalues --  -19.19869 -19.17088 -19.16698 -14.59678 -14.49463
 Alpha  occ. eigenvalues --  -14.47960 -14.46426 -14.46314 -14.45585 -14.44708
 Alpha  occ. eigenvalues --  -14.43197 -10.42874 -10.42776 -10.39678 -10.39354
 Alpha  occ. eigenvalues --  -10.38822 -10.36355 -10.35216 -10.34283 -10.32658
 Alpha  occ. eigenvalues --  -10.31678 -10.31059 -10.30492 -10.30491 -10.30439
 Alpha  occ. eigenvalues --  -10.30365 -10.28665 -10.28663 -10.28425 -10.27688
 Alpha  occ. eigenvalues --  -10.27397 -10.27345 -10.27057 -10.26878 -10.26739
 Alpha  occ. eigenvalues --  -10.26690 -10.23049  -1.18639  -1.17823  -1.13845
 Alpha  occ. eigenvalues --   -1.13305  -1.11631  -1.11543  -1.10246  -1.08839
 Alpha  occ. eigenvalues --   -1.07621  -1.06402  -1.06040  -1.01684  -1.01392
 Alpha  occ. eigenvalues --   -1.01299  -1.00140  -0.99183  -0.92855  -0.92262
 Alpha  occ. eigenvalues --   -0.89763  -0.89107  -0.86439  -0.84713  -0.83179
 Alpha  occ. eigenvalues --   -0.83040  -0.81946  -0.80375  -0.78343  -0.77257
 Alpha  occ. eigenvalues --   -0.76238  -0.74650  -0.74071  -0.73409  -0.72265
 Alpha  occ. eigenvalues --   -0.71492  -0.70609  -0.70220  -0.69964  -0.68561
 Alpha  occ. eigenvalues --   -0.67616  -0.67313  -0.66637  -0.65645  -0.65131
 Alpha  occ. eigenvalues --   -0.64919  -0.63716  -0.62574  -0.62142  -0.61460
 Alpha  occ. eigenvalues --   -0.61094  -0.60575  -0.60004  -0.59469  -0.58315
 Alpha  occ. eigenvalues --   -0.57665  -0.57592  -0.57073  -0.56795  -0.56558
 Alpha  occ. eigenvalues --   -0.55765  -0.55447  -0.54652  -0.54291  -0.53921
 Alpha  occ. eigenvalues --   -0.53466  -0.53224  -0.52726  -0.52236  -0.52008
 Alpha  occ. eigenvalues --   -0.51631  -0.51303  -0.50871  -0.50668  -0.50501
 Alpha  occ. eigenvalues --   -0.50130  -0.49988  -0.49447  -0.49176  -0.48946
 Alpha  occ. eigenvalues --   -0.48648  -0.48477  -0.48014  -0.47302  -0.47062
 Alpha  occ. eigenvalues --   -0.46832  -0.46221  -0.45751  -0.45475  -0.45318
 Alpha  occ. eigenvalues --   -0.44670  -0.43707  -0.43657  -0.43533  -0.42980
 Alpha  occ. eigenvalues --   -0.42541  -0.42333  -0.41997  -0.41777  -0.40596
 Alpha  occ. eigenvalues --   -0.39680  -0.39113  -0.38479  -0.38165  -0.36724
 Alpha  occ. eigenvalues --   -0.35921  -0.35723  -0.35595  -0.34807  -0.33794
 Alpha  occ. eigenvalues --   -0.33254  -0.32674  -0.32036  -0.31768  -0.30912
 Alpha  occ. eigenvalues --   -0.30743  -0.28842
 Alpha virt. eigenvalues --   -0.12350  -0.10131  -0.09952  -0.07905  -0.07712
 Alpha virt. eigenvalues --   -0.06944  -0.06074  -0.06027  -0.05205  -0.04222
 Alpha virt. eigenvalues --   -0.03433  -0.02907  -0.02284  -0.01101  -0.00889

 Mulliken charges:
               1
     1  N   -0.746205
     2  H    0.414792
     3  H    0.434468
     4  H    0.417439
     5  C   -0.129457
     6  H    0.208756
     7  C    0.658786
     8  C   -0.285279
     9  H    0.169790
    10  H    0.200129
    11  O   -0.543488
    12  C   -0.393250
    13  H    0.173294
    14  H    0.165048
    15  C    0.628424
    16  O   -0.577833
    17  O   -0.619340
    18  N   -0.586171
    19  H    0.362495
    20  C   -0.063549
    21  H    0.196923
    22  C    0.643414
    23  C   -0.397121
    24  H    0.178497
    25  H    0.191381
    26  O   -0.552995
    27  C    0.068489
    28  C    0.004818
    29  H    0.167817
    30  C    0.082821
    31  C    0.311805
    32  C   -0.266147
    33  H    0.138092
    34  N   -0.688446
    35  H    0.342042
    36  C   -0.156201
    37  H    0.144506
    38  C   -0.160531
    39  H    0.143613
    40  C   -0.145593
    41  H    0.138388
    42  N   -0.609012
    43  H    0.373015
    44  C   -0.099901
    45  H    0.189901
    46  C    0.636460
    47  C    0.116099
    48  H    0.161272
    49  O   -0.500936
    50  C   -0.502364
    51  H    0.168827
    52  H    0.164596
    53  H    0.164431
    54  O   -0.698605
    55  H    0.445677
    56  N   -0.668348
    57  H    0.377207
    58  C   -0.001811
    59  H    0.194909
    60  C    0.606389
    61  C   -0.319026
    62  H    0.159807
    63  H    0.188616
    64  O   -0.454768
    65  C   -0.274068
    66  H    0.146437
    67  H    0.168157
    68  C   -0.174969
    69  H    0.176744
    70  H    0.185012
    71  N   -0.575805
    72  H    0.392841
    73  N   -0.770487
    74  H    0.365728
    75  H    0.373090
    76  N   -0.792149
    77  H    0.439168
    78  H    0.346390
    79  C    0.794557
    80  O   -0.582009
    81  H    0.414507
 Sum of Mulliken charges =   1.00000

 Dipole moment (field-independent basis, Debye):
    X=             -7.7407    Y=             12.4733    Z=              0.7560  Tot=             14.6994
 Quadrupole moment (field-independent basis, Debye-Ang):
   XX=           -102.1171   YY=           -195.6745   ZZ=           -190.8911
   XY=             45.2816   XZ=            -54.9180   YZ=             -2.2898

 Normal termination of Gaussian 16 at Sat May 14 13:21:50 2022.
