 Gaussian 16, Revision C.01,
 Gaussian 16:  ES64L-G16RevC.01  3-Jul-2019

 ----------------------------------------------------------------------
 # B3LYP/6-31G* empiricaldispersion=gd3 guess=read geom=check nosymm in
 tegral(ultrafinegrid)
 ----------------------------------------------------------------------

 ------------------------------------------------------
 Candidate Structure: Conf:703 Charge calc in gas phase
 ------------------------------------------------------
 Structure from the checkpoint file:  "conf-703.chk"
 Charge =  1 Multiplicity = 1

                          Input orientation:
 ---------------------------------------------------------------------
 Center     Atomic      Atomic             Coordinates (Angstroms)
 Number     Number       Type             X           Y           Z
 ---------------------------------------------------------------------
      1          7           0       -3.800613    0.210015    3.041825
      2          1           0       -4.765231   -0.054056    2.819334
      3          1           0       -3.172261   -0.599984    2.758428
      4          1           0       -3.726114    0.430718    4.038046
      5          6           0       -3.277039    1.315244    2.140806
      6          1           0       -4.141788    1.843377    1.728837
      7          6           0       -2.604144    0.483725    1.023919
      8          6           0       -2.395679    2.278903    2.951461
      9          1           0       -3.077734    2.829438    3.612513
     10          1           0       -1.692614    1.695756    3.556693
     11          8           0       -2.370553   -0.717954    1.239301
     12          6           0       -1.564508    3.257128    2.092988
     13          1           0       -1.345501    4.158661    2.671136
     14          1           0       -2.112629    3.611405    1.210413
     15          6           0       -0.191414    2.670706    1.654204
     16          8           0        0.628523    3.532985    1.218935
     17          8           0       -0.023840    1.439916    1.788452
     18          7           0       -2.479296    1.103345   -0.140459
     19          1           0       -2.758309    2.074148   -0.215157
     20          6           0       -1.973556    0.467016   -1.355201
     21          1           0       -2.155536   -0.602186   -1.230943
     22          6           0       -0.462424    0.778847   -1.335567
     23          6           0       -2.725287    1.007754   -2.592021
     24          1           0       -2.687110    0.227433   -3.362370
     25          1           0       -2.175245    1.870785   -2.980764
     26          8           0       -0.085961    1.918257   -1.603408
     27          6           0       -4.136744    1.422223   -2.274041
     28          6           0       -4.705062    2.624739   -2.620791
     29          1           0       -4.291845    3.427714   -3.216187
     30          6           0       -5.118690    0.725593   -1.472941
     31          6           0       -6.261264    1.570493   -1.383833
     32          6           0       -5.136048   -0.502916   -0.785925
     33          1           0       -4.289494   -1.180945   -0.838507
     34          7           0       -5.978602    2.719172   -2.095149
     35          1           0       -6.631738    3.464132   -2.284371
     36          6           0       -7.383914    0.000996    0.018395
     37          1           0       -8.255682   -0.305368    0.589619
     38          6           0       -7.399518    1.220554   -0.649061
     39          1           0       -8.264371    1.876849   -0.603862
     40          6           0       -6.261013   -0.851532   -0.046959
     41          1           0       -6.287826   -1.806913    0.470301
     42          7           0        0.295792   -0.212516   -0.837838
     43          1           0       -0.102724   -1.138706   -0.747571
     44          6           0        1.651000   -0.078916   -0.350542
     45          1           0        1.700940    0.824212    0.267230
     46          6           0        2.658361    0.036288   -1.511385
     47          6           0        1.957410   -1.293859    0.557386
     48          1           0        3.030426   -1.284580    0.794687
     49          8           0        2.330002    0.037937   -2.689039
     50          6           0        1.168977   -1.302907    1.861762
     51          1           0        1.396569   -0.416307    2.456846
     52          1           0        1.432236   -2.198358    2.441007
     53          1           0        0.094781   -1.296087    1.666153
     54          8           0        1.661840   -2.443468   -0.250736
     55          1           0        1.743741   -3.232508    0.304743
     56          7           0        3.969196    0.179179   -1.114856
     57          1           0        4.185632    0.039906   -0.134499
     58          6           0        5.048471   -0.228191   -2.001160
     59          1           0        4.595839   -0.691277   -2.883934
     60          6           0        5.884934   -1.277368   -1.273026
     61          6           0        5.944617    0.939857   -2.462519
     62          1           0        6.705816    0.528976   -3.132111
     63          1           0        6.486991    1.333741   -1.591508
     64          8           0        5.789580   -1.530651   -0.089566
     65          6           0        5.150204    2.067932   -3.158327
     66          1           0        5.599071    2.313537   -4.127429
     67          1           0        4.140948    1.705315   -3.384547
     68          6           0        5.084093    3.383554   -2.362537
     69          1           0        6.078155    3.838861   -2.325044
     70          1           0        4.426301    4.103795   -2.862569
     71          7           0        4.656397    3.251485   -0.965051
     72          1           0        5.373894    3.247228   -0.255510
     73          7           0        2.382740    3.057473   -1.409455
     74          1           0        1.432223    2.873944   -1.082499
     75          1           0        2.550605    2.684670   -2.333079
     76          7           0        3.111770    3.149084    0.780773
     77          1           0        3.786405    3.566654    1.410500
     78          1           0        2.083486    3.259584    1.054027
     79          6           0        3.384415    3.155632   -0.532342
     80          8           0        6.771852   -1.862690   -2.095832
     81          1           0        7.286773   -2.502035   -1.566426
 ---------------------------------------------------------------------

 SCF Done:  E(RB3LYP) =  -2054.05988983     A.U. after    1 cycles

 Alpha  occ. eigenvalues --  -19.28346 -19.24555 -19.22921 -19.22601 -19.20049
 Alpha  occ. eigenvalues --  -19.19612 -19.15996 -19.15889 -14.57727 -14.47701
 Alpha  occ. eigenvalues --  -14.46690 -14.46410 -14.43938 -14.43934 -14.43600
 Alpha  occ. eigenvalues --  -14.42652 -10.41286 -10.41265 -10.40764 -10.38186
 Alpha  occ. eigenvalues --  -10.37139 -10.36591 -10.34262 -10.32944 -10.32272
 Alpha  occ. eigenvalues --  -10.32129 -10.32071 -10.30770 -10.30669 -10.30489
 Alpha  occ. eigenvalues --  -10.30449 -10.28044 -10.27855 -10.27511 -10.27410
 Alpha  occ. eigenvalues --  -10.27220 -10.27184 -10.27046 -10.27010 -10.26939
 Alpha  occ. eigenvalues --  -10.26830 -10.23997  -1.19341  -1.17046  -1.12393
 Alpha  occ. eigenvalues --   -1.11591  -1.11241  -1.10400  -1.10143  -1.09853
 Alpha  occ. eigenvalues --   -1.09211  -1.06353  -1.04746  -1.00980  -1.00646
 Alpha  occ. eigenvalues --   -1.00578  -0.99791  -0.97001  -0.92400  -0.91529
 Alpha  occ. eigenvalues --   -0.89092  -0.88750  -0.86317  -0.84715  -0.83299
 Alpha  occ. eigenvalues --   -0.82215  -0.81922  -0.80490  -0.78556  -0.77149
 Alpha  occ. eigenvalues --   -0.75692  -0.74136  -0.72906  -0.71891  -0.71043
 Alpha  occ. eigenvalues --   -0.70687  -0.70354  -0.69271  -0.68834  -0.68147
 Alpha  occ. eigenvalues --   -0.67753  -0.67315  -0.66699  -0.66272  -0.65239
 Alpha  occ. eigenvalues --   -0.63171  -0.62861  -0.61949  -0.61096  -0.60599
 Alpha  occ. eigenvalues --   -0.59679  -0.59244  -0.58628  -0.58181  -0.57745
 Alpha  occ. eigenvalues --   -0.57429  -0.57287  -0.56734  -0.56448  -0.55752
 Alpha  occ. eigenvalues --   -0.55505  -0.55336  -0.55083  -0.54984  -0.53719
 Alpha  occ. eigenvalues --   -0.53002  -0.52623  -0.52102  -0.51815  -0.51542
 Alpha  occ. eigenvalues --   -0.51420  -0.51175  -0.50590  -0.50328  -0.50086
 Alpha  occ. eigenvalues --   -0.49894  -0.49675  -0.49380  -0.48746  -0.48681
 Alpha  occ. eigenvalues --   -0.48346  -0.48155  -0.47557  -0.47166  -0.46471
 Alpha  occ. eigenvalues --   -0.46366  -0.46046  -0.45552  -0.45036  -0.44784
 Alpha  occ. eigenvalues --   -0.44389  -0.43923  -0.43602  -0.43228  -0.42961
 Alpha  occ. eigenvalues --   -0.42484  -0.42272  -0.41970  -0.41525  -0.40726
 Alpha  occ. eigenvalues --   -0.40392  -0.39236  -0.38248  -0.36785  -0.36164
 Alpha  occ. eigenvalues --   -0.35590  -0.35385  -0.34937  -0.34671  -0.33633
 Alpha  occ. eigenvalues --   -0.33568  -0.32400  -0.31677  -0.30939  -0.30870
 Alpha  occ. eigenvalues --   -0.30119  -0.28915
 Alpha virt. eigenvalues --   -0.10497  -0.09385  -0.08854  -0.07738  -0.06469
 Alpha virt. eigenvalues --   -0.06210  -0.06005  -0.05862  -0.03826  -0.03256
 Alpha virt. eigenvalues --   -0.03049  -0.02240  -0.01511  -0.00651  -0.00364

 Mulliken charges:
               1
     1  N   -0.756826
     2  H    0.410402
     3  H    0.429992
     4  H    0.406674
     5  C   -0.125864
     6  H    0.212861
     7  C    0.720155
     8  C   -0.265943
     9  H    0.153898
    10  H    0.184089
    11  O   -0.572811
    12  C   -0.386248
    13  H    0.185284
    14  H    0.147263
    15  C    0.624159
    16  O   -0.621426
    17  O   -0.572751
    18  N   -0.576715
    19  H    0.357336
    20  C   -0.073316
    21  H    0.183312
    22  C    0.681098
    23  C   -0.381957
    24  H    0.182816
    25  H    0.188209
    26  O   -0.565697
    27  C    0.034520
    28  C   -0.000102
    29  H    0.172366
    30  C    0.084545
    31  C    0.306347
    32  C   -0.228190
    33  H    0.144397
    34  N   -0.682230
    35  H    0.342607
    36  C   -0.161394
    37  H    0.141993
    38  C   -0.163016
    39  H    0.144107
    40  C   -0.179770
    41  H    0.132440
    42  N   -0.581213
    43  H    0.358845
    44  C   -0.063194
    45  H    0.217545
    46  C    0.620398
    47  C    0.072941
    48  H    0.144047
    49  O   -0.517366
    50  C   -0.466018
    51  H    0.180121
    52  H    0.130622
    53  H    0.177280
    54  O   -0.634191
    55  H    0.406079
    56  N   -0.598240
    57  H    0.345899
    58  C   -0.062968
    59  H    0.213817
    60  C    0.585918
    61  C   -0.265924
    62  H    0.182766
    63  H    0.130674
    64  O   -0.469317
    65  C   -0.290711
    66  H    0.168699
    67  H    0.182975
    68  C   -0.172199
    69  H    0.175549
    70  H    0.185498
    71  N   -0.593883
    72  H    0.344208
    73  N   -0.781460
    74  H    0.428870
    75  H    0.368840
    76  N   -0.799391
    77  H    0.332156
    78  H    0.443346
    79  C    0.769182
    80  O   -0.553531
    81  H    0.426716
 Sum of Mulliken charges =   1.00000

 Dipole moment (field-independent basis, Debye):
    X=             -3.7720    Y=              6.4708    Z=              4.6043  Tot=              8.7920
 Quadrupole moment (field-independent basis, Debye-Ang):
   XX=            -78.4576   YY=           -205.1040   ZZ=           -202.1904
   XY=             -8.2618   XZ=            -40.9606   YZ=            -12.7001

 Normal termination of Gaussian 16 at Sat May 14 13:21:47 2022.
