 Gaussian 16, Revision C.01,
 Gaussian 16:  ES64L-G16RevC.01  3-Jul-2019

 ----------------------------------------------------------------------
 # B3LYP/6-31G* empiricaldispersion=gd3 guess=read geom=check nosymm in
 tegral(ultrafinegrid)
 ----------------------------------------------------------------------

 ------------------------------------------------------
 Candidate Structure: Conf:879 Charge calc in gas phase
 ------------------------------------------------------
 Structure from the checkpoint file:  "conf-879.chk"
 Charge =  1 Multiplicity = 1

                          Input orientation:
 ---------------------------------------------------------------------
 Center     Atomic      Atomic             Coordinates (Angstroms)
 Number     Number       Type             X           Y           Z
 ---------------------------------------------------------------------
      1          7           0       -2.663633    0.614799    4.134720
      2          1           0       -3.412717    0.811571    4.804180
      3          1           0       -2.760475   -0.381157    3.806453
      4          1           0       -1.759300    0.770627    4.592892
      5          6           0       -2.776605    1.403166    2.847227
      6          1           0       -3.405402    2.279670    3.019642
      7          6           0       -3.349260    0.370999    1.837837
      8          6           0       -1.387276    1.756429    2.298720
      9          1           0       -0.893950    0.823700    2.008060
     10          1           0       -1.567272    2.292909    1.366045
     11          8           0       -3.318572   -0.816513    2.165985
     12          6           0       -0.387549    2.588040    3.104575
     13          1           0        0.059423    2.016452    3.929902
     14          1           0       -0.825377    3.514215    3.486196
     15          6           0        0.704692    2.914975    2.027967
     16          8           0        0.605142    4.078652    1.548849
     17          8           0        1.450750    1.970560    1.692163
     18          7           0       -3.669869    0.833009    0.605314
     19          1           0       -3.534154    1.831488    0.474153
     20          6           0       -3.202887    0.075551   -0.592807
     21          1           0       -3.471710   -0.969136   -0.428436
     22          6           0       -1.671914    0.278559   -0.549407
     23          6           0       -3.837404    0.623041   -1.897481
     24          1           0       -4.207901    1.637387   -1.711143
     25          1           0       -4.723007    0.020199   -2.128795
     26          8           0       -1.207844    1.416431   -0.631272
     27          6           0       -2.864645    0.685301   -3.044470
     28          6           0       -1.993450   -0.294887   -3.456098
     29          1           0       -1.858551   -1.303867   -3.093098
     30          6           0       -2.538690    1.862789   -3.807674
     31          6           0       -1.456924    1.518075   -4.666863
     32          6           0       -3.031938    3.178464   -3.832262
     33          1           0       -3.870689    3.467944   -3.203711
     34          7           0       -1.162433    0.190047   -4.443317
     35          1           0       -0.291155   -0.256761   -4.689866
     36          6           0       -1.365446    3.744239   -5.522167
     37          1           0       -0.936392    4.483530   -6.193053
     38          6           0       -0.868272    2.444351   -5.532840
     39          1           0       -0.049802    2.158942   -6.187712
     40          6           0       -2.437391    4.109118   -4.679229
     41          1           0       -2.825019    5.123862   -4.718208
     42          7           0       -0.955798   -0.815718   -0.225044
     43          1           0       -1.347242   -1.734505   -0.403659
     44          6           0        0.493200   -0.803787   -0.040258
     45          1           0        0.743277   -0.247761    0.868898
     46          6           0        1.204626   -0.169296   -1.237532
     47          6           0        0.947410   -2.282343    0.076903
     48          1           0        2.046158   -2.293847    0.023028
     49          8           0        1.042124   -0.629579   -2.380742
     50          6           0        0.505822   -2.929330    1.383989
     51          1           0        0.994056   -2.433320    2.230017
     52          1           0        0.787972   -3.985362    1.384366
     53          1           0       -0.581394   -2.869861    1.513032
     54          8           0        0.378847   -3.029052   -0.994028
     55          1           0        0.624947   -2.550188   -1.811903
     56          7           0        2.035451    0.831883   -0.910812
     57          1           0        1.985395    1.231426    0.035638
     58          6           0        2.779715    1.582008   -1.898755
     59          1           0        2.626105    1.097652   -2.868102
     60          6           0        4.270679    1.540691   -1.579258
     61          6           0        2.242963    3.028724   -1.940187
     62          1           0        2.907709    3.650213   -2.547512
     63          1           0        2.282346    3.411326   -0.914237
     64          8           0        4.773906    1.052377   -0.597669
     65          6           0        0.795757    3.054354   -2.469438
     66          1           0        0.786859    3.232126   -3.549634
     67          1           0        0.314629    2.086399   -2.314465
     68          6           0       -0.102502    4.077395   -1.778809
     69          1           0       -1.128797    3.968153   -2.132184
     70          1           0       -0.102220    3.930316   -0.697674
     71          7           0        0.293173    5.468546   -2.084703
     72          1           0        0.043669    5.780535   -3.014291
     73          7           0        1.578615    5.935579   -0.184962
     74          1           0        2.328730    6.483231    0.213215
     75          1           0        1.263668    5.116104    0.392339
     76          7           0        1.672135    7.331002   -2.031582
     77          1           0        1.291254    7.616729   -2.922456
     78          1           0        2.016328    8.087692   -1.457155
     79          6           0        1.169743    6.221886   -1.415368
     80          8           0        4.979341    2.155842   -2.559897
     81          1           0        5.918556    2.096272   -2.302162
 ---------------------------------------------------------------------

 SCF Done:  E(RB3LYP) =  -2054.04197058     A.U. after    1 cycles

 Alpha  occ. eigenvalues --  -19.27148 -19.26325 -19.21407 -19.21004 -19.20641
 Alpha  occ. eigenvalues --  -19.19509 -19.16681 -19.16213 -14.59510 -14.49165
 Alpha  occ. eigenvalues --  -14.48991 -14.48524 -14.46564 -14.45554 -14.44845
 Alpha  occ. eigenvalues --  -14.42626 -10.44645 -10.43520 -10.39744 -10.38610
 Alpha  occ. eigenvalues --  -10.38224 -10.36275 -10.34923 -10.34381 -10.31881
 Alpha  occ. eigenvalues --  -10.30858 -10.30760 -10.30686 -10.30444 -10.29309
 Alpha  occ. eigenvalues --  -10.29261 -10.29129 -10.27710 -10.26445 -10.26440
 Alpha  occ. eigenvalues --  -10.26396 -10.26199 -10.26114 -10.26059 -10.25977
 Alpha  occ. eigenvalues --  -10.25516 -10.25185  -1.19338  -1.17130  -1.13699
 Alpha  occ. eigenvalues --   -1.13265  -1.12978  -1.11113  -1.09481  -1.08861
 Alpha  occ. eigenvalues --   -1.08289  -1.05757  -1.05108  -1.02449  -1.01638
 Alpha  occ. eigenvalues --   -1.01356  -1.00518  -0.99972  -0.92818  -0.91437
 Alpha  occ. eigenvalues --   -0.89444  -0.87957  -0.86002  -0.84782  -0.83344
 Alpha  occ. eigenvalues --   -0.83090  -0.81051  -0.79745  -0.78851  -0.77322
 Alpha  occ. eigenvalues --   -0.75363  -0.74201  -0.73934  -0.73486  -0.71924
 Alpha  occ. eigenvalues --   -0.71564  -0.70432  -0.69840  -0.69740  -0.69028
 Alpha  occ. eigenvalues --   -0.67930  -0.66777  -0.66595  -0.66010  -0.65044
 Alpha  occ. eigenvalues --   -0.64722  -0.64009  -0.62628  -0.62002  -0.61575
 Alpha  occ. eigenvalues --   -0.60754  -0.60495  -0.59318  -0.58706  -0.58438
 Alpha  occ. eigenvalues --   -0.57979  -0.57689  -0.57135  -0.56841  -0.55796
 Alpha  occ. eigenvalues --   -0.55609  -0.54985  -0.54890  -0.54271  -0.54196
 Alpha  occ. eigenvalues --   -0.53516  -0.52954  -0.52677  -0.52178  -0.51875
 Alpha  occ. eigenvalues --   -0.51402  -0.50916  -0.50724  -0.50431  -0.50055
 Alpha  occ. eigenvalues --   -0.49486  -0.49251  -0.48849  -0.48601  -0.48320
 Alpha  occ. eigenvalues --   -0.48139  -0.47858  -0.47474  -0.47194  -0.46957
 Alpha  occ. eigenvalues --   -0.46152  -0.45786  -0.45297  -0.45189  -0.44987
 Alpha  occ. eigenvalues --   -0.44426  -0.44048  -0.43574  -0.43063  -0.42969
 Alpha  occ. eigenvalues --   -0.42339  -0.41959  -0.41250  -0.41109  -0.40750
 Alpha  occ. eigenvalues --   -0.40449  -0.39871  -0.39359  -0.38449  -0.36516
 Alpha  occ. eigenvalues --   -0.36014  -0.35264  -0.34618  -0.34332  -0.34116
 Alpha  occ. eigenvalues --   -0.32902  -0.32600  -0.32047  -0.31146  -0.30440
 Alpha  occ. eigenvalues --   -0.29760  -0.27790
 Alpha virt. eigenvalues --   -0.13224  -0.10423  -0.09230  -0.08639  -0.07522
 Alpha virt. eigenvalues --   -0.05976  -0.05725  -0.05585  -0.05516  -0.04962
 Alpha virt. eigenvalues --   -0.03728  -0.02273  -0.01948  -0.01741  -0.01396

 Mulliken charges:
               1
     1  N   -0.747434
     2  H    0.414543
     3  H    0.429435
     4  H    0.418507
     5  C   -0.121645
     6  H    0.206710
     7  C    0.629614
     8  C   -0.336094
     9  H    0.192498
    10  H    0.219674
    11  O   -0.511223
    12  C   -0.346843
    13  H    0.133600
    14  H    0.153290
    15  C    0.590438
    16  O   -0.590465
    17  O   -0.557357
    18  N   -0.570772
    19  H    0.348255
    20  C   -0.065085
    21  H    0.187016
    22  C    0.641629
    23  C   -0.359595
    24  H    0.153529
    25  H    0.185378
    26  O   -0.557006
    27  C    0.047714
    28  C    0.018125
    29  H    0.157630
    30  C    0.105560
    31  C    0.314122
    32  C   -0.222195
    33  H    0.125248
    34  N   -0.669006
    35  H    0.352821
    36  C   -0.166672
    37  H    0.131030
    38  C   -0.167892
    39  H    0.142260
    40  C   -0.157024
    41  H    0.126287
    42  N   -0.603035
    43  H    0.355104
    44  C   -0.083829
    45  H    0.193844
    46  C    0.660575
    47  C    0.090449
    48  H    0.160986
    49  O   -0.599568
    50  C   -0.456430
    51  H    0.150358
    52  H    0.184389
    53  H    0.144155
    54  O   -0.643792
    55  H    0.417640
    56  N   -0.602619
    57  H    0.412494
    58  C   -0.077817
    59  H    0.198227
    60  C    0.585259
    61  C   -0.296657
    62  H    0.159982
    63  H    0.165659
    64  O   -0.442821
    65  C   -0.285075
    66  H    0.144610
    67  H    0.211428
    68  C   -0.204312
    69  H    0.185062
    70  H    0.215757
    71  N   -0.594655
    72  H    0.345878
    73  N   -0.785176
    74  H    0.357333
    75  H    0.447758
    76  N   -0.760820
    77  H    0.362679
    78  H    0.366312
    79  C    0.795786
    80  O   -0.572510
    81  H    0.418788
 Sum of Mulliken charges =   1.00000

 Dipole moment (field-independent basis, Debye):
    X=             -6.9153    Y=             17.5303    Z=              3.5425  Tot=             19.1750
 Quadrupole moment (field-independent basis, Debye-Ang):
   XX=           -201.0281   YY=           -121.6973   ZZ=           -165.2456
   XY=             13.8308   XZ=            -48.7524   YZ=            -31.1521

 Normal termination of Gaussian 16 at Sat May 14 13:21:52 2022.
