 Gaussian 16, Revision C.01,
 Gaussian 16:  ES64L-G16RevC.01  3-Jul-2019

 ----------------------------------------------------------------------
 # B3LYP/6-31G* empiricaldispersion=gd3 guess=read geom=check nosymm in
 tegral(ultrafinegrid)
 ----------------------------------------------------------------------

 ------------------------------------------------------
 Candidate Structure: Conf:315 Charge calc in gas phase
 ------------------------------------------------------
 Structure from the checkpoint file:  "conf-315.chk"
 Charge =  1 Multiplicity = 1

                          Input orientation:
 ---------------------------------------------------------------------
 Center     Atomic      Atomic             Coordinates (Angstroms)
 Number     Number       Type             X           Y           Z
 ---------------------------------------------------------------------
      1          7           0       -3.343145   -0.635274    3.236565
      2          1           0       -4.337191   -0.767421    3.035313
      3          1           0       -2.773677   -1.324056    2.648440
      4          1           0       -3.187372   -0.773782    4.238554
      5          6           0       -2.802113    0.688623    2.720979
      6          1           0       -3.644643    1.347738    2.507544
      7          6           0       -2.056046    0.297768    1.419464
      8          6           0       -1.873960    1.302315    3.787931
      9          1           0       -2.468859    1.474660    4.695043
     10          1           0       -1.075777    0.586245    4.020938
     11          8           0       -1.758824   -0.953431    1.317383
     12          6           0       -1.217669    2.637800    3.374184
     13          1           0       -0.493307    2.459297    2.575497
     14          1           0       -0.688656    3.035890    4.242305
     15          6           0       -2.249479    3.690976    2.946897
     16          8           0       -2.664329    4.536725    3.703818
     17          8           0       -2.699891    3.587912    1.681868
     18          7           0       -1.784309    1.295388    0.640850
     19          1           0       -2.293379    2.794792    1.197247
     20          6           0       -0.993067    1.094463   -0.571411
     21          1           0       -1.293278    0.165837   -1.078815
     22          6           0        0.479063    0.966748   -0.142258
     23          6           0       -1.209031    2.293948   -1.510059
     24          1           0       -0.515895    2.205261   -2.356485
     25          1           0       -0.931218    3.201761   -0.963524
     26          8           0        1.298779    1.909406   -0.241781
     27          6           0       -2.609299    2.377603   -2.027789
     28          6           0       -3.663424    3.080454   -1.496789
     29          1           0       -3.695003    3.722122   -0.626694
     30          6           0       -3.118231    1.665331   -3.170564
     31          6           0       -4.498711    1.985632   -3.284316
     32          6           0       -2.540007    0.797171   -4.111922
     33          1           0       -1.483555    0.540106   -4.046804
     34          7           0       -4.800168    2.844043   -2.245442
     35          1           0       -5.696247    3.279529   -2.090265
     36          6           0       -4.701571    0.607983   -5.219611
     37          1           0       -5.297831    0.186032   -6.023248
     38          6           0       -5.301557    1.466429   -4.304605
     39          1           0       -6.354642    1.722649   -4.380961
     40          6           0       -3.333490    0.275819   -5.125961
     41          1           0       -2.901134   -0.398938   -5.859644
     42          7           0        0.815045   -0.211833    0.402054
     43          1           0        0.054504   -0.885649    0.492598
     44          6           0        1.989023   -0.376989    1.268606
     45          1           0        2.166134    0.584505    1.763509
     46          6           0        3.207635   -0.740197    0.396202
     47          6           0        1.696229   -1.435655    2.353599
     48          1           0        1.577092   -2.409230    1.857505
     49          8           0        3.569910   -1.895501    0.211059
     50          6           0        2.833357   -1.517554    3.361316
     51          1           0        3.765523   -1.808545    2.870295
     52          1           0        2.590147   -2.262304    4.123532
     53          1           0        2.968765   -0.550977    3.859944
     54          8           0        0.507761   -1.088891    3.069371
     55          1           0       -0.262904   -1.267137    2.498319
     56          7           0        3.810155    0.348919   -0.162393
     57          1           0        3.325970    1.239939   -0.087651
     58          6           0        4.947876    0.228264   -1.063088
     59          1           0        5.290302   -0.806620   -0.973121
     60          6           0        6.062118    1.154831   -0.569687
     61          6           0        4.577062    0.556346   -2.515431
     62          1           0        5.476432    0.471244   -3.131515
     63          1           0        4.315738    1.621366   -2.552296
     64          8           0        6.397536    2.180339   -1.120954
     65          6           0        3.428041   -0.325618   -3.069804
     66          1           0        3.698145   -0.742547   -4.046892
     67          1           0        3.253865   -1.187074   -2.413420
     68          6           0        2.086932    0.403409   -3.197088
     69          1           0        1.310968   -0.267989   -3.580873
     70          1           0        1.758768    0.757871   -2.225250
     71          7           0        2.161357    1.560157   -4.106661
     72          1           0        2.459305    1.342761   -5.049573
     73          7           0        1.963767    3.304922   -2.543150
     74          1           0        1.723269    4.278145   -2.414412
     75          1           0        1.731057    2.710460   -1.734651
     76          7           0        2.255409    3.766900   -4.783108
     77          1           0        2.301185    3.490758   -5.752547
     78          1           0        2.394706    4.745583   -4.578966
     79          6           0        2.122263    2.859803   -3.790364
     80          8           0        6.610377    0.698715    0.571600
     81          1           0        7.296078    1.339850    0.839729
 ---------------------------------------------------------------------

 SCF Done:  E(RB3LYP) =  -2054.04304618     A.U. after    1 cycles

 Alpha  occ. eigenvalues --  -19.27975 -19.24095 -19.23238 -19.23074 -19.22665
 Alpha  occ. eigenvalues --  -19.22475 -19.20676 -19.18621 -14.56900 -14.52068
 Alpha  occ. eigenvalues --  -14.51800 -14.50141 -14.46776 -14.45232 -14.44762
 Alpha  occ. eigenvalues --  -14.41152 -10.48113 -10.40596 -10.39999 -10.37891
 Alpha  occ. eigenvalues --  -10.37870 -10.37409 -10.36597 -10.35235 -10.32747
 Alpha  occ. eigenvalues --  -10.32469 -10.32421 -10.32173 -10.30801 -10.29881
 Alpha  occ. eigenvalues --  -10.28880 -10.28605 -10.28601 -10.28090 -10.27885
 Alpha  occ. eigenvalues --  -10.25702 -10.25550 -10.25219 -10.25166 -10.25010
 Alpha  occ. eigenvalues --  -10.24907 -10.24742  -1.19029  -1.16372  -1.15219
 Alpha  occ. eigenvalues --   -1.14447  -1.14084  -1.12566  -1.10226  -1.10149
 Alpha  occ. eigenvalues --   -1.09590  -1.06427  -1.05953  -1.04606  -1.04096
 Alpha  occ. eigenvalues --   -1.03182  -1.01927  -0.99540  -0.91149  -0.90830
 Alpha  occ. eigenvalues --   -0.90541  -0.88227  -0.87476  -0.85561  -0.83876
 Alpha  occ. eigenvalues --   -0.81743  -0.80819  -0.80257  -0.79584  -0.78246
 Alpha  occ. eigenvalues --   -0.77463  -0.75047  -0.74080  -0.73611  -0.72728
 Alpha  occ. eigenvalues --   -0.71164  -0.70537  -0.69677  -0.68996  -0.68799
 Alpha  occ. eigenvalues --   -0.68277  -0.67800  -0.67218  -0.66396  -0.65632
 Alpha  occ. eigenvalues --   -0.65143  -0.64886  -0.63619  -0.62914  -0.61850
 Alpha  occ. eigenvalues --   -0.61259  -0.61010  -0.60564  -0.60419  -0.59687
 Alpha  occ. eigenvalues --   -0.59464  -0.59176  -0.58103  -0.57438  -0.56967
 Alpha  occ. eigenvalues --   -0.56793  -0.56488  -0.55853  -0.55246  -0.54908
 Alpha  occ. eigenvalues --   -0.54117  -0.53646  -0.52935  -0.52686  -0.52445
 Alpha  occ. eigenvalues --   -0.51668  -0.51165  -0.50830  -0.50461  -0.50282
 Alpha  occ. eigenvalues --   -0.49837  -0.49642  -0.49533  -0.48879  -0.48367
 Alpha  occ. eigenvalues --   -0.48118  -0.47998  -0.47747  -0.47543  -0.46855
 Alpha  occ. eigenvalues --   -0.46766  -0.46162  -0.45867  -0.45722  -0.45607
 Alpha  occ. eigenvalues --   -0.45044  -0.44876  -0.44604  -0.44423  -0.44100
 Alpha  occ. eigenvalues --   -0.42438  -0.42192  -0.41980  -0.41093  -0.40415
 Alpha  occ. eigenvalues --   -0.40258  -0.40182  -0.40025  -0.38980  -0.38879
 Alpha  occ. eigenvalues --   -0.37529  -0.37073  -0.36496  -0.35942  -0.35683
 Alpha  occ. eigenvalues --   -0.34234  -0.34189  -0.33764  -0.33294  -0.32168
 Alpha  occ. eigenvalues --   -0.28964  -0.27096
 Alpha virt. eigenvalues --   -0.11542  -0.10664  -0.08798  -0.08647  -0.08347
 Alpha virt. eigenvalues --   -0.07842  -0.07192  -0.06402  -0.04940  -0.04497
 Alpha virt. eigenvalues --   -0.04131  -0.03747  -0.03342  -0.02022  -0.00592

 Mulliken charges:
               1
     1  N   -0.759219
     2  H    0.409075
     3  H    0.421169
     4  H    0.406868
     5  C   -0.111637
     6  H    0.219147
     7  C    0.616378
     8  C   -0.317855
     9  H    0.173885
    10  H    0.199440
    11  O   -0.658954
    12  C   -0.366898
    13  H    0.173297
    14  H    0.192093
    15  C    0.569631
    16  O   -0.443245
    17  O   -0.632656
    18  N   -0.556256
    19  H    0.468652
    20  C   -0.053714
    21  H    0.168893
    22  C    0.641258
    23  C   -0.377407
    24  H    0.118670
    25  H    0.158581
    26  O   -0.609248
    27  C    0.052569
    28  C   -0.005982
    29  H    0.191635
    30  C    0.090331
    31  C    0.312245
    32  C   -0.215776
    33  H    0.092780
    34  N   -0.694191
    35  H    0.336944
    36  C   -0.152295
    37  H    0.138018
    38  C   -0.159922
    39  H    0.136681
    40  C   -0.139490
    41  H    0.123634
    42  N   -0.608764
    43  H    0.375530
    44  C   -0.060517
    45  H    0.176118
    46  C    0.638228
    47  C    0.098586
    48  H    0.154883
    49  O   -0.520064
    50  C   -0.463723
    51  H    0.181222
    52  H    0.171879
    53  H    0.153132
    54  O   -0.667837
    55  H    0.411552
    56  N   -0.619716
    57  H    0.357516
    58  C   -0.050032
    59  H    0.216742
    60  C    0.583034
    61  C   -0.281375
    62  H    0.174530
    63  H    0.150235
    64  O   -0.456204
    65  C   -0.293471
    66  H    0.156675
    67  H    0.201816
    68  C   -0.187214
    69  H    0.192933
    70  H    0.178801
    71  N   -0.593414
    72  H    0.355448
    73  N   -0.787858
    74  H    0.369462
    75  H    0.452858
    76  N   -0.768810
    77  H    0.378928
    78  H    0.383114
    79  C    0.818195
    80  O   -0.552656
    81  H    0.423109
 Sum of Mulliken charges =   1.00000

 Dipole moment (field-independent basis, Debye):
    X=              0.2681    Y=              4.7661    Z=             -7.7258  Tot=              9.0816
 Quadrupole moment (field-independent basis, Debye-Ang):
   XX=           -169.1337   YY=           -231.6008   ZZ=           -148.5231
   XY=             34.2853   XZ=            -44.7628   YZ=            -58.2656

 Normal termination of Gaussian 16 at Sat May 14 13:21:56 2022.
