 Gaussian 16, Revision C.01,
 Gaussian 16:  ES64L-G16RevC.01  3-Jul-2019

 ----------------------------------------------------------------------
 # B3LYP/6-31G* empiricaldispersion=gd3 guess=read geom=check nosymm in
 tegral(ultrafinegrid)
 ----------------------------------------------------------------------

 ------------------------------------------------------
 Candidate Structure: Conf:807 Charge calc in gas phase
 ------------------------------------------------------
 Structure from the checkpoint file:  "conf-807.chk"
 Charge =  1 Multiplicity = 1

                          Input orientation:
 ---------------------------------------------------------------------
 Center     Atomic      Atomic             Coordinates (Angstroms)
 Number     Number       Type             X           Y           Z
 ---------------------------------------------------------------------
      1          7           0       -4.027976    0.275902    4.210723
      2          1           0       -4.991338    0.598725    4.278958
      3          1           0       -3.814499   -0.907595    2.840782
      4          1           0       -3.662540    0.219733    5.158478
      5          6           0       -3.219721    1.186044    3.374445
      6          1           0       -3.614366    2.206292    3.348433
      7          6           0       -3.244092    0.616221    1.954449
      8          6           0       -1.765878    1.207950    3.906268
      9          1           0       -1.789355    1.629408    4.919023
     10          1           0       -1.411780    0.171053    3.980322
     11          8           0       -3.523694   -0.701348    1.900148
     12          6           0       -0.762814    2.014263    3.057840
     13          1           0       -0.645164    1.548682    2.075097
     14          1           0        0.204607    2.011531    3.568349
     15          6           0       -1.177955    3.484758    2.924535
     16          8           0       -0.757222    4.334118    3.676515
     17          8           0       -2.083708    3.760113    1.975280
     18          7           0       -2.952956    1.337525    0.944744
     19          1           0       -2.340473    2.947863    1.456159
     20          6           0       -2.839585    0.732418   -0.387058
     21          1           0       -3.297813   -0.265428   -0.409003
     22          6           0       -1.340793    0.547649   -0.669030
     23          6           0       -3.501571    1.615047   -1.441165
     24          1           0       -3.163458    1.274861   -2.428969
     25          1           0       -3.114771    2.637096   -1.340299
     26          8           0       -0.721985    1.145699   -1.536996
     27          6           0       -5.000466    1.599954   -1.364408
     28          6           0       -5.809261    0.881107   -0.517318
     29          1           0       -5.550345    0.194060    0.276965
     30          6           0       -5.878443    2.354441   -2.223142
     31          6           0       -7.212476    2.044251   -1.845672
     32          6           0       -5.659318    3.259869   -3.275109
     33          1           0       -4.647421    3.516084   -3.578575
     34          7           0       -7.138850    1.140752   -0.804813
     35          1           0       -7.928241    0.749786   -0.315810
     36          6           0       -8.072192    3.503273   -3.521970
     37          1           0       -8.909537    3.963136   -4.039205
     38          6           0       -8.319898    2.610573   -2.485202
     39          1           0       -9.334432    2.364375   -2.183214
     40          6           0       -6.755604    3.825518   -3.913763
     41          1           0       -6.601428    4.529844   -4.726351
     42          7           0       -0.729175   -0.385590    0.136753
     43          1           0       -1.217952   -0.750777    0.947483
     44          6           0        0.720602   -0.483228    0.142793
     45          1           0        1.171267    0.500853    0.329661
     46          6           0        1.253889   -0.888859   -1.242189
     47          6           0        1.154469   -1.462645    1.259095
     48          1           0        0.799003   -2.465720    0.994157
     49          8           0        2.370636   -0.555725   -1.622041
     50          6           0        2.664941   -1.478119    1.467230
     51          1           0        3.190206   -1.736739    0.543880
     52          1           0        2.921979   -2.197141    2.250054
     53          1           0        3.017922   -0.485768    1.774803
     54          8           0        0.457799   -1.153135    2.469659
     55          1           0        0.812372   -0.314523    2.809865
     56          7           0        0.406555   -1.667587   -1.988432
     57          1           0       -0.525681   -1.755775   -1.599935
     58          6           0        0.466210   -1.595682   -3.444096
     59          1           0        0.956409   -0.647959   -3.707818
     60          6           0       -0.924014   -1.519315   -4.080882
     61          6           0        1.261872   -2.743698   -4.094598
     62          1           0        1.141978   -2.654979   -5.179866
     63          1           0        0.821111   -3.702102   -3.790942
     64          8           0       -1.106141   -1.600504   -5.272224
     65          6           0        2.743469   -2.694809   -3.714038
     66          1           0        3.148774   -1.702537   -3.940921
     67          1           0        2.852846   -2.830600   -2.632524
     68          6           0        3.557356   -3.755152   -4.453064
     69          1           0        3.209348   -4.763491   -4.192141
     70          1           0        3.468741   -3.623445   -5.538078
     71          7           0        4.981922   -3.615663   -4.084373
     72          1           0        5.182531   -3.035854   -3.277786
     73          7           0        5.801939   -5.105847   -5.660650
     74          1           0        6.531974   -5.375746   -6.304779
     75          1           0        4.895369   -5.534019   -5.780821
     76          7           0        7.268033   -3.778243   -4.456372
     77          1           0        7.455085   -2.961806   -3.891105
     78          1           0        8.060729   -4.348377   -4.716007
     79          6           0        6.008751   -4.166274   -4.725522
     80          8           0       -1.921078   -1.345824   -3.182761
     81          1           0       -2.754883   -1.268876   -3.685371
 ---------------------------------------------------------------------

 SCF Done:  E(RB3LYP) =  -2054.01453100     A.U. after    1 cycles

 Alpha  occ. eigenvalues --  -19.29079 -19.26237 -19.24032 -19.22809 -19.21256
 Alpha  occ. eigenvalues --  -19.20348 -19.19453 -19.16336 -14.54731 -14.54520
 Alpha  occ. eigenvalues --  -14.54501 -14.44029 -14.43659 -14.42651 -14.42130
 Alpha  occ. eigenvalues --  -14.40177 -10.50974 -10.41284 -10.37497 -10.37293
 Alpha  occ. eigenvalues --  -10.36246 -10.36097 -10.35266 -10.33410 -10.33330
 Alpha  occ. eigenvalues --  -10.31416 -10.31401 -10.30791 -10.29513 -10.29310
 Alpha  occ. eigenvalues --  -10.27748 -10.26251 -10.26227 -10.26183 -10.25791
 Alpha  occ. eigenvalues --  -10.24271 -10.22704 -10.22698 -10.22294 -10.22167
 Alpha  occ. eigenvalues --  -10.22127 -10.21699  -1.19699  -1.19358  -1.15557
 Alpha  occ. eigenvalues --   -1.12509  -1.12418  -1.11396  -1.11020  -1.10707
 Alpha  occ. eigenvalues --   -1.08488  -1.07560  -1.04355  -1.01940  -1.01712
 Alpha  occ. eigenvalues --   -1.00157  -0.99054  -0.98540  -0.92582  -0.87690
 Alpha  occ. eigenvalues --   -0.87493  -0.86912  -0.85939  -0.85196  -0.82260
 Alpha  occ. eigenvalues --   -0.81683  -0.79896  -0.78458  -0.77689  -0.77218
 Alpha  occ. eigenvalues --   -0.76991  -0.75476  -0.73740  -0.72166  -0.72077
 Alpha  occ. eigenvalues --   -0.71298  -0.70164  -0.69013  -0.68087  -0.67205
 Alpha  occ. eigenvalues --   -0.66610  -0.66180  -0.66061  -0.65464  -0.63967
 Alpha  occ. eigenvalues --   -0.63467  -0.63037  -0.62257  -0.61426  -0.61061
 Alpha  occ. eigenvalues --   -0.60336  -0.59890  -0.58919  -0.58518  -0.58068
 Alpha  occ. eigenvalues --   -0.57772  -0.57004  -0.56829  -0.56662  -0.55821
 Alpha  occ. eigenvalues --   -0.55721  -0.55292  -0.54313  -0.54089  -0.52612
 Alpha  occ. eigenvalues --   -0.52475  -0.52267  -0.51593  -0.51099  -0.50993
 Alpha  occ. eigenvalues --   -0.50556  -0.49800  -0.49164  -0.48923  -0.48520
 Alpha  occ. eigenvalues --   -0.48244  -0.48045  -0.47578  -0.47352  -0.46838
 Alpha  occ. eigenvalues --   -0.46791  -0.46640  -0.46235  -0.45981  -0.45804
 Alpha  occ. eigenvalues --   -0.45719  -0.45542  -0.45276  -0.44905  -0.44596
 Alpha  occ. eigenvalues --   -0.44216  -0.43637  -0.43193  -0.43126  -0.42550
 Alpha  occ. eigenvalues --   -0.42343  -0.41411  -0.41319  -0.40705  -0.39725
 Alpha  occ. eigenvalues --   -0.39111  -0.37406  -0.37245  -0.37084  -0.37042
 Alpha  occ. eigenvalues --   -0.36382  -0.35701  -0.34897  -0.34607  -0.34229
 Alpha  occ. eigenvalues --   -0.33796  -0.32690  -0.31832  -0.31051  -0.30028
 Alpha  occ. eigenvalues --   -0.26059  -0.24276
 Alpha virt. eigenvalues --   -0.14697  -0.10571  -0.08184  -0.07674  -0.07073
 Alpha virt. eigenvalues --   -0.06856  -0.05839  -0.05213  -0.04901  -0.04197
 Alpha virt. eigenvalues --   -0.03610  -0.02382  -0.01688  -0.01315  -0.01121

 Mulliken charges:
               1
     1  N   -0.786695
     2  H    0.339172
     3  H    0.445960
     4  H    0.339358
     5  C   -0.071687
     6  H    0.198483
     7  C    0.581346
     8  C   -0.298226
     9  H    0.177926
    10  H    0.164045
    11  O   -0.634537
    12  C   -0.393907
    13  H    0.160807
    14  H    0.167333
    15  C    0.579443
    16  O   -0.449860
    17  O   -0.595555
    18  N   -0.508876
    19  H    0.447718
    20  C   -0.109927
    21  H    0.164896
    22  C    0.642802
    23  C   -0.331127
    24  H    0.148940
    25  H    0.177918
    26  O   -0.513295
    27  C    0.069582
    28  C   -0.010511
    29  H    0.146091
    30  C    0.071643
    31  C    0.319298
    32  C   -0.210120
    33  H    0.127027
    34  N   -0.707853
    35  H    0.326494
    36  C   -0.150094
    37  H    0.130929
    38  C   -0.163150
    39  H    0.126063
    40  C   -0.140008
    41  H    0.127445
    42  N   -0.673601
    43  H    0.365104
    44  C   -0.029101
    45  H    0.179777
    46  C    0.618393
    47  C    0.101218
    48  H    0.150833
    49  O   -0.538324
    50  C   -0.466454
    51  H    0.161093
    52  H    0.170479
    53  H    0.155815
    54  O   -0.626044
    55  H    0.406384
    56  N   -0.610609
    57  H    0.365903
    58  C   -0.054061
    59  H    0.216087
    60  C    0.603123
    61  C   -0.270235
    62  H    0.179878
    63  H    0.152834
    64  O   -0.447499
    65  C   -0.311931
    66  H    0.183943
    67  H    0.177771
    68  C   -0.145137
    69  H    0.183049
    70  H    0.188646
    71  N   -0.608360
    72  H    0.375381
    73  N   -0.755565
    74  H    0.389774
    75  H    0.396684
    76  N   -0.762027
    77  H    0.389838
    78  H    0.388314
    79  C    0.838351
    80  O   -0.579492
    81  H    0.434479
 Sum of Mulliken charges =   1.00000

 Dipole moment (field-independent basis, Debye):
    X=             18.4705    Y=            -24.7200    Z=            -14.3417  Tot=             34.0283
 Quadrupole moment (field-independent basis, Debye-Ang):
   XX=            -26.4328   YY=           -194.3048   ZZ=           -132.6846
   XY=           -102.3468   XZ=           -140.8129   YZ=             80.1383

 Normal termination of Gaussian 16 at Sat May 14 13:21:42 2022.
