 Gaussian 16, Revision C.01,
 Gaussian 16:  ES64L-G16RevC.01  3-Jul-2019

 ----------------------------------------------------------------------
 # B3LYP/6-31G* empiricaldispersion=gd3 guess=read geom=check nosymm in
 tegral(ultrafinegrid)
 ----------------------------------------------------------------------

 ------------------------------------------------------
 Candidate Structure: Conf:771 Charge calc in gas phase
 ------------------------------------------------------
 Structure from the checkpoint file:  "conf-771.chk"
 Charge =  1 Multiplicity = 1

                          Input orientation:
 ---------------------------------------------------------------------
 Center     Atomic      Atomic             Coordinates (Angstroms)
 Number     Number       Type             X           Y           Z
 ---------------------------------------------------------------------
      1          7           0       -3.571604   -2.217964   -2.708164
      2          1           0       -4.178346   -2.703197   -2.023032
      3          1           0       -4.001941   -1.289374   -2.908834
      4          1           0       -3.492368   -2.781521   -3.557707
      5          6           0       -2.225586   -1.884889   -2.099618
      6          1           0       -2.021084   -2.667614   -1.367614
      7          6           0       -2.501477   -0.533465   -1.404658
      8          6           0       -1.107636   -1.816233   -3.141596
      9          1           0       -0.188059   -1.546319   -2.612316
     10          1           0       -0.939908   -2.823513   -3.546019
     11          8           0       -3.406281    0.178618   -1.851520
     12          6           0       -1.302062   -0.807371   -4.274892
     13          1           0       -1.524500    0.184144   -3.860164
     14          1           0       -2.132335   -1.061843   -4.943871
     15          6           0       -0.015253   -0.676866   -5.126338
     16          8           0       -0.191506   -0.320098   -6.338381
     17          8           0        1.084885   -0.850471   -4.560092
     18          7           0       -1.751570   -0.265702   -0.327141
     19          1           0       -0.938268   -0.846109   -0.146048
     20          6           0       -1.999967    0.899224    0.528868
     21          1           0       -2.548426    1.618532   -0.077934
     22          6           0       -0.678344    1.587427    0.900893
     23          6           0       -2.886190    0.504860    1.748444
     24          1           0       -3.022009    1.395099    2.372740
     25          1           0       -2.357836   -0.237132    2.360209
     26          8           0       -0.492946    2.763626    0.642263
     27          6           0       -4.204997   -0.030626    1.270920
     28          6           0       -5.312242    0.716710    0.953469
     29          1           0       -5.499929    1.768752    1.118596
     30          6           0       -4.477275   -1.367882    0.808318
     31          6           0       -5.758881   -1.345789    0.182477
     32          6           0       -3.757081   -2.574370    0.826517
     33          1           0       -2.791356   -2.628556    1.321110
     34          7           0       -6.246014   -0.066524    0.307327
     35          1           0       -7.149801    0.250278   -0.008831
     36          6           0       -5.547927   -3.641675   -0.448075
     37          1           0       -5.951731   -4.537459   -0.910886
     38          6           0       -6.301994   -2.467764   -0.451909
     39          1           0       -7.277966   -2.429958   -0.927416
     40          6           0       -4.290203   -3.697967    0.199460
     41          1           0       -3.745904   -4.637867    0.222396
     42          7           0        0.296586    0.784853    1.464246
     43          1           0        0.072022   -0.197972    1.573659
     44          6           0        1.664120    0.925318    0.994440
     45          1           0        1.893588    1.991961    0.930608
     46          6           0        1.746984    0.248801   -0.389271
     47          6           0        2.657081    0.203818    1.944079
     48          1           0        3.668714    0.335674    1.530364
     49          8           0        0.940916   -0.629815   -0.709584
     50          6           0        2.608886    0.758873    3.358481
     51          1           0        2.868751    1.823019    3.365857
     52          1           0        3.318464    0.217173    3.989143
     53          1           0        1.605545    0.642560    3.776623
     54          8           0        2.331055   -1.182948    2.007347
     55          1           0        2.622605   -1.597970    1.177731
     56          7           0        2.780706    0.623665   -1.176475
     57          1           0        3.452297    1.277699   -0.794576
     58          6           0        3.142216   -0.122155   -2.374066
     59          1           0        2.246648   -0.684651   -2.666834
     60          6           0        4.228480   -1.154211   -2.086967
     61          6           0        3.520700    0.770278   -3.564328
     62          1           0        3.543363    0.111484   -4.433579
     63          1           0        4.532568    1.177979   -3.439159
     64          8           0        5.059830   -1.517792   -2.883603
     65          6           0        2.498468    1.890641   -3.776546
     66          1           0        1.496669    1.460399   -3.695739
     67          1           0        2.596772    2.661561   -3.003341
     68          6           0        2.618061    2.566893   -5.150618
     69          1           0        1.987036    3.460156   -5.183746
     70          1           0        3.640684    2.915910   -5.329672
     71          7           0        2.191663    1.699828   -6.251019
     72          1           0        1.223996    1.368426   -6.213890
     73          7           0        4.298397    1.106132   -7.117750
     74          1           0        4.904982    0.358712   -7.419434
     75          1           0        4.740469    1.875103   -6.640839
     76          7           0        2.395939   -0.159229   -7.561958
     77          1           0        1.429933   -0.383228   -7.220771
     78          1           0        2.912052   -0.771357   -8.173561
     79          6           0        2.973305    0.868944   -6.962008
     80          8           0        4.147403   -1.662350   -0.824008
     81          1           0        4.853183   -2.332876   -0.754312
 ---------------------------------------------------------------------

 SCF Done:  E(RB3LYP) =  -2054.06358377     A.U. after    1 cycles

 Alpha  occ. eigenvalues --  -19.29083 -19.23297 -19.23070 -19.23016 -19.22562
 Alpha  occ. eigenvalues --  -19.20780 -19.15473 -19.15309 -14.56187 -14.48230
 Alpha  occ. eigenvalues --  -14.47298 -14.46729 -14.46702 -14.46644 -14.45698
 Alpha  occ. eigenvalues --  -14.44244 -10.43426 -10.41031 -10.40261 -10.38986
 Alpha  occ. eigenvalues --  -10.37741 -10.36587 -10.33647 -10.33140 -10.32913
 Alpha  occ. eigenvalues --  -10.32613 -10.32346 -10.32338 -10.31708 -10.31024
 Alpha  occ. eigenvalues --  -10.29186 -10.28981 -10.28767 -10.28705 -10.28699
 Alpha  occ. eigenvalues --  -10.28443 -10.28181 -10.27660 -10.27601 -10.27308
 Alpha  occ. eigenvalues --  -10.26224 -10.25013  -1.19561  -1.15781  -1.14535
 Alpha  occ. eigenvalues --   -1.12506  -1.12109  -1.10694  -1.10467  -1.10403
 Alpha  occ. eigenvalues --   -1.08488  -1.07321  -1.03834  -1.03089  -1.01645
 Alpha  occ. eigenvalues --   -1.01071  -1.00109  -0.99357  -0.93950  -0.90799
 Alpha  occ. eigenvalues --   -0.89464  -0.89386  -0.86767  -0.85296  -0.84211
 Alpha  occ. eigenvalues --   -0.83387  -0.81911  -0.80899  -0.79444  -0.77962
 Alpha  occ. eigenvalues --   -0.75766  -0.74069  -0.72929  -0.71983  -0.71172
 Alpha  occ. eigenvalues --   -0.70468  -0.69893  -0.69304  -0.69007  -0.68833
 Alpha  occ. eigenvalues --   -0.68484  -0.68380  -0.68118  -0.66908  -0.66108
 Alpha  occ. eigenvalues --   -0.65714  -0.64040  -0.63189  -0.62026  -0.60867
 Alpha  occ. eigenvalues --   -0.60511  -0.59838  -0.59398  -0.58777  -0.58590
 Alpha  occ. eigenvalues --   -0.58288  -0.58043  -0.57672  -0.57118  -0.56752
 Alpha  occ. eigenvalues --   -0.56473  -0.55586  -0.55392  -0.54530  -0.54048
 Alpha  occ. eigenvalues --   -0.53799  -0.53567  -0.52933  -0.52862  -0.52747
 Alpha  occ. eigenvalues --   -0.52339  -0.51611  -0.51340  -0.51040  -0.50797
 Alpha  occ. eigenvalues --   -0.50544  -0.50036  -0.49696  -0.49370  -0.48698
 Alpha  occ. eigenvalues --   -0.48449  -0.47833  -0.47524  -0.47333  -0.46846
 Alpha  occ. eigenvalues --   -0.46232  -0.46202  -0.46011  -0.45897  -0.45668
 Alpha  occ. eigenvalues --   -0.45090  -0.44673  -0.44183  -0.43699  -0.43581
 Alpha  occ. eigenvalues --   -0.43359  -0.43023  -0.42790  -0.41539  -0.41425
 Alpha  occ. eigenvalues --   -0.40962  -0.38711  -0.38642  -0.37775  -0.37528
 Alpha  occ. eigenvalues --   -0.37128  -0.36556  -0.36231  -0.35767  -0.34726
 Alpha  occ. eigenvalues --   -0.34218  -0.33391  -0.32319  -0.31137  -0.30530
 Alpha  occ. eigenvalues --   -0.29542  -0.29318
 Alpha virt. eigenvalues --   -0.11256  -0.09830  -0.08928  -0.08093  -0.07746
 Alpha virt. eigenvalues --   -0.07567  -0.07524  -0.06401  -0.04556  -0.03368
 Alpha virt. eigenvalues --   -0.02859  -0.01966  -0.01484  -0.01170  -0.00851

 Mulliken charges:
               1
     1  N   -0.763194
     2  H    0.418168
     3  H    0.419972
     4  H    0.400962
     5  C   -0.116229
     6  H    0.192716
     7  C    0.673742
     8  C   -0.309642
     9  H    0.234734
    10  H    0.156903
    11  O   -0.548223
    12  C   -0.374725
    13  H    0.175714
    14  H    0.134968
    15  C    0.589779
    16  O   -0.615550
    17  O   -0.574960
    18  N   -0.615558
    19  H    0.367801
    20  C   -0.069861
    21  H    0.212496
    22  C    0.600840
    23  C   -0.359882
    24  H    0.182207
    25  H    0.155384
    26  O   -0.480786
    27  C    0.065504
    28  C    0.036995
    29  H    0.178320
    30  C    0.070319
    31  C    0.332347
    32  C   -0.214946
    33  H    0.136563
    34  N   -0.681135
    35  H    0.345676
    36  C   -0.215993
    37  H    0.153804
    38  C   -0.172749
    39  H    0.153426
    40  C   -0.177010
    41  H    0.148321
    42  N   -0.575198
    43  H    0.328511
    44  C   -0.094968
    45  H    0.189861
    46  C    0.621591
    47  C    0.115632
    48  H    0.129086
    49  O   -0.552658
    50  C   -0.441983
    51  H    0.153973
    52  H    0.174218
    53  H    0.173780
    54  O   -0.636007
    55  H    0.412928
    56  N   -0.591426
    57  H    0.340242
    58  C   -0.097695
    59  H    0.274864
    60  C    0.602387
    61  C   -0.280205
    62  H    0.187949
    63  H    0.132924
    64  O   -0.448813
    65  C   -0.256816
    66  H    0.177798
    67  H    0.146558
    68  C   -0.181727
    69  H    0.189682
    70  H    0.147256
    71  N   -0.587195
    72  H    0.381581
    73  N   -0.755424
    74  H    0.369706
    75  H    0.370933
    76  N   -0.772857
    77  H    0.419257
    78  H    0.354664
    79  C    0.793516
    80  O   -0.588295
    81  H    0.425156
 Sum of Mulliken charges =   1.00000

 Dipole moment (field-independent basis, Debye):
    X=             -0.7967    Y=             -3.4699    Z=            -12.8650  Tot=             13.3485
 Quadrupole moment (field-independent basis, Debye-Ang):
   XX=           -113.0580   YY=           -214.7124   ZZ=           -161.9211
   XY=             35.5740   XZ=            -35.9719   YZ=              4.6547

 Normal termination of Gaussian 16 at Sat May 14 13:21:46 2022.
