 Gaussian 16, Revision C.01,
 Gaussian 16:  ES64L-G16RevC.01  3-Jul-2019

 ----------------------------------------------------------------------
 # B3LYP/6-31G* empiricaldispersion=gd3 guess=read geom=check nosymm in
 tegral(ultrafinegrid)
 ----------------------------------------------------------------------

 ------------------------------------------------------
 Candidate Structure: Conf:684 Charge calc in gas phase
 ------------------------------------------------------
 Structure from the checkpoint file:  "conf-684.chk"
 Charge =  1 Multiplicity = 1

                          Input orientation:
 ---------------------------------------------------------------------
 Center     Atomic      Atomic             Coordinates (Angstroms)
 Number     Number       Type             X           Y           Z
 ---------------------------------------------------------------------
      1          7           0       -3.886851   -1.238696    3.496780
      2          1           0       -4.852136   -0.955048    3.687411
      3          1           0       -3.869261   -1.795632    2.600054
      4          1           0       -3.539187   -1.803345    4.277425
      5          6           0       -2.949237   -0.076675    3.183684
      6          1           0       -3.344350    0.823365    3.662037
      7          6           0       -2.998674   -0.011407    1.644779
      8          6           0       -1.548565   -0.461878    3.694530
      9          1           0       -1.633135   -0.676704    4.769530
     10          1           0       -1.261805   -1.389296    3.191401
     11          8           0       -3.388231   -1.012485    1.029830
     12          6           0       -0.424582    0.549073    3.476909
     13          1           0       -0.479286    1.381146    4.184907
     14          1           0       -0.437600    0.967154    2.465164
     15          6           0        1.005955   -0.126718    3.583337
     16          8           0        1.055389   -1.332279    3.174805
     17          8           0        1.911198    0.609917    3.976394
     18          7           0       -2.567583    1.117176    1.056086
     19          1           0       -2.121383    1.821207    1.636803
     20          6           0       -2.103782    1.086643   -0.343524
     21          1           0       -2.719819    0.340039   -0.848363
     22          6           0       -0.633639    0.617202   -0.288224
     23          6           0       -2.314219    2.444240   -1.038713
     24          1           0       -3.395197    2.626941   -1.056411
     25          1           0       -2.007686    2.316594   -2.082905
     26          8           0        0.271867    1.439133   -0.109547
     27          6           0       -1.606355    3.635234   -0.454516
     28          6           0       -2.021296    4.413610    0.599106
     29          1           0       -2.909562    4.330474    1.211399
     30          6           0       -0.391854    4.235845   -0.945188
     31          6           0       -0.129204    5.379595   -0.142724
     32          6           0        0.479634    3.930710   -2.002047
     33          1           0        0.314690    3.048400   -2.613359
     34          7           0       -1.128492    5.450318    0.803600
     35          1           0       -1.232028    6.179359    1.492101
     36          6           0        1.783461    5.920900   -1.457986
     37          1           0        2.608198    6.587953   -1.700941
     38          6           0        0.956586    6.228524   -0.382576
     39          1           0        1.131349    7.106985    0.232445
     40          6           0        1.549174    4.781393   -2.258882
     41          1           0        2.200400    4.580861   -3.107040
     42          7           0       -0.443438   -0.715224   -0.339147
     43          1           0       -1.245576   -1.332325   -0.267338
     44          6           0        0.855604   -1.323423   -0.001342
     45          1           0        1.244174   -0.812309    0.886095
     46          6           0        1.827143   -1.118047   -1.173639
     47          6           0        0.635479   -2.795529    0.389879
     48          1           0        0.205187   -3.327441   -0.468128
     49          8           0        1.964061   -1.889264   -2.114781
     50          6           0        1.946988   -3.450938    0.817253
     51          1           0        2.670477   -3.465449   -0.003786
     52          1           0        1.746439   -4.479556    1.131075
     53          1           0        2.367489   -2.904028    1.668489
     54          8           0       -0.336154   -2.832159    1.430937
     55          1           0        0.105887   -2.372057    2.194090
     56          7           0        2.536328    0.040821   -1.042339
     57          1           0        2.134222    0.717756   -0.399975
     58          6           0        3.360157    0.556644   -2.108494
     59          1           0        2.777575    0.712077   -3.026987
     60          6           0        4.494460   -0.418560   -2.432934
     61          6           0        3.942854    1.890082   -1.609781
     62          1           0        4.566211    1.675168   -0.733003
     63          1           0        3.103343    2.513006   -1.275570
     64          8           0        5.142660   -1.030331   -1.621593
     65          6           0        4.746985    2.666061   -2.654024
     66          1           0        5.612870    2.086096   -2.994520
     67          1           0        4.117788    2.862137   -3.532594
     68          6           0        5.201831    3.991087   -2.047273
     69          1           0        4.324194    4.547597   -1.695386
     70          1           0        5.871811    3.809386   -1.198617
     71          7           0        5.928021    4.806846   -3.046694
     72          1           0        5.920337    4.475298   -4.004079
     73          7           0        6.433507    6.540533   -1.590961
     74          1           0        7.101663    7.230381   -1.276624
     75          1           0        5.780762    6.184894   -0.906528
     76          7           0        7.366149    6.512143   -3.708190
     77          1           0        7.626089    6.023870   -4.553155
     78          1           0        7.654957    7.476333   -3.622342
     79          6           0        6.571177    5.942395   -2.785065
     80          8           0        4.758123   -0.424932   -3.765682
     81          1           0        5.481609   -1.067330   -3.896052
 ---------------------------------------------------------------------

 SCF Done:  E(RB3LYP) =  -2053.98264683     A.U. after    1 cycles

 Alpha  occ. eigenvalues --  -19.25747 -19.24413 -19.19597 -19.19036 -19.16335
 Alpha  occ. eigenvalues --  -19.15380 -19.09794 -19.08451 -14.57276 -14.54038
 Alpha  occ. eigenvalues --  -14.54022 -14.53943 -14.47498 -14.45703 -14.42794
 Alpha  occ. eigenvalues --  -14.40281 -10.50369 -10.41091 -10.37781 -10.37281
 Alpha  occ. eigenvalues --  -10.36479 -10.36054 -10.33038 -10.32393 -10.30656
 Alpha  occ. eigenvalues --  -10.30516 -10.29887 -10.29730 -10.28232 -10.28009
 Alpha  occ. eigenvalues --  -10.28005 -10.27629 -10.27061 -10.27004 -10.26665
 Alpha  occ. eigenvalues --  -10.26642 -10.26504 -10.26432 -10.26279 -10.25996
 Alpha  occ. eigenvalues --  -10.22704 -10.18838  -1.18748  -1.16744  -1.16344
 Alpha  occ. eigenvalues --   -1.11275  -1.10787  -1.08180  -1.07852  -1.07323
 Alpha  occ. eigenvalues --   -1.06956  -1.05619  -1.03961  -1.03615  -1.02246
 Alpha  occ. eigenvalues --   -0.98551  -0.98038  -0.94042  -0.91954  -0.91748
 Alpha  occ. eigenvalues --   -0.90192  -0.88210  -0.85602  -0.84475  -0.81743
 Alpha  occ. eigenvalues --   -0.81481  -0.80585  -0.80059  -0.79301  -0.77945
 Alpha  occ. eigenvalues --   -0.76185  -0.75203  -0.73121  -0.72793  -0.72157
 Alpha  occ. eigenvalues --   -0.71562  -0.71140  -0.70368  -0.69672  -0.67856
 Alpha  occ. eigenvalues --   -0.67364  -0.67259  -0.66602  -0.66525  -0.64812
 Alpha  occ. eigenvalues --   -0.64272  -0.63984  -0.62720  -0.62152  -0.61946
 Alpha  occ. eigenvalues --   -0.61417  -0.60840  -0.59915  -0.58748  -0.58536
 Alpha  occ. eigenvalues --   -0.57187  -0.56685  -0.56490  -0.56089  -0.55520
 Alpha  occ. eigenvalues --   -0.55100  -0.54470  -0.53825  -0.53108  -0.52521
 Alpha  occ. eigenvalues --   -0.52253  -0.51643  -0.51063  -0.50917  -0.50351
 Alpha  occ. eigenvalues --   -0.50259  -0.50038  -0.49385  -0.49266  -0.48871
 Alpha  occ. eigenvalues --   -0.48439  -0.48016  -0.47238  -0.46877  -0.46504
 Alpha  occ. eigenvalues --   -0.46383  -0.46118  -0.45895  -0.45639  -0.45111
 Alpha  occ. eigenvalues --   -0.44676  -0.44319  -0.44053  -0.43543  -0.43338
 Alpha  occ. eigenvalues --   -0.43297  -0.42645  -0.42589  -0.41369  -0.41294
 Alpha  occ. eigenvalues --   -0.41165  -0.41095  -0.39642  -0.39257  -0.38790
 Alpha  occ. eigenvalues --   -0.38310  -0.37886  -0.37571  -0.36592  -0.35529
 Alpha  occ. eigenvalues --   -0.34125  -0.33655  -0.33341  -0.32489  -0.30562
 Alpha  occ. eigenvalues --   -0.30082  -0.29372  -0.28671  -0.28081  -0.24907
 Alpha  occ. eigenvalues --   -0.24568  -0.22729
 Alpha virt. eigenvalues --   -0.14128  -0.10551  -0.10136  -0.09317  -0.08109
 Alpha virt. eigenvalues --   -0.06230  -0.05769  -0.05538  -0.05314  -0.05005
 Alpha virt. eigenvalues --   -0.04667  -0.03144  -0.02913  -0.02133  -0.02029

 Mulliken charges:
               1
     1  N   -0.745984
     2  H    0.407192
     3  H    0.435110
     4  H    0.417241
     5  C   -0.124315
     6  H    0.194289
     7  C    0.656963
     8  C   -0.288979
     9  H    0.158969
    10  H    0.196655
    11  O   -0.534521
    12  C   -0.405891
    13  H    0.144162
    14  H    0.146358
    15  C    0.587985
    16  O   -0.610510
    17  O   -0.549376
    18  N   -0.587810
    19  H    0.356652
    20  C   -0.078002
    21  H    0.193825
    22  C    0.628759
    23  C   -0.368751
    24  H    0.167780
    25  H    0.172922
    26  O   -0.546963
    27  C    0.089833
    28  C   -0.015860
    29  H    0.152029
    30  C    0.109514
    31  C    0.319431
    32  C   -0.188963
    33  H    0.136575
    34  N   -0.689867
    35  H    0.337582
    36  C   -0.159913
    37  H    0.096447
    38  C   -0.155738
    39  H    0.132893
    40  C   -0.155690
    41  H    0.105510
    42  N   -0.596139
    43  H    0.363000
    44  C   -0.106411
    45  H    0.215173
    46  C    0.639754
    47  C    0.119495
    48  H    0.139736
    49  O   -0.530738
    50  C   -0.490569
    51  H    0.161721
    52  H    0.151540
    53  H    0.192340
    54  O   -0.712298
    55  H    0.452844
    56  N   -0.621093
    57  H    0.376561
    58  C    0.016825
    59  H    0.163676
    60  C    0.598029
    61  C   -0.337487
    62  H    0.187659
    63  H    0.187934
    64  O   -0.443802
    65  C   -0.319525
    66  H    0.178099
    67  H    0.164164
    68  C   -0.156456
    69  H    0.198046
    70  H    0.194629
    71  N   -0.611899
    72  H    0.369624
    73  N   -0.757389
    74  H    0.387687
    75  H    0.401145
    76  N   -0.764160
    77  H    0.387804
    78  H    0.387936
    79  C    0.839811
    80  O   -0.580323
    81  H    0.415517
 Sum of Mulliken charges =   1.00000

 Dipole moment (field-independent basis, Debye):
    X=              8.6350    Y=             29.3137    Z=             -7.5088  Tot=             31.4680
 Quadrupole moment (field-independent basis, Debye-Ang):
   XX=             -9.7669   YY=            -70.3334   ZZ=           -183.8499
   XY=            177.8641   XZ=           -154.4575   YZ=            -67.2614

 Normal termination of Gaussian 16 at Sat May 14 13:22:02 2022.
