 Gaussian 16, Revision C.01,
 Gaussian 16:  ES64L-G16RevC.01  3-Jul-2019

 ----------------------------------------------------------------------
 # B3LYP/6-31G* empiricaldispersion=gd3 guess=read geom=check nosymm in
 tegral(ultrafinegrid)
 ----------------------------------------------------------------------

 ------------------------------------------------------
 Candidate Structure: Conf:669 Charge calc in gas phase
 ------------------------------------------------------
 Structure from the checkpoint file:  "conf-669.chk"
 Charge =  1 Multiplicity = 1

                          Input orientation:
 ---------------------------------------------------------------------
 Center     Atomic      Atomic             Coordinates (Angstroms)
 Number     Number       Type             X           Y           Z
 ---------------------------------------------------------------------
      1          7           0       -3.493637   -3.522979   -2.140384
      2          1           0       -3.820320   -4.382150   -1.691612
      3          1           0       -4.316650   -2.862283   -2.268229
      4          1           0       -3.054616   -3.766439   -3.032786
      5          6           0       -2.558364   -2.706198   -1.261426
      6          1           0       -2.339907   -3.288418   -0.363591
      7          6           0       -3.385588   -1.423364   -0.976591
      8          6           0       -1.292780   -2.323611   -2.035281
      9          1           0       -1.544339   -1.563261   -2.785813
     10          1           0       -0.618902   -1.833828   -1.328678
     11          8           0       -4.431092   -1.259393   -1.626120
     12          6           0       -0.497397   -3.452730   -2.698798
     13          1           0       -1.038010   -3.948784   -3.515553
     14          1           0       -0.219965   -4.221476   -1.965528
     15          6           0        0.797182   -2.821125   -3.297495
     16          8           0        1.206312   -3.311374   -4.395643
     17          8           0        1.288169   -1.869863   -2.661812
     18          7           0       -2.855269   -0.535808   -0.134053
     19          1           0       -1.926042   -0.697562    0.251944
     20          6           0       -3.341613    0.850304   -0.016731
     21          1           0       -4.091301    0.975157   -0.803845
     22          6           0       -2.107581    1.737997   -0.299994
     23          6           0       -3.949412    1.140592    1.358502
     24          1           0       -4.237222    2.198456    1.379870
     25          1           0       -3.154864    1.043245    2.106197
     26          8           0       -1.681043    2.543853    0.522994
     27          6           0       -5.095338    0.231264    1.702139
     28          6           0       -6.128305   -0.169088    0.888752
     29          1           0       -6.312781    0.045578   -0.154320
     30          6           0       -5.326266   -0.381985    2.986414
     31          6           0       -6.521012   -1.144423    2.883101
     32          6           0       -4.636870   -0.363051    4.211285
     33          1           0       -3.724151    0.216869    4.322194
     34          7           0       -6.979656   -1.004250    1.588760
     35          1           0       -7.848859   -1.372713    1.236154
     36          6           0       -6.335293   -1.835005    5.155942
     37          1           0       -6.710741   -2.387292    6.012522
     38          6           0       -7.039066   -1.874089    3.957995
     39          1           0       -7.957957   -2.446268    3.861823
     40          6           0       -5.144657   -1.088315    5.281060
     41          1           0       -4.622688   -1.078460    6.233581
     42          7           0       -1.483567    1.448053   -1.464841
     43          1           0       -1.882057    0.771752   -2.108685
     44          6           0       -0.051109    1.605446   -1.605048
     45          1           0        0.217296    2.650862   -1.419244
     46          6           0        0.295424    1.192681   -3.046584
     47          6           0        0.738615    0.649882   -0.611278
     48          1           0        0.921313   -0.298488   -1.118075
     49          8           0       -0.486941    0.518826   -3.711622
     50          6           0        2.082703    1.237851   -0.188865
     51          1           0        2.778876    1.282312   -1.033475
     52          1           0        2.537182    0.579547    0.556467
     53          1           0        1.970649    2.239551    0.246702
     54          8           0       -0.045450    0.299673    0.536149
     55          1           0       -0.221641    1.114334    1.039366
     56          7           0        1.506440    1.611876   -3.508416
     57          1           0        2.168679    1.942743   -2.818166
     58          6           0        2.099637    0.988256   -4.685250
     59          1           0        1.293594    0.759554   -5.382168
     60          6           0        2.825185   -0.315898   -4.251028
     61          6           0        3.163582    1.900813   -5.302862
     62          1           0        3.918492    2.037440   -4.517418
     63          1           0        2.756315    2.887795   -5.545373
     64          8           0        3.728221   -0.244091   -3.428485
     65          6           0        3.819059    1.225713   -6.534513
     66          1           0        3.412671    0.217707   -6.673181
     67          1           0        3.608007    1.769964   -7.462444
     68          6           0        5.320584    1.020715   -6.344555
     69          1           0        5.456482    0.390277   -5.457732
     70          1           0        5.773459    0.529628   -7.214183
     71          7           0        6.011118    2.305536   -6.103507
     72          1           0        5.558426    3.140128   -6.454286
     73          7           0        7.932547    1.380394   -5.184501
     74          1           0        8.632572    1.433537   -4.457837
     75          1           0        7.661429    0.455967   -5.487727
     76          7           0        7.612409    3.669851   -5.115986
     77          1           0        7.024048    4.484949   -5.212273
     78          1           0        8.590818    3.830793   -4.923002
     79          6           0        7.173131    2.447990   -5.476523
     80          8           0        2.406907   -1.368910   -4.902779
     81          1           0        2.290302   -2.263098   -4.309594
 ---------------------------------------------------------------------

 SCF Done:  E(RB3LYP) =  -2053.97864687     A.U. after    1 cycles

 Alpha  occ. eigenvalues --  -19.23860 -19.22322 -19.19110 -19.18980 -19.18798
 Alpha  occ. eigenvalues --  -19.16992 -19.13505 -19.13169 -14.56317 -14.53175
 Alpha  occ. eigenvalues --  -14.53130 -14.53043 -14.46397 -14.43364 -14.43085
 Alpha  occ. eigenvalues --  -14.42667 -10.49468 -10.40380 -10.36824 -10.36239
 Alpha  occ. eigenvalues --  -10.36197 -10.35459 -10.34867 -10.31727 -10.31400
 Alpha  occ. eigenvalues --  -10.30587 -10.30456 -10.29539 -10.29323 -10.27967
 Alpha  occ. eigenvalues --  -10.27924 -10.26940 -10.26660 -10.25459 -10.25458
 Alpha  occ. eigenvalues --  -10.24491 -10.23577 -10.23504 -10.23198 -10.23141
 Alpha  occ. eigenvalues --  -10.22998 -10.22569  -1.17915  -1.16091  -1.11964
 Alpha  occ. eigenvalues --   -1.11631  -1.10659  -1.10296  -1.08839  -1.07429
 Alpha  occ. eigenvalues --   -1.07070  -1.06072  -1.03337  -1.03142  -1.02852
 Alpha  occ. eigenvalues --   -0.99897  -0.99386  -0.98156  -0.91036  -0.89988
 Alpha  occ. eigenvalues --   -0.88475  -0.86639  -0.85571  -0.83767  -0.82540
 Alpha  occ. eigenvalues --   -0.80585  -0.80333  -0.78499  -0.78120  -0.76894
 Alpha  occ. eigenvalues --   -0.76073  -0.74862  -0.72916  -0.72084  -0.71605
 Alpha  occ. eigenvalues --   -0.70588  -0.69728  -0.69263  -0.68758  -0.67907
 Alpha  occ. eigenvalues --   -0.67000  -0.66789  -0.66286  -0.66107  -0.65335
 Alpha  occ. eigenvalues --   -0.64126  -0.63940  -0.63032  -0.61329  -0.60471
 Alpha  occ. eigenvalues --   -0.59950  -0.59912  -0.58894  -0.58631  -0.57181
 Alpha  occ. eigenvalues --   -0.57021  -0.56309  -0.55880  -0.55321  -0.54877
 Alpha  occ. eigenvalues --   -0.54247  -0.53880  -0.53290  -0.52966  -0.52721
 Alpha  occ. eigenvalues --   -0.51989  -0.51740  -0.51086  -0.50961  -0.50385
 Alpha  occ. eigenvalues --   -0.50103  -0.49732  -0.48989  -0.48774  -0.48186
 Alpha  occ. eigenvalues --   -0.47674  -0.47549  -0.47475  -0.47425  -0.46488
 Alpha  occ. eigenvalues --   -0.46171  -0.46037  -0.45615  -0.45401  -0.45021
 Alpha  occ. eigenvalues --   -0.44781  -0.44413  -0.44220  -0.44055  -0.43572
 Alpha  occ. eigenvalues --   -0.43339  -0.42817  -0.42722  -0.42257  -0.42059
 Alpha  occ. eigenvalues --   -0.41609  -0.40623  -0.40004  -0.39917  -0.38440
 Alpha  occ. eigenvalues --   -0.38260  -0.37952  -0.37678  -0.36834  -0.35717
 Alpha  occ. eigenvalues --   -0.35066  -0.33372  -0.32610  -0.32073  -0.31952
 Alpha  occ. eigenvalues --   -0.31590  -0.30435  -0.28822  -0.28081  -0.27442
 Alpha  occ. eigenvalues --   -0.26963  -0.25112
 Alpha virt. eigenvalues --   -0.13325  -0.09315  -0.09142  -0.07707  -0.06167
 Alpha virt. eigenvalues --   -0.05669  -0.05604  -0.05152  -0.04714  -0.03778
 Alpha virt. eigenvalues --   -0.02896  -0.02691  -0.02014  -0.00342  -0.00107

 Mulliken charges:
               1
     1  N   -0.754421
     2  H    0.406304
     3  H    0.425553
     4  H    0.413305
     5  C   -0.109132
     6  H    0.208990
     7  C    0.644838
     8  C   -0.329670
     9  H    0.198674
    10  H    0.213808
    11  O   -0.553935
    12  C   -0.385250
    13  H    0.134504
    14  H    0.159002
    15  C    0.633167
    16  O   -0.605856
    17  O   -0.573503
    18  N   -0.589241
    19  H    0.384443
    20  C   -0.100145
    21  H    0.199703
    22  C    0.616825
    23  C   -0.336421
    24  H    0.184039
    25  H    0.158412
    26  O   -0.538714
    27  C    0.067144
    28  C   -0.006809
    29  H    0.159885
    30  C    0.068792
    31  C    0.310711
    32  C   -0.210943
    33  H    0.126718
    34  N   -0.698157
    35  H    0.329724
    36  C   -0.151280
    37  H    0.133026
    38  C   -0.164518
    39  H    0.127243
    40  C   -0.140514
    41  H    0.129555
    42  N   -0.597911
    43  H    0.354394
    44  C   -0.082546
    45  H    0.175228
    46  C    0.636476
    47  C    0.093490
    48  H    0.232258
    49  O   -0.526501
    50  C   -0.492669
    51  H    0.161850
    52  H    0.180661
    53  H    0.149514
    54  O   -0.653805
    55  H    0.419309
    56  N   -0.608279
    57  H    0.334346
    58  C   -0.036582
    59  H    0.195103
    60  C    0.641559
    61  C   -0.297269
    62  H    0.142615
    63  H    0.150907
    64  O   -0.533010
    65  C   -0.333410
    66  H    0.223257
    67  H    0.163066
    68  C   -0.180973
    69  H    0.215021
    70  H    0.190022
    71  N   -0.588828
    72  H    0.365577
    73  N   -0.749280
    74  H    0.387241
    75  H    0.399671
    76  N   -0.762391
    77  H    0.383478
    78  H    0.386236
    79  C    0.829198
    80  O   -0.589054
    81  H    0.436177
 Sum of Mulliken charges =   1.00000

 Dipole moment (field-independent basis, Debye):
    X=             15.0393    Y=              4.7428    Z=            -19.3934  Tot=             24.9956
 Quadrupole moment (field-independent basis, Debye-Ang):
   XX=             23.2058   YY=           -177.0802   ZZ=           -140.4184
   XY=            132.7912   XZ=           -125.2770   YZ=            -65.5042

 Normal termination of Gaussian 16 at Sat May 14 13:21:50 2022.
