 Gaussian 16, Revision C.01,
 Gaussian 16:  ES64L-G16RevC.01  3-Jul-2019

 ----------------------------------------------------------------------
 # B3LYP/6-31G* empiricaldispersion=gd3 guess=read geom=check nosymm in
 tegral(ultrafinegrid)
 ----------------------------------------------------------------------

 ------------------------------------------------------
 Candidate Structure: Conf:112 Charge calc in gas phase
 ------------------------------------------------------
 Structure from the checkpoint file:  "conf-112.chk"
 Charge =  1 Multiplicity = 1

                          Input orientation:
 ---------------------------------------------------------------------
 Center     Atomic      Atomic             Coordinates (Angstroms)
 Number     Number       Type             X           Y           Z
 ---------------------------------------------------------------------
      1          7           0       -3.685476    3.115186    2.970795
      2          1           0       -3.539490    4.092774    2.703774
      3          1           0       -4.264978    2.643718    2.226010
      4          1           0       -4.149904    3.089127    3.882773
      5          6           0       -2.402388    2.301411    2.951607
      6          1           0       -1.551621    2.968402    3.101350
      7          6           0       -2.430196    1.670270    1.537663
      8          6           0       -2.442471    1.284799    4.109208
      9          1           0       -2.433549    1.870052    5.035632
     10          1           0       -3.374030    0.705277    4.057715
     11          8           0       -3.534677    1.587812    0.971954
     12          6           0       -1.219524    0.355962    4.108065
     13          1           0       -1.327837   -0.435956    3.360510
     14          1           0       -1.152293   -0.130384    5.087133
     15          6           0        0.076919    1.179786    3.845347
     16          8           0        0.854737    0.690028    2.948216
     17          8           0        0.180037    2.266809    4.428607
     18          7           0       -1.261417    1.276880    1.025392
     19          1           0       -0.431798    1.240140    1.644129
     20          6           0       -1.155778    0.510792   -0.231680
     21          1           0       -1.731493   -0.416436   -0.111798
     22          6           0        0.349358    0.187991   -0.363044
     23          6           0       -1.667400    1.250361   -1.467754
     24          1           0       -1.041847    2.139929   -1.613862
     25          1           0       -2.689119    1.592942   -1.280697
     26          8           0        1.116634    0.909612   -1.008311
     27          6           0       -1.633489    0.369063   -2.688726
     28          6           0       -1.250726   -0.950366   -2.780784
     29          1           0       -0.860341   -1.619765   -2.027127
     30          6           0       -1.998651    0.774372   -4.025615
     31          6           0       -1.827942   -0.359415   -4.875263
     32          6           0       -2.418461    1.992986   -4.592654
     33          1           0       -2.554204    2.871058   -3.967198
     34          7           0       -1.363933   -1.387295   -4.085933
     35          1           0       -1.177034   -2.329364   -4.395138
     36          6           0       -2.498238    0.916435   -6.780561
     37          1           0       -2.708325    0.991443   -7.843330
     38          6           0       -2.084179   -0.304866   -6.252606
     39          1           0       -1.966172   -1.181524   -6.883449
     40          6           0       -2.658610    2.054106   -5.960264
     41          1           0       -2.984100    2.988187   -6.407836
     42          7           0        0.733947   -0.881839    0.347736
     43          1           0        0.084572   -1.298386    1.012264
     44          6           0        2.113457   -1.048554    0.773620
     45          1           0        2.420727   -0.113322    1.259143
     46          6           0        3.001707   -1.313373   -0.443577
     47          6           0        2.128467   -2.170231    1.853029
     48          1           0        2.000783   -3.135809    1.348641
     49          8           0        2.618999   -1.925719   -1.432796
     50          6           0        3.429571   -2.156006    2.650440
     51          1           0        4.301038   -2.302986    2.002359
     52          1           0        3.409669   -2.954492    3.396818
     53          1           0        3.535698   -1.199225    3.175858
     54          8           0        0.991510   -2.011106    2.690483
     55          1           0        0.988255   -1.062087    2.994104
     56          7           0        4.254578   -0.771609   -0.338376
     57          1           0        4.432798   -0.151146    0.441137
     58          6           0        5.033863   -0.507534   -1.540579
     59          1           0        5.124980   -1.431662   -2.116348
     60          6           0        6.446556   -0.049694   -1.217593
     61          6           0        4.290305    0.553437   -2.395337
     62          1           0        3.992298    1.367338   -1.721541
     63          1           0        3.374088    0.051512   -2.719911
     64          8           0        7.355000   -0.082354   -2.014754
     65          6           0        5.031924    1.134694   -3.597161
     66          1           0        5.910350    1.701882   -3.271967
     67          1           0        5.411974    0.339812   -4.250583
     68          6           0        4.127001    2.080084   -4.396411
     69          1           0        3.595675    2.771896   -3.735040
     70          1           0        4.720350    2.688000   -5.087156
     71          7           0        3.121952    1.382458   -5.215066
     72          1           0        3.459560    0.967666   -6.073896
     73          7           0        1.253756    1.504439   -3.802365
     74          1           0        0.242886    1.448068   -3.723969
     75          1           0        1.730454    1.334471   -2.919122
     76          7           0        1.013198    0.952599   -6.037469
     77          1           0        1.311361    1.143413   -6.982887
     78          1           0        0.034642    0.714739   -5.906181
     79          6           0        1.801720    1.277694   -4.996372
     80          8           0        6.559688    0.468025    0.027211
     81          1           0        7.486260    0.754472    0.140412
 ---------------------------------------------------------------------

 SCF Done:  E(RB3LYP) =  -2054.04488806     A.U. after    1 cycles

 Alpha  occ. eigenvalues --  -19.28569 -19.24483 -19.22418 -19.21531 -19.19378
 Alpha  occ. eigenvalues --  -19.19192 -19.15296 -19.14259 -14.57796 -14.50453
 Alpha  occ. eigenvalues --  -14.49538 -14.48471 -14.47934 -14.47012 -14.44320
 Alpha  occ. eigenvalues --  -14.43758 -10.46180 -10.41051 -10.40739 -10.38123
 Alpha  occ. eigenvalues --  -10.36816 -10.36348 -10.34450 -10.33626 -10.32990
 Alpha  occ. eigenvalues --  -10.32578 -10.32309 -10.31712 -10.30601 -10.30043
 Alpha  occ. eigenvalues --  -10.29983 -10.29260 -10.28802 -10.28798 -10.28740
 Alpha  occ. eigenvalues --  -10.28653 -10.28642 -10.28404 -10.28389 -10.28055
 Alpha  occ. eigenvalues --  -10.25636 -10.23457  -1.19260  -1.16682  -1.14538
 Alpha  occ. eigenvalues --   -1.13157  -1.11542  -1.11062  -1.10263  -1.08203
 Alpha  occ. eigenvalues --   -1.08002  -1.07258  -1.04157  -1.03792  -1.02220
 Alpha  occ. eigenvalues --   -1.00810  -1.00772  -0.99334  -0.94075  -0.91433
 Alpha  occ. eigenvalues --   -0.90245  -0.89962  -0.86696  -0.85576  -0.83622
 Alpha  occ. eigenvalues --   -0.83344  -0.81956  -0.80670  -0.79493  -0.78326
 Alpha  occ. eigenvalues --   -0.76293  -0.75470  -0.73709  -0.72534  -0.72254
 Alpha  occ. eigenvalues --   -0.71498  -0.71380  -0.69851  -0.69663  -0.68458
 Alpha  occ. eigenvalues --   -0.68121  -0.67939  -0.67823  -0.67130  -0.65453
 Alpha  occ. eigenvalues --   -0.65186  -0.64287  -0.63574  -0.63310  -0.62386
 Alpha  occ. eigenvalues --   -0.61226  -0.60820  -0.59661  -0.59413  -0.58994
 Alpha  occ. eigenvalues --   -0.58328  -0.57172  -0.57071  -0.56941  -0.56208
 Alpha  occ. eigenvalues --   -0.56032  -0.55501  -0.55413  -0.55044  -0.54973
 Alpha  occ. eigenvalues --   -0.53705  -0.53486  -0.53158  -0.52739  -0.52394
 Alpha  occ. eigenvalues --   -0.52321  -0.51191  -0.51136  -0.50947  -0.50442
 Alpha  occ. eigenvalues --   -0.50403  -0.49549  -0.49469  -0.49067  -0.48500
 Alpha  occ. eigenvalues --   -0.48050  -0.47884  -0.47596  -0.47322  -0.47022
 Alpha  occ. eigenvalues --   -0.46905  -0.46340  -0.45961  -0.45683  -0.45110
 Alpha  occ. eigenvalues --   -0.45061  -0.44443  -0.43824  -0.43508  -0.43458
 Alpha  occ. eigenvalues --   -0.43404  -0.42966  -0.42673  -0.41582  -0.40902
 Alpha  occ. eigenvalues --   -0.40343  -0.38914  -0.38873  -0.37995  -0.37512
 Alpha  occ. eigenvalues --   -0.37188  -0.36371  -0.35687  -0.34837  -0.33575
 Alpha  occ. eigenvalues --   -0.33116  -0.32605  -0.32122  -0.30958  -0.30346
 Alpha  occ. eigenvalues --   -0.29412  -0.28287
 Alpha virt. eigenvalues --   -0.11425  -0.10814  -0.10301  -0.08629  -0.08374
 Alpha virt. eigenvalues --   -0.07970  -0.07566  -0.06069  -0.05629  -0.03766
 Alpha virt. eigenvalues --   -0.03344  -0.02079  -0.01214  -0.00997  -0.00890

 Mulliken charges:
               1
     1  N   -0.755185
     2  H    0.412552
     3  H    0.421758
     4  H    0.411475
     5  C   -0.126039
     6  H    0.249691
     7  C    0.641484
     8  C   -0.280038
     9  H    0.184118
    10  H    0.154894
    11  O   -0.557088
    12  C   -0.366132
    13  H    0.145005
    14  H    0.185883
    15  C    0.559106
    16  O   -0.623116
    17  O   -0.535210
    18  N   -0.664777
    19  H    0.414925
    20  C   -0.023494
    21  H    0.176246
    22  C    0.599999
    23  C   -0.344965
    24  H    0.161346
    25  H    0.196277
    26  O   -0.566668
    27  C    0.045491
    28  C    0.013027
    29  H    0.191102
    30  C    0.005393
    31  C    0.305508
    32  C   -0.207255
    33  H    0.145595
    34  N   -0.688651
    35  H    0.348293
    36  C   -0.158128
    37  H    0.154586
    38  C   -0.207627
    39  H    0.151698
    40  C   -0.142250
    41  H    0.150529
    42  N   -0.581442
    43  H    0.356885
    44  C   -0.090935
    45  H    0.187219
    46  C    0.646606
    47  C    0.125921
    48  H    0.153859
    49  O   -0.537462
    50  C   -0.475807
    51  H    0.150883
    52  H    0.175551
    53  H    0.162593
    54  O   -0.675362
    55  H    0.437917
    56  N   -0.609760
    57  H    0.355329
    58  C   -0.040283
    59  H    0.207263
    60  C    0.592579
    61  C   -0.307920
    62  H    0.160173
    63  H    0.179040
    64  O   -0.454909
    65  C   -0.264577
    66  H    0.178535
    67  H    0.164011
    68  C   -0.173951
    69  H    0.187413
    70  H    0.187635
    71  N   -0.594996
    72  H    0.357480
    73  N   -0.793974
    74  H    0.394914
    75  H    0.426838
    76  N   -0.788692
    77  H    0.365142
    78  H    0.407737
    79  C    0.794431
    80  O   -0.573717
    81  H    0.428479
 Sum of Mulliken charges =   1.00000

 Dipole moment (field-independent basis, Debye):
    X=             -3.6007    Y=              9.6603    Z=            -13.4439  Tot=             16.9418
 Quadrupole moment (field-independent basis, Debye-Ang):
   XX=           -169.5068   YY=           -207.4469   ZZ=           -120.6843
   XY=            -19.5472   XZ=            -55.0881   YZ=             -1.0265

 Normal termination of Gaussian 16 at Sat May 14 13:21:48 2022.
