 Gaussian 16, Revision C.01,
 Gaussian 16:  ES64L-G16RevC.01  3-Jul-2019

 ----------------------------------------------------------------------
 # B3LYP/6-31G* empiricaldispersion=gd3 guess=read geom=check nosymm in
 tegral(ultrafinegrid)
 ----------------------------------------------------------------------

 ------------------------------------------------------
 Candidate Structure: Conf:197 Charge calc in gas phase
 ------------------------------------------------------
 Structure from the checkpoint file:  "conf-197.chk"
 Charge =  1 Multiplicity = 1

                          Input orientation:
 ---------------------------------------------------------------------
 Center     Atomic      Atomic             Coordinates (Angstroms)
 Number     Number       Type             X           Y           Z
 ---------------------------------------------------------------------
      1          7           0       -1.630715   -0.719776    4.181522
      2          1           0       -2.172824   -1.566058    3.966901
      3          1           0       -0.816547   -0.682415    3.449554
      4          1           0       -1.268141   -0.749081    5.135149
      5          6           0       -2.530319    0.465042    3.942436
      6          1           0       -3.241818    0.504906    4.773897
      7          6           0       -3.243571    0.082418    2.620945
      8          6           0       -1.727416    1.776962    3.806971
      9          1           0       -1.349893    1.822417    2.783641
     10          1           0       -2.432649    2.606054    3.937529
     11          8           0       -3.301245   -1.106658    2.285595
     12          6           0       -0.510324    1.993686    4.734472
     13          1           0       -0.116678    1.044301    5.123705
     14          1           0       -0.755367    2.619084    5.594039
     15          6           0        0.655443    2.656895    3.928379
     16          8           0        1.128434    3.710410    4.316943
     17          8           0        0.991970    1.986452    2.861680
     18          7           0       -3.677168    1.087171    1.830547
     19          1           0       -3.476536    2.037365    2.118999
     20          6           0       -3.829887    0.886577    0.374757
     21          1           0       -4.178282   -0.139646    0.241010
     22          6           0       -2.407555    1.063841   -0.239217
     23          6           0       -4.854777    1.889348   -0.186803
     24          1           0       -4.365615    2.861225   -0.306520
     25          1           0       -5.628734    2.006389    0.580066
     26          8           0       -2.114312    2.034726   -0.931331
     27          6           0       -5.518172    1.489396   -1.475737
     28          6           0       -6.658780    0.729891   -1.586089
     29          1           0       -7.257254    0.270672   -0.810230
     30          6           0       -5.180053    1.909573   -2.815197
     31          6           0       -6.167969    1.367073   -3.688032
     32          6           0       -4.152466    2.698462   -3.359940
     33          1           0       -3.387333    3.113400   -2.713262
     34          7           0       -7.036171    0.626607   -2.913303
     35          1           0       -7.905009    0.225767   -3.235005
     36          6           0       -5.108276    2.352058   -5.585914
     37          1           0       -5.070574    2.551943   -6.652760
     38          6           0       -6.142380    1.570533   -5.073349
     39          1           0       -6.909499    1.155767   -5.721497
     40          6           0       -4.129877    2.915992   -4.735701
     41          1           0       -3.357346    3.548987   -5.164737
     42          7           0       -1.491416    0.134683    0.144504
     43          1           0       -1.804879   -0.624314    0.737415
     44          6           0       -0.062281    0.445926    0.178971
     45          1           0        0.072309    1.449895    0.598382
     46          6           0        0.517728    0.393561   -1.225533
     47          6           0        0.661144   -0.541286    1.140598
     48          1           0        0.361568   -1.562717    0.865808
     49          8           0        0.306328   -0.578140   -1.973774
     50          6           0        2.182375   -0.408646    1.060015
     51          1           0        2.564382   -0.678225    0.070127
     52          1           0        2.629772   -1.080307    1.797483
     53          1           0        2.485796    0.614254    1.305393
     54          8           0        0.217584   -0.276826    2.459647
     55          1           0        0.560153    0.746405    2.710145
     56          7           0        1.287876    1.428799   -1.590698
     57          1           0        1.521295    2.146873   -0.912138
     58          6           0        1.917627    1.511616   -2.897293
     59          1           0        2.025027    0.494952   -3.283777
     60          6           0        3.305037    2.117506   -2.714843
     61          6           0        1.099816    2.378325   -3.891899
     62          1           0        1.606180    2.341407   -4.863397
     63          1           0        1.144644    3.419845   -3.551083
     64          8           0        3.680156    2.668716   -1.706092
     65          6           0       -0.380368    1.991053   -4.024266
     66          1           0       -0.851387    2.020310   -3.035716
     67          1           0       -0.876882    2.762709   -4.626829
     68          6           0       -0.656945    0.619508   -4.655557
     69          1           0       -0.359931    0.602708   -5.710475
     70          1           0       -0.111765   -0.169784   -4.141257
     71          7           0       -2.095025    0.316323   -4.596169
     72          1           0       -2.708717    1.013360   -5.009806
     73          7           0       -2.105428   -1.359085   -2.951418
     74          1           0       -2.561517   -2.200311   -2.628347
     75          1           0       -1.193623   -1.110929   -2.530898
     76          7           0       -4.032532   -0.853141   -4.119971
     77          1           0       -4.501572   -0.251167   -4.788696
     78          1           0       -4.612982   -1.084104   -3.323317
     79          6           0       -2.718077   -0.614172   -3.871464
     80          8           0        4.035547    1.994980   -3.837890
     81          1           0        4.895142    2.430438   -3.677650
 ---------------------------------------------------------------------

 SCF Done:  E(RB3LYP) =  -2054.06372024     A.U. after    1 cycles

 Alpha  occ. eigenvalues --  -19.28985 -19.25768 -19.23596 -19.23426 -19.23006
 Alpha  occ. eigenvalues --  -19.21529 -19.15688 -19.13609 -14.54048 -14.49693
 Alpha  occ. eigenvalues --  -14.49517 -14.49007 -14.48888 -14.48261 -14.46983
 Alpha  occ. eigenvalues --  -14.46806 -10.45586 -10.42785 -10.41521 -10.40228
 Alpha  occ. eigenvalues --  -10.39801 -10.37832 -10.35515 -10.33951 -10.33540
 Alpha  occ. eigenvalues --  -10.33450 -10.32964 -10.32923 -10.32863 -10.32774
 Alpha  occ. eigenvalues --  -10.30278 -10.30112 -10.29854 -10.29565 -10.29423
 Alpha  occ. eigenvalues --  -10.29345 -10.29295 -10.29065 -10.28947 -10.28868
 Alpha  occ. eigenvalues --  -10.26432 -10.24883  -1.19968  -1.17946  -1.15401
 Alpha  occ. eigenvalues --   -1.14555  -1.13979  -1.11202  -1.10361  -1.08879
 Alpha  occ. eigenvalues --   -1.08660  -1.07292  -1.06038  -1.03825  -1.03463
 Alpha  occ. eigenvalues --   -1.02877  -1.01767  -0.99489  -0.94740  -0.92228
 Alpha  occ. eigenvalues --   -0.90865  -0.90166  -0.87736  -0.86567  -0.85094
 Alpha  occ. eigenvalues --   -0.84343  -0.82919  -0.81691  -0.80390  -0.79439
 Alpha  occ. eigenvalues --   -0.76529  -0.75602  -0.73257  -0.72982  -0.72748
 Alpha  occ. eigenvalues --   -0.71546  -0.71374  -0.70850  -0.70291  -0.70015
 Alpha  occ. eigenvalues --   -0.69517  -0.68872  -0.68751  -0.67770  -0.66919
 Alpha  occ. eigenvalues --   -0.66394  -0.64809  -0.64253  -0.63075  -0.62570
 Alpha  occ. eigenvalues --   -0.62388  -0.61772  -0.60077  -0.59997  -0.59589
 Alpha  occ. eigenvalues --   -0.59016  -0.58739  -0.58711  -0.58364  -0.57762
 Alpha  occ. eigenvalues --   -0.57547  -0.56987  -0.56229  -0.56076  -0.55727
 Alpha  occ. eigenvalues --   -0.54967  -0.54687  -0.53874  -0.53700  -0.53251
 Alpha  occ. eigenvalues --   -0.53152  -0.52819  -0.52588  -0.52080  -0.51996
 Alpha  occ. eigenvalues --   -0.51768  -0.51090  -0.50666  -0.50067  -0.50003
 Alpha  occ. eigenvalues --   -0.49493  -0.49154  -0.48987  -0.48373  -0.48253
 Alpha  occ. eigenvalues --   -0.47859  -0.47419  -0.46858  -0.46337  -0.45777
 Alpha  occ. eigenvalues --   -0.45569  -0.45130  -0.44769  -0.44559  -0.44509
 Alpha  occ. eigenvalues --   -0.43933  -0.43875  -0.43638  -0.41422  -0.41037
 Alpha  occ. eigenvalues --   -0.40590  -0.40442  -0.40045  -0.39441  -0.38996
 Alpha  occ. eigenvalues --   -0.38362  -0.38287  -0.37129  -0.36656  -0.36260
 Alpha  occ. eigenvalues --   -0.35943  -0.35350  -0.33397  -0.31293  -0.30862
 Alpha  occ. eigenvalues --   -0.30398  -0.27398
 Alpha virt. eigenvalues --   -0.13422  -0.12276  -0.10773  -0.09364  -0.08856
 Alpha virt. eigenvalues --   -0.08551  -0.08213  -0.05857  -0.05149  -0.05029
 Alpha virt. eigenvalues --   -0.02837  -0.02162  -0.01976  -0.01574  -0.00798

 Mulliken charges:
               1
     1  N   -0.768415
     2  H    0.402587
     3  H    0.455412
     4  H    0.396279
     5  C   -0.100637
     6  H    0.215049
     7  C    0.628719
     8  C   -0.327344
     9  H    0.183529
    10  H    0.172816
    11  O   -0.540413
    12  C   -0.381990
    13  H    0.123429
    14  H    0.180789
    15  C    0.592332
    16  O   -0.485926
    17  O   -0.648642
    18  N   -0.587444
    19  H    0.360393
    20  C   -0.074651
    21  H    0.188920
    22  C    0.608593
    23  C   -0.366403
    24  H    0.188820
    25  H    0.172340
    26  O   -0.507938
    27  C    0.055964
    28  C   -0.010059
    29  H    0.174478
    30  C    0.067416
    31  C    0.296747
    32  C   -0.200156
    33  H    0.185644
    34  N   -0.680669
    35  H    0.348526
    36  C   -0.158748
    37  H    0.159140
    38  C   -0.208452
    39  H    0.155706
    40  C   -0.203969
    41  H    0.152285
    42  N   -0.622909
    43  H    0.356440
    44  C   -0.072610
    45  H    0.197870
    46  C    0.666372
    47  C    0.129212
    48  H    0.137742
    49  O   -0.594000
    50  C   -0.489394
    51  H    0.152623
    52  H    0.172588
    53  H    0.202543
    54  O   -0.744303
    55  H    0.481266
    56  N   -0.578317
    57  H    0.377910
    58  C   -0.060359
    59  H    0.206023
    60  C    0.590455
    61  C   -0.277096
    62  H    0.176295
    63  H    0.169491
    64  O   -0.443307
    65  C   -0.307808
    66  H    0.200869
    67  H    0.151150
    68  C   -0.173018
    69  H    0.179376
    70  H    0.206168
    71  N   -0.595192
    72  H    0.361152
    73  N   -0.792449
    74  H    0.360872
    75  H    0.448659
    76  N   -0.753208
    77  H    0.369935
    78  H    0.360114
    79  C    0.763886
    80  O   -0.560935
    81  H    0.431837
 Sum of Mulliken charges =   1.00000

 Dipole moment (field-independent basis, Debye):
    X=            -19.2891    Y=             -3.8132    Z=             -9.4333  Tot=             21.8082
 Quadrupole moment (field-independent basis, Debye-Ang):
   XX=           -134.4692   YY=           -253.6649   ZZ=           -145.0947
   XY=             -5.7811   XZ=              1.7609   YZ=            -38.8964

 Normal termination of Gaussian 16 at Sat May 14 13:22:09 2022.
