 Gaussian 16, Revision C.01,
 Gaussian 16:  ES64L-G16RevC.01  3-Jul-2019

 ----------------------------------------------------------------------
 # B3LYP/6-31G* empiricaldispersion=gd3 guess=read geom=check nosymm in
 tegral(ultrafinegrid)
 ----------------------------------------------------------------------

 ------------------------------------------------------
 Candidate Structure: Conf:474 Charge calc in gas phase
 ------------------------------------------------------
 Structure from the checkpoint file:  "conf-474.chk"
 Charge =  1 Multiplicity = 1

                          Input orientation:
 ---------------------------------------------------------------------
 Center     Atomic      Atomic             Coordinates (Angstroms)
 Number     Number       Type             X           Y           Z
 ---------------------------------------------------------------------
      1          7           0       -5.797342    1.787587    2.580486
      2          1           0       -6.158209    1.287505    1.765512
      3          1           0       -5.937766    1.145223    3.361472
      4          1           0       -6.213398    3.627497    2.333406
      5          6           0       -4.360742    2.003774    2.389671
      6          1           0       -4.269690    2.670905    1.522559
      7          6           0       -3.596909    0.731768    1.998808
      8          6           0       -3.748865    2.711107    3.610289
      9          1           0       -3.747886    2.030566    4.470111
     10          1           0       -2.697725    2.945945    3.406427
     11          8           0       -4.047859   -0.390262    2.143627
     12          6           0       -4.506828    4.011275    3.968985
     13          1           0       -3.908725    4.627024    4.644132
     14          1           0       -5.448374    3.771474    4.471003
     15          6           0       -4.774768    4.803599    2.697374
     16          8           0       -5.870385    4.480942    2.002768
     17          8           0       -3.987751    5.637410    2.267889
     18          7           0       -2.370272    1.022105    1.437952
     19          1           0       -2.180612    2.004593    1.276351
     20          6           0       -1.763878    0.174962    0.432792
     21          1           0       -2.059645   -0.854792    0.646366
     22          6           0       -0.255702    0.348547    0.460890
     23          6           0       -2.270776    0.582400   -0.992986
     24          1           0       -1.814213   -0.081221   -1.737034
     25          1           0       -1.880183    1.586384   -1.204958
     26          8           0        0.260003    1.445154    0.736729
     27          6           0       -3.765243    0.574741   -1.067980
     28          6           0       -4.592285    1.671952   -1.048228
     29          1           0       -4.343344    2.724668   -1.056072
     30          6           0       -4.621388   -0.587344   -1.058555
     31          6           0       -5.960772   -0.122777   -1.028434
     32          6           0       -4.379224   -1.970439   -1.065323
     33          1           0       -3.362553   -2.354822   -1.084726
     34          7           0       -5.917322    1.265543   -0.984085
     35          1           0       -6.704553    1.863489   -1.190613
     36          6           0       -6.784991   -2.355759   -1.041044
     37          1           0       -7.610480   -3.061411   -1.040233
     38          6           0       -7.055024   -0.991952   -1.023827
     39          1           0       -8.075477   -0.618951   -1.009264
     40          6           0       -5.460803   -2.840898   -1.058868
     41          1           0       -5.289075   -3.913133   -1.068180
     42          7           0        0.473243   -0.707821    0.055086
     43          1           0       -0.018908   -1.512844   -0.321778
     44          6           0        1.821217   -0.543540   -0.464249
     45          1           0        2.511839   -0.278726    0.342788
     46          6           0        1.807116    0.538915   -1.556400
     47          6           0        2.248605   -1.896544   -1.114471
     48          1           0        3.156806   -1.705565   -1.707103
     49          8           0        0.878432    0.606084   -2.363843
     50          6           0        2.538863   -2.973960   -0.078100
     51          1           0        3.393880   -2.691492    0.544406
     52          1           0        2.769695   -3.912879   -0.588166
     53          1           0        1.673134   -3.140327    0.570960
     54          8           0        1.194325   -2.373759   -1.942197
     55          1           0        0.978946   -1.678023   -2.591595
     56          7           0        2.887942    1.356641   -1.590452
     57          1           0        3.692410    1.161909   -1.004840
     58          6           0        3.105236    2.297058   -2.676944
     59          1           0        2.459588    2.003347   -3.509918
     60          6           0        4.567281    2.193367   -3.103822
     61          6           0        2.787170    3.755973   -2.265485
     62          1           0        3.022229    4.409244   -3.113158
     63          1           0        3.469718    4.032697   -1.448814
     64          8           0        5.420481    1.614138   -2.468257
     65          6           0        1.334764    3.952144   -1.806946
     66          1           0        0.643015    3.825957   -2.647510
     67          1           0        1.073934    3.179527   -1.076065
     68          6           0        1.148363    5.344911   -1.185549
     69          1           0        1.928287    5.554125   -0.441662
     70          1           0        1.244323    6.126925   -1.942827
     71          7           0       -0.172022    5.548649   -0.556119
     72          1           0       -0.795197    6.218730   -0.987385
     73          7           0        0.210940    4.154881    1.288211
     74          1           0       -0.056544    3.180690    1.467456
     75          1           0        1.201056    4.240765    1.103256
     76          7           0       -1.922928    4.899073    0.845011
     77          1           0       -2.596637    5.416977    0.294154
     78          1           0       -2.202910    4.891022    1.826901
     79          6           0       -0.622758    4.876510    0.508470
     80          8           0        4.791021    2.863227   -4.246745
     81          1           0        5.742436    2.784967   -4.456200
 ---------------------------------------------------------------------

 SCF Done:  E(RB3LYP) =  -2054.07157188     A.U. after    1 cycles

 Alpha  occ. eigenvalues --  -19.30209 -19.27230 -19.24737 -19.24018 -19.23428
 Alpha  occ. eigenvalues --  -19.23213 -19.22593 -19.20766 -14.52954 -14.50544
 Alpha  occ. eigenvalues --  -14.49663 -14.47157 -14.46630 -14.45883 -14.44902
 Alpha  occ. eigenvalues --  -14.42949 -10.47638 -10.42762 -10.41560 -10.39693
 Alpha  occ. eigenvalues --  -10.39616 -10.37524 -10.36849 -10.34860 -10.34239
 Alpha  occ. eigenvalues --  -10.33716 -10.33045 -10.32367 -10.31028 -10.30931
 Alpha  occ. eigenvalues --  -10.30382 -10.30209 -10.29620 -10.29211 -10.28751
 Alpha  occ. eigenvalues --  -10.26550 -10.26224 -10.25784 -10.25649 -10.25515
 Alpha  occ. eigenvalues --  -10.25173 -10.24746  -1.21205  -1.18979  -1.16165
 Alpha  occ. eigenvalues --   -1.15374  -1.14046  -1.12572  -1.12404  -1.11531
 Alpha  occ. eigenvalues --   -1.10768  -1.05804  -1.05509  -1.03770  -1.03619
 Alpha  occ. eigenvalues --   -1.03098  -1.02190  -0.99754  -0.92477  -0.90934
 Alpha  occ. eigenvalues --   -0.89737  -0.88943  -0.88230  -0.86679  -0.84568
 Alpha  occ. eigenvalues --   -0.81921  -0.80635  -0.80570  -0.80365  -0.78838
 Alpha  occ. eigenvalues --   -0.77398  -0.75450  -0.73624  -0.73316  -0.72722
 Alpha  occ. eigenvalues --   -0.71969  -0.69996  -0.69606  -0.69413  -0.69234
 Alpha  occ. eigenvalues --   -0.68934  -0.68670  -0.67687  -0.66437  -0.65283
 Alpha  occ. eigenvalues --   -0.64652  -0.63385  -0.62994  -0.62427  -0.61849
 Alpha  occ. eigenvalues --   -0.61381  -0.61171  -0.60883  -0.60676  -0.60243
 Alpha  occ. eigenvalues --   -0.59108  -0.58617  -0.58480  -0.57910  -0.56992
 Alpha  occ. eigenvalues --   -0.56569  -0.55851  -0.55339  -0.55214  -0.54974
 Alpha  occ. eigenvalues --   -0.54517  -0.54401  -0.53874  -0.53613  -0.53089
 Alpha  occ. eigenvalues --   -0.52865  -0.52565  -0.52327  -0.51699  -0.51411
 Alpha  occ. eigenvalues --   -0.50591  -0.50471  -0.50136  -0.49691  -0.49522
 Alpha  occ. eigenvalues --   -0.49234  -0.48944  -0.48650  -0.48375  -0.48149
 Alpha  occ. eigenvalues --   -0.47619  -0.47402  -0.47166  -0.46910  -0.46056
 Alpha  occ. eigenvalues --   -0.45896  -0.45587  -0.45337  -0.45038  -0.44891
 Alpha  occ. eigenvalues --   -0.43609  -0.42747  -0.42345  -0.42215  -0.42066
 Alpha  occ. eigenvalues --   -0.41514  -0.40597  -0.40552  -0.40261  -0.38548
 Alpha  occ. eigenvalues --   -0.38000  -0.37515  -0.37193  -0.37030  -0.36836
 Alpha  occ. eigenvalues --   -0.36569  -0.35618  -0.35466  -0.34354  -0.33276
 Alpha  occ. eigenvalues --   -0.29434  -0.27997
 Alpha virt. eigenvalues --   -0.13750  -0.09915  -0.09683  -0.09321  -0.08573
 Alpha virt. eigenvalues --   -0.08191  -0.07911  -0.06984  -0.05084  -0.04825
 Alpha virt. eigenvalues --   -0.04454  -0.02464  -0.02102  -0.01497  -0.01345

 Mulliken charges:
               1
     1  N   -0.763373
     2  H    0.349204
     3  H    0.335902
     4  H    0.449655
     5  C   -0.111421
     6  H    0.158812
     7  C    0.616628
     8  C   -0.280344
     9  H    0.182727
    10  H    0.143176
    11  O   -0.492410
    12  C   -0.355261
    13  H    0.188623
    14  H    0.185147
    15  C    0.585592
    16  O   -0.570026
    17  O   -0.507983
    18  N   -0.593871
    19  H    0.314222
    20  C   -0.099765
    21  H    0.201773
    22  C    0.684475
    23  C   -0.366649
    24  H    0.180424
    25  H    0.139501
    26  O   -0.592919
    27  C    0.075026
    28  C   -0.025646
    29  H    0.137997
    30  C    0.120933
    31  C    0.286656
    32  C   -0.194591
    33  H    0.117943
    34  N   -0.691462
    35  H    0.339889
    36  C   -0.146259
    37  H    0.143725
    38  C   -0.165291
    39  H    0.136675
    40  C   -0.134612
    41  H    0.139432
    42  N   -0.593454
    43  H    0.360935
    44  C   -0.061939
    45  H    0.170056
    46  C    0.635683
    47  C    0.093659
    48  H    0.151586
    49  O   -0.550468
    50  C   -0.449795
    51  H    0.157514
    52  H    0.188552
    53  H    0.164529
    54  O   -0.624479
    55  H    0.414014
    56  N   -0.606538
    57  H    0.355254
    58  C   -0.056855
    59  H    0.214126
    60  C    0.588040
    61  C   -0.275075
    62  H    0.183331
    63  H    0.147101
    64  O   -0.454021
    65  C   -0.292736
    66  H    0.175376
    67  H    0.190340
    68  C   -0.176818
    69  H    0.179273
    70  H    0.194761
    71  N   -0.581705
    72  H    0.366582
    73  N   -0.737199
    74  H    0.406491
    75  H    0.364411
    76  N   -0.762315
    77  H    0.374599
    78  H    0.400618
    79  C    0.748329
    80  O   -0.556716
    81  H    0.432701
 Sum of Mulliken charges =   1.00000

 Dipole moment (field-independent basis, Debye):
    X=             -1.6092    Y=             16.7242    Z=             -1.3833  Tot=             16.8583
 Quadrupole moment (field-independent basis, Debye-Ang):
   XX=           -164.9753   YY=           -159.3140   ZZ=           -215.1793
   XY=             -1.2097   XZ=            -26.7621   YZ=            -10.8206

 Normal termination of Gaussian 16 at Sat May 14 13:21:54 2022.
