 Gaussian 16, Revision C.01,
 Gaussian 16:  ES64L-G16RevC.01  3-Jul-2019

 ----------------------------------------------------------------------
 # B3LYP/6-31G* empiricaldispersion=gd3 guess=read geom=check nosymm in
 tegral(ultrafinegrid)
 ----------------------------------------------------------------------

 -----------------------------------------------------
 Candidate Structure: Conf:90 Charge calc in gas phase
 -----------------------------------------------------
 Structure from the checkpoint file:  "conf-90.chk"
 Charge =  1 Multiplicity = 1

                          Input orientation:
 ---------------------------------------------------------------------
 Center     Atomic      Atomic             Coordinates (Angstroms)
 Number     Number       Type             X           Y           Z
 ---------------------------------------------------------------------
      1          7           0       -0.713560   -2.028768    3.290441
      2          1           0       -0.435526   -2.758068    2.634803
      3          1           0        0.391168   -0.566900    3.135089
      4          1           0       -0.742344   -2.434397    4.222689
      5          6           0       -2.047888   -1.535158    2.898545
      6          1           0       -2.851960   -2.226772    3.196067
      7          6           0       -1.996657   -1.454198    1.355984
      8          6           0       -2.303168   -0.132129    3.501691
      9          1           0       -1.728735    0.589152    2.914554
     10          1           0       -3.363566    0.129133    3.395760
     11          8           0       -1.154995   -2.099253    0.729185
     12          6           0       -1.912816    0.044871    4.982215
     13          1           0       -0.951013   -0.437788    5.184408
     14          1           0       -2.665094   -0.375841    5.653073
     15          6           0       -1.770401    1.538383    5.292492
     16          8           0       -2.563962    2.159006    5.957215
     17          8           0       -0.704140    2.136279    4.719268
     18          7           0       -2.821258   -0.560329    0.728864
     19          1           0       -3.391326    0.030175    1.322519
     20          6           0       -2.313804    0.109172   -0.481372
     21          1           0       -1.772929   -0.650642   -1.046484
     22          6           0       -1.309463    1.186224   -0.005382
     23          6           0       -3.446291    0.690065   -1.335517
     24          1           0       -4.013274    1.412874   -0.738523
     25          1           0       -4.124911   -0.134999   -1.585245
     26          8           0       -1.569316    2.390519   -0.012429
     27          6           0       -2.927108    1.370520   -2.569375
     28          6           0       -3.063500    2.701101   -2.866570
     29          1           0       -3.587289    3.470459   -2.317098
     30          6           0       -2.096299    0.805581   -3.603496
     31          6           0       -1.756000    1.865712   -4.495102
     32          6           0       -1.559823   -0.471941   -3.843596
     33          1           0       -1.811734   -1.310867   -3.201131
     34          7           0       -2.359068    3.008753   -4.015931
     35          1           0       -2.401640    3.892374   -4.500128
     36          6           0       -0.370526    0.413622   -5.785635
     37          1           0        0.296465    0.236207   -6.624313
     38          6           0       -0.903868    1.683882   -5.587766
     39          1           0       -0.661525    2.507210   -6.254659
     40          6           0       -0.693840   -0.655453   -4.920521
     41          1           0       -0.278688   -1.640489   -5.112996
     42          7           0       -0.156882    0.683063    0.513751
     43          1           0        0.042382   -0.303609    0.391875
     44          6           0        0.869702    1.524345    1.129253
     45          1           0        0.355581    2.359288    1.616478
     46          6           0        1.742200    2.035538   -0.029519
     47          6           0        1.658662    0.745865    2.202222
     48          1           0        2.114099   -0.136618    1.732031
     49          8           0        2.804431    1.514454   -0.357201
     50          6           0        2.748698    1.611047    2.826001
     51          1           0        3.485426    1.915153    2.078990
     52          1           0        3.251938    1.042291    3.612210
     53          1           0        2.305724    2.502870    3.284900
     54          8           0        0.778182    0.344312    3.248757
     55          1           0       -0.133385    1.483733    4.242455
     56          7           0        1.171809    3.063636   -0.732146
     57          1           0        0.182223    3.230636   -0.548307
     58          6           0        1.684367    3.388243   -2.053526
     59          1           0        0.951065    4.065707   -2.512546
     60          6           0        1.688274    2.164587   -2.985168
     61          6           0        3.037967    4.123070   -1.953467
     62          1           0        3.744220    3.444970   -1.465540
     63          1           0        2.874530    4.950994   -1.258278
     64          8           0        2.383570    2.050017   -3.986615
     65          6           0        3.616475    4.655410   -3.284858
     66          1           0        2.873916    4.587989   -4.087014
     67          1           0        3.876783    5.716008   -3.190738
     68          6           0        4.872598    3.871361   -3.689498
     69          1           0        5.692526    4.071924   -2.994364
     70          1           0        4.683193    2.796780   -3.657284
     71          7           0        5.367527    4.211127   -5.034771
     72          1           0        5.935447    5.044099   -5.122788
     73          7           0        3.933295    2.777421   -6.177382
     74          1           0        3.782487    2.189414   -6.984688
     75          1           0        3.366270    2.577329   -5.343995
     76          7           0        5.535269    3.995428   -7.332984
     77          1           0        6.454817    4.412608   -7.342249
     78          1           0        5.160605    3.692611   -8.220125
     79          6           0        4.937396    3.652864   -6.171598
     80          8           0        0.765083    1.275038   -2.653737
     81          1           0        0.685108    0.596079   -3.359432
 ---------------------------------------------------------------------

 SCF Done:  E(RB3LYP) =  -2054.07073245     A.U. after    1 cycles

 Alpha  occ. eigenvalues --  -19.29738 -19.25543 -19.21568 -19.21455 -19.21406
 Alpha  occ. eigenvalues --  -19.20928 -19.20687 -19.16487 -14.52667 -14.52591
 Alpha  occ. eigenvalues --  -14.51334 -14.46363 -14.45119 -14.44780 -14.44283
 Alpha  occ. eigenvalues --  -14.41666 -10.48757 -10.43481 -10.38176 -10.37619
 Alpha  occ. eigenvalues --  -10.37358 -10.35462 -10.35293 -10.34495 -10.32046
 Alpha  occ. eigenvalues --  -10.31834 -10.31727 -10.31173 -10.30540 -10.30539
 Alpha  occ. eigenvalues --  -10.29839 -10.29157 -10.27881 -10.27535 -10.27476
 Alpha  occ. eigenvalues --  -10.27354 -10.27252 -10.26976 -10.26944 -10.26228
 Alpha  occ. eigenvalues --  -10.25819 -10.23922  -1.21565  -1.17131  -1.13618
 Alpha  occ. eigenvalues --   -1.12870  -1.12482  -1.12429  -1.12015  -1.08779
 Alpha  occ. eigenvalues --   -1.06469  -1.06231  -1.05024  -1.04461  -1.02013
 Alpha  occ. eigenvalues --   -1.01665  -1.00587  -0.98197  -0.92618  -0.91408
 Alpha  occ. eigenvalues --   -0.89179  -0.87148  -0.86174  -0.85144  -0.83812
 Alpha  occ. eigenvalues --   -0.82138  -0.81301  -0.80589  -0.78540  -0.78277
 Alpha  occ. eigenvalues --   -0.77995  -0.74733  -0.74035  -0.73317  -0.71391
 Alpha  occ. eigenvalues --   -0.70746  -0.70641  -0.69945  -0.68354  -0.67864
 Alpha  occ. eigenvalues --   -0.66782  -0.66673  -0.66384  -0.65883  -0.65511
 Alpha  occ. eigenvalues --   -0.64320  -0.63984  -0.63107  -0.62364  -0.62037
 Alpha  occ. eigenvalues --   -0.61365  -0.60402  -0.59827  -0.59514  -0.58847
 Alpha  occ. eigenvalues --   -0.58778  -0.57958  -0.57099  -0.56951  -0.56689
 Alpha  occ. eigenvalues --   -0.56073  -0.55731  -0.55384  -0.55133  -0.53955
 Alpha  occ. eigenvalues --   -0.53288  -0.52676  -0.52171  -0.52046  -0.51791
 Alpha  occ. eigenvalues --   -0.51377  -0.50962  -0.50592  -0.50303  -0.50160
 Alpha  occ. eigenvalues --   -0.50034  -0.49270  -0.48864  -0.48342  -0.48069
 Alpha  occ. eigenvalues --   -0.47773  -0.47166  -0.46974  -0.46767  -0.46502
 Alpha  occ. eigenvalues --   -0.46205  -0.45750  -0.45611  -0.45488  -0.45285
 Alpha  occ. eigenvalues --   -0.44708  -0.44295  -0.43638  -0.43465  -0.43336
 Alpha  occ. eigenvalues --   -0.43281  -0.42718  -0.42248  -0.41989  -0.41535
 Alpha  occ. eigenvalues --   -0.41131  -0.40916  -0.39566  -0.38829  -0.37282
 Alpha  occ. eigenvalues --   -0.36318  -0.35933  -0.35465  -0.35253  -0.34672
 Alpha  occ. eigenvalues --   -0.34317  -0.34157  -0.32896  -0.32472  -0.30978
 Alpha  occ. eigenvalues --   -0.30096  -0.28497
 Alpha virt. eigenvalues --   -0.12677  -0.10434  -0.10027  -0.09297  -0.08885
 Alpha virt. eigenvalues --   -0.07287  -0.06499  -0.05072  -0.04886  -0.04174
 Alpha virt. eigenvalues --   -0.02534  -0.01516  -0.01352  -0.00600  -0.00470

 Mulliken charges:
               1
     1  N   -0.774827
     2  H    0.350134
     3  H    0.459946
     4  H    0.332185
     5  C   -0.058164
     6  H    0.175618
     7  C    0.614106
     8  C   -0.321035
     9  H    0.171704
    10  H    0.160469
    11  O   -0.533347
    12  C   -0.378800
    13  H    0.163570
    14  H    0.178590
    15  C    0.578872
    16  O   -0.441562
    17  O   -0.613698
    18  N   -0.584160
    19  H    0.344361
    20  C   -0.088514
    21  H    0.194103
    22  C    0.647128
    23  C   -0.349041
    24  H    0.162160
    25  H    0.172638
    26  O   -0.545041
    27  C    0.073782
    28  C    0.020086
    29  H    0.173653
    30  C    0.091388
    31  C    0.312272
    32  C   -0.235302
    33  H    0.152721
    34  N   -0.693302
    35  H    0.335526
    36  C   -0.154256
    37  H    0.124381
    38  C   -0.168022
    39  H    0.124510
    40  C   -0.187598
    41  H    0.144921
    42  N   -0.623332
    43  H    0.363761
    44  C   -0.074841
    45  H    0.192782
    46  C    0.642766
    47  C    0.120056
    48  H    0.145750
    49  O   -0.538823
    50  C   -0.468499
    51  H    0.169259
    52  H    0.170385
    53  H    0.162749
    54  O   -0.695347
    55  H    0.458376
    56  N   -0.611360
    57  H    0.381230
    58  C   -0.065632
    59  H    0.184297
    60  C    0.644173
    61  C   -0.281256
    62  H    0.197788
    63  H    0.175557
    64  O   -0.531331
    65  C   -0.267152
    66  H    0.148044
    67  H    0.157937
    68  C   -0.188819
    69  H    0.194218
    70  H    0.210205
    71  N   -0.595652
    72  H    0.362299
    73  N   -0.794897
    74  H    0.369451
    75  H    0.458084
    76  N   -0.768214
    77  H    0.381515
    78  H    0.380354
    79  C    0.815774
    80  O   -0.550273
    81  H    0.436460
 Sum of Mulliken charges =   1.00000

 Dipole moment (field-independent basis, Debye):
    X=             15.3569    Y=             12.2596    Z=            -26.5207  Tot=             33.0073
 Quadrupole moment (field-independent basis, Debye-Ang):
   XX=           -135.7956   YY=           -168.9546   ZZ=            -92.5975
   XY=             81.4074   XZ=           -104.4705   YZ=           -129.6129

 Normal termination of Gaussian 16 at Sat May 14 13:21:49 2022.
