 Gaussian 16, Revision C.01,
 Gaussian 16:  ES64L-G16RevC.01  3-Jul-2019

 ----------------------------------------------------------------------
 # B3LYP/6-31G* empiricaldispersion=gd3 guess=read geom=check nosymm in
 tegral(ultrafinegrid)
 ----------------------------------------------------------------------

 ------------------------------------------------------
 Candidate Structure: Conf:472 Charge calc in gas phase
 ------------------------------------------------------
 Structure from the checkpoint file:  "conf-472.chk"
 Charge =  1 Multiplicity = 1

                          Input orientation:
 ---------------------------------------------------------------------
 Center     Atomic      Atomic             Coordinates (Angstroms)
 Number     Number       Type             X           Y           Z
 ---------------------------------------------------------------------
      1          7           0       -2.212422    4.801137    2.188049
      2          1           0       -2.740689    4.908040    1.307423
      3          1           0       -2.776240    4.172454    2.809836
      4          1           0       -2.043113    5.714830    2.615302
      5          6           0       -0.950415    4.005619    1.931453
      6          1           0       -0.598631    4.234347    0.927004
      7          6           0       -1.451293    2.550031    2.022639
      8          6           0        0.119241    4.338583    2.982755
      9          1           0        0.324164    5.417561    2.940535
     10          1           0       -0.277650    4.113703    3.981262
     11          8           0       -2.485159    2.327983    2.677993
     12          6           0        1.443785    3.575126    2.767658
     13          1           0        1.281294    2.498177    2.875613
     14          1           0        2.155604    3.896043    3.530752
     15          6           0        2.025705    3.866625    1.377757
     16          8           0        1.380348    3.370806    0.384266
     17          8           0        3.030182    4.604201    1.309912
     18          7           0       -0.728663    1.652489    1.366495
     19          1           0        0.122223    1.971947    0.881573
     20          6           0       -1.145574    0.262056    1.231385
     21          1           0       -1.357976   -0.144108    2.228733
     22          6           0        0.073198   -0.493196    0.670134
     23          6           0       -2.440845    0.159985    0.371085
     24          1           0       -3.260647    0.543418    0.984049
     25          1           0       -2.679019   -0.892234    0.181090
     26          8           0        1.191546    0.022009    0.678195
     27          6           0       -2.345311    0.947721   -0.903955
     28          6           0       -1.707216    0.587461   -2.066046
     29          1           0       -1.221593   -0.340757   -2.336986
     30          6           0       -2.809540    2.300306   -1.093432
     31          6           0       -2.391468    2.715007   -2.388932
     32          6           0       -3.577260    3.186466   -0.315254
     33          1           0       -3.968568    2.864694    0.645422
     34          7           0       -1.717049    1.652242   -2.952527
     35          1           0       -1.416067    1.595946   -3.914153
     36          6           0       -3.392428    4.862507   -2.085488
     37          1           0       -3.636273    5.854339   -2.453938
     38          6           0       -2.665926    3.993312   -2.890742
     39          1           0       -2.339625    4.290904   -3.883552
     40          6           0       -3.859545    4.457812   -0.813924
     41          1           0       -4.511692    5.127093   -0.254568
     42          7           0       -0.144037   -1.749227    0.215705
     43          1           0       -1.075162   -2.104347    0.029295
     44          6           0        0.919880   -2.499339   -0.448093
     45          1           0        1.796071   -2.534399    0.206696
     46          6           0        1.242387   -1.776870   -1.766276
     47          6           0        0.390397   -3.928686   -0.734724
     48          1           0        1.102999   -4.413865   -1.418813
     49          8           0        0.442418   -1.809861   -2.714624
     50          6           0        0.252181   -4.762488    0.531256
     51          1           0        1.227538   -4.918263    1.003316
     52          1           0       -0.177795   -5.735571    0.279323
     53          1           0       -0.409761   -4.270857    1.251316
     54          8           0       -0.897846   -3.836492   -1.336900
     55          1           0       -0.771344   -3.313971   -2.153930
     56          7           0        2.401450   -1.091327   -1.808250
     57          1           0        2.900104   -0.930889   -0.939808
     58          6           0        2.645842   -0.118317   -2.862469
     59          1           0        2.249848   -0.517324   -3.797979
     60          6           0        4.153444    0.069453   -2.962221
     61          6           0        1.966501    1.228868   -2.511393
     62          1           0        2.400678    1.599123   -1.575899
     63          1           0        0.915130    1.016335   -2.296703
     64          8           0        4.904152    0.019696   -2.014519
     65          6           0        2.058348    2.284486   -3.617618
     66          1           0        3.097144    2.423434   -3.937045
     67          1           0        1.508146    1.942571   -4.505096
     68          6           0        1.476245    3.633155   -3.164735
     69          1           0        1.413837    4.337559   -4.005393
     70          1           0        0.451857    3.500079   -2.802203
     71          7           0        2.222735    4.237676   -2.064653
     72          1           0        1.933219    3.938654   -1.100680
     73          7           0        3.965195    5.036241   -3.417871
     74          1           0        4.675582    5.747809   -3.515956
     75          1           0        3.419699    4.861218   -4.247797
     76          7           0        4.036277    5.287367   -1.107509
     77          1           0        3.661953    5.036078   -0.154429
     78          1           0        4.994313    5.596894   -1.180890
     79          6           0        3.400996    4.848712   -2.192253
     80          8           0        4.548473    0.353643   -4.221574
     81          1           0        5.516763    0.483436   -4.193706
 ---------------------------------------------------------------------

 SCF Done:  E(RB3LYP) =  -2054.10541723     A.U. after    1 cycles

 Alpha  occ. eigenvalues --  -19.29118 -19.23693 -19.23233 -19.21652 -19.21466
 Alpha  occ. eigenvalues --  -19.21303 -19.19465 -19.18732 -14.57303 -14.48616
 Alpha  occ. eigenvalues --  -14.47540 -14.46186 -14.46135 -14.45424 -14.45411
 Alpha  occ. eigenvalues --  -14.45390 -10.43572 -10.41235 -10.40291 -10.38493
 Alpha  occ. eigenvalues --  -10.38171 -10.36870 -10.36763 -10.33530 -10.33455
 Alpha  occ. eigenvalues --  -10.32997 -10.32162 -10.32092 -10.31727 -10.31439
 Alpha  occ. eigenvalues --  -10.30706 -10.29050 -10.29002 -10.28856 -10.28756
 Alpha  occ. eigenvalues --  -10.28567 -10.28370 -10.28187 -10.28167 -10.27599
 Alpha  occ. eigenvalues --  -10.27575 -10.24731  -1.19882  -1.16105  -1.13871
 Alpha  occ. eigenvalues --   -1.12781  -1.12464  -1.11719  -1.11184  -1.10982
 Alpha  occ. eigenvalues --   -1.09298  -1.07330  -1.03753  -1.03055  -1.02210
 Alpha  occ. eigenvalues --   -1.01625  -1.01551  -0.99992  -0.93736  -0.91689
 Alpha  occ. eigenvalues --   -0.90053  -0.89749  -0.86960  -0.85371  -0.84189
 Alpha  occ. eigenvalues --   -0.83481  -0.82372  -0.81138  -0.79415  -0.78083
 Alpha  occ. eigenvalues --   -0.76707  -0.74862  -0.74228  -0.72124  -0.71953
 Alpha  occ. eigenvalues --   -0.71033  -0.70452  -0.69536  -0.69235  -0.68894
 Alpha  occ. eigenvalues --   -0.68597  -0.68062  -0.67506  -0.67198  -0.65832
 Alpha  occ. eigenvalues --   -0.65101  -0.64115  -0.63323  -0.62102  -0.61757
 Alpha  occ. eigenvalues --   -0.60836  -0.60379  -0.59963  -0.58814  -0.58566
 Alpha  occ. eigenvalues --   -0.58199  -0.57898  -0.57694  -0.57412  -0.56998
 Alpha  occ. eigenvalues --   -0.56898  -0.56421  -0.55579  -0.55394  -0.54761
 Alpha  occ. eigenvalues --   -0.54420  -0.54004  -0.53490  -0.52904  -0.52680
 Alpha  occ. eigenvalues --   -0.52369  -0.51891  -0.51661  -0.51131  -0.51072
 Alpha  occ. eigenvalues --   -0.50831  -0.50534  -0.50451  -0.49973  -0.49677
 Alpha  occ. eigenvalues --   -0.49167  -0.48832  -0.48659  -0.48085  -0.47846
 Alpha  occ. eigenvalues --   -0.47616  -0.47042  -0.46465  -0.45648  -0.45529
 Alpha  occ. eigenvalues --   -0.45335  -0.44977  -0.44659  -0.44596  -0.44415
 Alpha  occ. eigenvalues --   -0.43925  -0.43748  -0.43165  -0.42950  -0.41198
 Alpha  occ. eigenvalues --   -0.40879  -0.39154  -0.38157  -0.37299  -0.37224
 Alpha  occ. eigenvalues --   -0.36895  -0.36466  -0.36247  -0.35705  -0.35226
 Alpha  occ. eigenvalues --   -0.34690  -0.34163  -0.34086  -0.33058  -0.32892
 Alpha  occ. eigenvalues --   -0.32249  -0.29921
 Alpha virt. eigenvalues --   -0.11359  -0.09762  -0.08783  -0.08575  -0.08025
 Alpha virt. eigenvalues --   -0.07863  -0.07110  -0.06950  -0.05140  -0.04190
 Alpha virt. eigenvalues --   -0.03715  -0.02813  -0.02071  -0.01426  -0.01193

 Mulliken charges:
               1
     1  N   -0.757734
     2  H    0.401856
     3  H    0.415857
     4  H    0.401277
     5  C   -0.115294
     6  H    0.233408
     7  C    0.646497
     8  C   -0.303053
     9  H    0.168034
    10  H    0.174438
    11  O   -0.569312
    12  C   -0.350745
    13  H    0.182667
    14  H    0.184258
    15  C    0.614925
    16  O   -0.619100
    17  O   -0.559126
    18  N   -0.622891
    19  H    0.422176
    20  C   -0.031158
    21  H    0.203238
    22  C    0.623454
    23  C   -0.411538
    24  H    0.194165
    25  H    0.170987
    26  O   -0.535795
    27  C    0.068766
    28  C   -0.017143
    29  H    0.213264
    30  C    0.087610
    31  C    0.313307
    32  C   -0.255833
    33  H    0.160740
    34  N   -0.697015
    35  H    0.341717
    36  C   -0.149902
    37  H    0.147767
    38  C   -0.164330
    39  H    0.141488
    40  C   -0.191204
    41  H    0.138300
    42  N   -0.618535
    43  H    0.358442
    44  C   -0.064736
    45  H    0.173197
    46  C    0.643895
    47  C    0.101835
    48  H    0.148696
    49  O   -0.567959
    50  C   -0.450080
    51  H    0.155229
    52  H    0.182249
    53  H    0.154660
    54  O   -0.642784
    55  H    0.420039
    56  N   -0.577463
    57  H    0.370396
    58  C   -0.047432
    59  H    0.199137
    60  C    0.585594
    61  C   -0.295832
    62  H    0.187466
    63  H    0.175668
    64  O   -0.453253
    65  C   -0.278267
    66  H    0.160625
    67  H    0.145524
    68  C   -0.194555
    69  H    0.150806
    70  H    0.185970
    71  N   -0.622621
    72  H    0.428066
    73  N   -0.760653
    74  H    0.363889
    75  H    0.366349
    76  N   -0.796941
    77  H    0.434750
    78  H    0.350082
    79  C    0.769855
    80  O   -0.562342
    81  H    0.422008
 Sum of Mulliken charges =   1.00000

 Dipole moment (field-independent basis, Debye):
    X=              2.2846    Y=             19.3144    Z=             -5.6670  Tot=             20.2578
 Quadrupole moment (field-independent basis, Debye-Ang):
   XX=           -196.3128   YY=           -120.9099   ZZ=           -183.5948
   XY=              0.9202   XZ=            -46.6080   YZ=            -20.5797

 Normal termination of Gaussian 16 at Sat May 14 13:22:01 2022.
