 Gaussian 16, Revision C.01,
 Gaussian 16:  ES64L-G16RevC.01  3-Jul-2019

 ----------------------------------------------------------------------
 # B3LYP/6-31G* empiricaldispersion=gd3 guess=read geom=check nosymm in
 tegral(ultrafinegrid)
 ----------------------------------------------------------------------

 -----------------------------------------------------
 Candidate Structure: Conf:34 Charge calc in gas phase
 -----------------------------------------------------
 Structure from the checkpoint file:  "conf-34.chk"
 Charge =  1 Multiplicity = 1

                          Input orientation:
 ---------------------------------------------------------------------
 Center     Atomic      Atomic             Coordinates (Angstroms)
 Number     Number       Type             X           Y           Z
 ---------------------------------------------------------------------
      1          7           0       -5.510858    3.011285    1.997310
      2          1           0       -5.755198    2.096428    1.542091
      3          1           0       -5.881457    3.069189    2.949839
      4          1           0       -5.921152    3.768710    1.442952
      5          6           0       -3.992395    3.026194    1.958983
      6          1           0       -3.668491    4.041299    1.703568
      7          6           0       -3.654013    1.993548    0.875490
      8          6           0       -3.427767    2.667738    3.350088
      9          1           0       -4.070585    1.914131    3.826969
     10          1           0       -2.453318    2.185668    3.216062
     11          8           0       -4.525502    1.180837    0.528941
     12          6           0       -3.228594    3.920699    4.232446
     13          1           0       -2.868287    3.614791    5.217152
     14          1           0       -4.167285    4.476786    4.351984
     15          6           0       -2.174847    4.780724    3.517440
     16          8           0       -2.605811    5.488955    2.547861
     17          8           0       -0.979933    4.593495    3.839632
     18          7           0       -2.404108    2.036098    0.411163
     19          1           0       -1.769022    2.785476    0.682242
     20          6           0       -1.892352    1.059366   -0.540940
     21          1           0       -2.370085    0.100906   -0.326138
     22          6           0       -0.378736    0.949577   -0.329086
     23          6           0       -2.229940    1.466089   -2.007553
     24          1           0       -1.683507    2.386327   -2.248053
     25          1           0       -3.300230    1.706246   -2.021991
     26          8           0        0.267303    1.866532    0.190616
     27          6           0       -1.918007    0.382523   -2.989216
     28          6           0       -0.937594    0.383956   -3.951930
     29          1           0       -0.215633    1.149312   -4.196798
     30          6           0       -2.546477   -0.915788   -3.036522
     31          6           0       -1.889657   -1.656956   -4.055755
     32          6           0       -3.594489   -1.519027   -2.315811
     33          1           0       -4.129027   -0.964896   -1.547374
     34          7           0       -0.922730   -0.833189   -4.599432
     35          1           0       -0.307544   -1.082754   -5.358217
     36          6           0       -3.273745   -3.547608   -3.631051
     37          1           0       -3.571407   -4.570223   -3.843193
     38          6           0       -2.242574   -2.973535   -4.365026
     39          1           0       -1.727955   -3.528020   -5.144416
     40          6           0       -3.944714   -2.828251   -2.619220
     41          1           0       -4.751803   -3.309065   -2.074056
     42          7           0        0.167045   -0.209057   -0.743869
     43          1           0       -0.368602   -0.809809   -1.365466
     44          6           0        1.597166   -0.444544   -0.723823
     45          1           0        1.956837   -0.418132    0.310924
     46          6           0        2.355799    0.581179   -1.576546
     47          6           0        1.858946   -1.849967   -1.344895
     48          1           0        2.945330   -1.935595   -1.508665
     49          8           0        1.965606    0.872893   -2.711630
     50          6           0        1.394555   -2.985532   -0.442969
     51          1           0        1.954615   -2.989128    0.497624
     52          1           0        1.556108   -3.939142   -0.952615
     53          1           0        0.326972   -2.894802   -0.220019
     54          8           0        1.149324   -1.964053   -2.570130
     55          1           0        1.328707   -1.164890   -3.099645
     56          7           0        3.503774    1.053468   -1.033247
     57          1           0        3.829834    0.671832   -0.152158
     58          6           0        4.504106    1.754300   -1.827969
     59          1           0        4.313109    1.511406   -2.877986
     60          6           0        5.872611    1.215504   -1.428950
     61          6           0        4.476901    3.298273   -1.674577
     62          1           0        5.117345    3.710565   -2.459071
     63          1           0        4.940673    3.576751   -0.718746
     64          8           0        6.073106    0.513503   -0.461437
     65          6           0        3.058164    3.895550   -1.756976
     66          1           0        3.105812    4.889784   -2.216313
     67          1           0        2.428732    3.268241   -2.400096
     68          6           0        2.420859    4.032178   -0.374151
     69          1           0        2.356968    3.053198    0.112828
     70          1           0        3.032502    4.703532    0.240575
     71          7           0        1.079160    4.614332   -0.487251
     72          1           0        0.572922    4.324078   -1.315015
     73          7           0        0.775626    4.743212    1.826308
     74          1           0        0.126151    4.843165    2.653232
     75          1           0        1.660252    4.284054    1.985646
     76          7           0       -1.020499    5.082978    0.407244
     77          1           0       -1.266208    5.511908   -0.476379
     78          1           0       -1.585483    5.402182    1.234303
     79          6           0        0.292850    4.807793    0.596128
     80          8           0        6.830690    1.654645   -2.261054
     81          1           0        7.685459    1.309667   -1.937874
 ---------------------------------------------------------------------

 SCF Done:  E(RB3LYP) =  -2054.08224631     A.U. after    1 cycles

 Alpha  occ. eigenvalues --  -19.29499 -19.25526 -19.24074 -19.23071 -19.22767
 Alpha  occ. eigenvalues --  -19.22478 -19.18325 -19.18112 -14.58985 -14.48433
 Alpha  occ. eigenvalues --  -14.47541 -14.46704 -14.46043 -14.45624 -14.45469
 Alpha  occ. eigenvalues --  -14.45442 -10.42884 -10.42137 -10.42065 -10.39446
 Alpha  occ. eigenvalues --  -10.39356 -10.37655 -10.36175 -10.34058 -10.33960
 Alpha  occ. eigenvalues --  -10.33650 -10.33315 -10.32426 -10.31986 -10.29594
 Alpha  occ. eigenvalues --  -10.29349 -10.29329 -10.28988 -10.28872 -10.28071
 Alpha  occ. eigenvalues --  -10.26079 -10.25831 -10.25686 -10.25649 -10.25522
 Alpha  occ. eigenvalues --  -10.25101 -10.24846  -1.20544  -1.17771  -1.14912
 Alpha  occ. eigenvalues --   -1.13872  -1.12751  -1.11964  -1.11738  -1.11160
 Alpha  occ. eigenvalues --   -1.10790  -1.05389  -1.05153  -1.03266  -1.02796
 Alpha  occ. eigenvalues --   -1.02734  -1.01295  -0.98943  -0.92538  -0.90946
 Alpha  occ. eigenvalues --   -0.90569  -0.89640  -0.87199  -0.85339  -0.84960
 Alpha  occ. eigenvalues --   -0.82731  -0.80595  -0.80396  -0.79205  -0.78119
 Alpha  occ. eigenvalues --   -0.76144  -0.74854  -0.73125  -0.72817  -0.72476
 Alpha  occ. eigenvalues --   -0.71276  -0.70901  -0.70651  -0.69352  -0.69286
 Alpha  occ. eigenvalues --   -0.68882  -0.68433  -0.67771  -0.66492  -0.65484
 Alpha  occ. eigenvalues --   -0.64926  -0.63907  -0.62741  -0.62045  -0.61271
 Alpha  occ. eigenvalues --   -0.61107  -0.60775  -0.60202  -0.59637  -0.58983
 Alpha  occ. eigenvalues --   -0.58589  -0.58330  -0.57629  -0.57315  -0.56676
 Alpha  occ. eigenvalues --   -0.56422  -0.56309  -0.55564  -0.55142  -0.54796
 Alpha  occ. eigenvalues --   -0.54675  -0.54275  -0.53562  -0.53388  -0.52977
 Alpha  occ. eigenvalues --   -0.52425  -0.51840  -0.51297  -0.50740  -0.50518
 Alpha  occ. eigenvalues --   -0.50453  -0.50041  -0.49946  -0.49816  -0.49311
 Alpha  occ. eigenvalues --   -0.49011  -0.48569  -0.48515  -0.48101  -0.47889
 Alpha  occ. eigenvalues --   -0.47225  -0.47056  -0.46661  -0.46093  -0.45952
 Alpha  occ. eigenvalues --   -0.45716  -0.45244  -0.45040  -0.44845  -0.44506
 Alpha  occ. eigenvalues --   -0.44241  -0.42263  -0.42151  -0.41613  -0.40519
 Alpha  occ. eigenvalues --   -0.40240  -0.39937  -0.38845  -0.38042  -0.37886
 Alpha  occ. eigenvalues --   -0.37455  -0.37020  -0.36481  -0.36116  -0.35875
 Alpha  occ. eigenvalues --   -0.34978  -0.34350  -0.33904  -0.32902  -0.32357
 Alpha  occ. eigenvalues --   -0.29313  -0.27630
 Alpha virt. eigenvalues --   -0.10999  -0.09757  -0.09111  -0.08787  -0.08185
 Alpha virt. eigenvalues --   -0.08097  -0.07980  -0.05644  -0.04755  -0.04407
 Alpha virt. eigenvalues --   -0.03592  -0.02405  -0.01711  -0.01261  -0.00945

 Mulliken charges:
               1
     1  N   -0.751651
     2  H    0.423551
     3  H    0.414081
     4  H    0.417435
     5  C   -0.134747
     6  H    0.251898
     7  C    0.641833
     8  C   -0.327393
     9  H    0.162675
    10  H    0.204857
    11  O   -0.545747
    12  C   -0.320580
    13  H    0.185377
    14  H    0.137674
    15  C    0.585559
    16  O   -0.596227
    17  O   -0.561779
    18  N   -0.615826
    19  H    0.391106
    20  C   -0.079179
    21  H    0.204149
    22  C    0.638006
    23  C   -0.340987
    24  H    0.136227
    25  H    0.175608
    26  O   -0.566814
    27  C    0.029665
    28  C    0.007208
    29  H    0.170158
    30  C    0.058900
    31  C    0.328508
    32  C   -0.229619
    33  H    0.141739
    34  N   -0.689164
    35  H    0.338774
    36  C   -0.150505
    37  H    0.141596
    38  C   -0.151687
    39  H    0.140229
    40  C   -0.139650
    41  H    0.134127
    42  N   -0.604351
    43  H    0.382543
    44  C   -0.068309
    45  H    0.165528
    46  C    0.642669
    47  C    0.101506
    48  H    0.145200
    49  O   -0.557889
    50  C   -0.449051
    51  H    0.154264
    52  H    0.185158
    53  H    0.162627
    54  O   -0.632227
    55  H    0.416631
    56  N   -0.602363
    57  H    0.356917
    58  C   -0.049678
    59  H    0.209074
    60  C    0.585252
    61  C   -0.281417
    62  H    0.187693
    63  H    0.154297
    64  O   -0.459012
    65  C   -0.318195
    66  H    0.169220
    67  H    0.178977
    68  C   -0.148537
    69  H    0.193101
    70  H    0.169179
    71  N   -0.596602
    72  H    0.341534
    73  N   -0.778266
    74  H    0.429487
    75  H    0.361540
    76  N   -0.837698
    77  H    0.343279
    78  H    0.423703
    79  C    0.787718
    80  O   -0.554421
    81  H    0.431533
 Sum of Mulliken charges =   1.00000

 Dipole moment (field-independent basis, Debye):
    X=             -5.4653    Y=             10.5442    Z=             -1.5739  Tot=             11.9802
 Quadrupole moment (field-independent basis, Debye-Ang):
   XX=           -115.2810   YY=           -202.2961   ZZ=           -215.6594
   XY=            -24.7959   XZ=            -46.3092   YZ=             -2.3704

 Normal termination of Gaussian 16 at Sat May 14 13:21:50 2022.
