 Gaussian 16, Revision C.01,
 Gaussian 16:  ES64L-G16RevC.01  3-Jul-2019

 ----------------------------------------------------------------------
 # B3LYP/6-31G* empiricaldispersion=gd3 guess=read geom=check nosymm in
 tegral(ultrafinegrid)
 ----------------------------------------------------------------------

 -----------------------------------------------------
 Candidate Structure: Conf:14 Charge calc in gas phase
 -----------------------------------------------------
 Structure from the checkpoint file:  "conf-14.chk"
 Charge =  1 Multiplicity = 1

                          Input orientation:
 ---------------------------------------------------------------------
 Center     Atomic      Atomic             Coordinates (Angstroms)
 Number     Number       Type             X           Y           Z
 ---------------------------------------------------------------------
      1          7           0       -3.185114    1.126658    3.511950
      2          1           0       -4.172861    0.873343    3.612031
      3          1           0       -2.628375    0.226659    3.474217
      4          1           0       -2.904632    1.716084    4.301154
      5          6           0       -2.857219    1.749711    2.162812
      6          1           0       -3.766082    2.223567    1.781009
      7          6           0       -2.507730    0.490298    1.328793
      8          6           0       -1.733274    2.785036    2.381292
      9          1           0       -2.203312    3.656484    2.855606
     10          1           0       -1.004001    2.349260    3.074606
     11          8           0       -2.187773   -0.538700    1.932861
     12          6           0       -0.934838    3.195490    1.131176
     13          1           0       -0.584157    4.227238    1.231551
     14          1           0       -1.539478    3.173986    0.215009
     15          6           0        0.306181    2.270875    0.931827
     16          8           0        1.133068    2.612371    0.030839
     17          8           0        0.378077    1.264406    1.668452
     18          7           0       -2.656484    0.600952    0.003391
     19          1           0       -3.078129    1.437536   -0.386774
     20          6           0       -2.375655   -0.498688   -0.934834
     21          1           0       -2.736271   -1.418413   -0.467850
     22          6           0       -0.839338   -0.504535   -1.065265
     23          6           0       -3.106178   -0.242416   -2.271435
     24          1           0       -3.136444   -1.192735   -2.817295
     25          1           0       -2.497184    0.443724   -2.870662
     26          8           0       -0.275764    0.431356   -1.648375
     27          6           0       -4.483017    0.324844   -2.085424
     28          6           0       -4.936841    1.536322   -2.553948
     29          1           0       -4.435402    2.260846   -3.181880
     30          6           0       -5.566233   -0.248758   -1.321488
     31          6           0       -6.651031    0.669105   -1.379369
     32          6           0       -5.722815   -1.440907   -0.590705
     33          1           0       -4.920205   -2.171371   -0.540678
     34          7           0       -6.234005    1.751958   -2.130920
     35          1           0       -6.824557    2.513770   -2.429006
     36          6           0       -7.995428   -0.759315   -0.026317
     37          1           0       -8.932335   -0.982950    0.475632
     38          6           0       -7.871387    0.427831   -0.738999
     39          1           0       -8.692750    1.136248   -0.802093
     40          6           0       -6.932020   -1.684489    0.048369
     41          1           0       -7.069327   -2.606966    0.605335
     42          7           0       -0.207596   -1.475033   -0.399787
     43          1           0       -0.737701   -2.261757   -0.047727
     44          6           0        1.134805   -1.320890    0.162533
     45          1           0        1.103282   -0.473509    0.853030
     46          6           0        2.224438   -1.094678   -0.882316
     47          6           0        1.479362   -2.618795    0.938382
     48          1           0        2.549143   -2.557957    1.192674
     49          8           0        2.551826   -1.970784   -1.687312
     50          6           0        0.673813   -2.761943    2.227081
     51          1           0        0.919684   -1.952507    2.920334
     52          1           0        0.907371   -3.721833    2.696426
     53          1           0       -0.405700   -2.724246    2.041262
     54          8           0        1.211175   -3.751563    0.126063
     55          1           0        1.691502   -3.592211   -0.712436
     56          7           0        2.863301    0.090635   -0.742122
     57          1           0        2.417526    0.827338   -0.191798
     58          6           0        4.066876    0.405102   -1.478933
     59          1           0        4.027640   -0.131702   -2.435752
     60          6           0        5.353032   -0.093254   -0.804254
     61          6           0        4.143672    1.921495   -1.723014
     62          1           0        5.133188    2.173137   -2.113112
     63          1           0        4.039290    2.428807   -0.753993
     64          8           0        6.458657    0.251650   -1.160894
     65          6           0        3.024215    2.364495   -2.673562
     66          1           0        3.313051    2.172765   -3.715285
     67          1           0        2.134070    1.762332   -2.465810
     68          6           0        2.654419    3.839957   -2.502099
     69          1           0        2.359108    4.034936   -1.467878
     70          1           0        3.488979    4.504474   -2.740541
     71          7           0        1.546353    4.225668   -3.406655
     72          1           0        1.780311    4.780218   -4.219225
     73          7           0       -0.140883    3.051187   -2.298767
     74          1           0       -0.628755    2.156704   -2.382875
     75          1           0        0.415628    3.036581   -1.412779
     76          7           0       -0.387131    3.613855   -4.534238
     77          1           0        0.020045    3.802112   -5.438392
     78          1           0       -1.366841    3.376694   -4.499556
     79          6           0        0.351254    3.619152   -3.399632
     80          8           0        5.133165   -0.971996    0.194990
     81          1           0        6.014578   -1.255542    0.506180
 ---------------------------------------------------------------------

 SCF Done:  E(RB3LYP) =  -2054.04518097     A.U. after    1 cycles

 Alpha  occ. eigenvalues --  -19.25655 -19.25534 -19.21029 -19.19515 -19.18871
 Alpha  occ. eigenvalues --  -19.17533 -19.16997 -19.16571 -14.59310 -14.49492
 Alpha  occ. eigenvalues --  -14.49253 -14.48999 -14.47486 -14.44912 -14.44454
 Alpha  occ. eigenvalues --  -14.41431 -10.44485 -10.42640 -10.39743 -10.37875
 Alpha  occ. eigenvalues --  -10.37721 -10.35036 -10.34405 -10.34391 -10.32015
 Alpha  occ. eigenvalues --  -10.31990 -10.31551 -10.31116 -10.30084 -10.29971
 Alpha  occ. eigenvalues --  -10.29742 -10.28345 -10.28324 -10.28314 -10.27714
 Alpha  occ. eigenvalues --  -10.27666 -10.27536 -10.27161 -10.26772 -10.26617
 Alpha  occ. eigenvalues --  -10.26155 -10.23315  -1.18268  -1.16294  -1.13185
 Alpha  occ. eigenvalues --   -1.12975  -1.12476  -1.09954  -1.09361  -1.07369
 Alpha  occ. eigenvalues --   -1.07192  -1.06572  -1.05623  -1.02766  -1.01525
 Alpha  occ. eigenvalues --   -1.00668  -0.99846  -0.98670  -0.92954  -0.92444
 Alpha  occ. eigenvalues --   -0.90372  -0.87995  -0.86534  -0.84183  -0.83327
 Alpha  occ. eigenvalues --   -0.82451  -0.82240  -0.81121  -0.78194  -0.77427
 Alpha  occ. eigenvalues --   -0.76436  -0.74939  -0.73759  -0.73070  -0.72087
 Alpha  occ. eigenvalues --   -0.71309  -0.70390  -0.69961  -0.69344  -0.68626
 Alpha  occ. eigenvalues --   -0.68434  -0.66934  -0.66402  -0.65979  -0.65047
 Alpha  occ. eigenvalues --   -0.64373  -0.63800  -0.62793  -0.62031  -0.61913
 Alpha  occ. eigenvalues --   -0.61083  -0.60812  -0.59717  -0.58559  -0.57946
 Alpha  occ. eigenvalues --   -0.57731  -0.57112  -0.57041  -0.56524  -0.56024
 Alpha  occ. eigenvalues --   -0.55854  -0.55064  -0.54714  -0.53861  -0.53475
 Alpha  occ. eigenvalues --   -0.53210  -0.52837  -0.52472  -0.52221  -0.51798
 Alpha  occ. eigenvalues --   -0.51686  -0.51369  -0.50952  -0.50417  -0.50227
 Alpha  occ. eigenvalues --   -0.49782  -0.49560  -0.49061  -0.48648  -0.47981
 Alpha  occ. eigenvalues --   -0.47894  -0.47696  -0.47134  -0.46870  -0.46599
 Alpha  occ. eigenvalues --   -0.46422  -0.45556  -0.45367  -0.44110  -0.43894
 Alpha  occ. eigenvalues --   -0.43758  -0.43614  -0.43430  -0.43066  -0.42465
 Alpha  occ. eigenvalues --   -0.42312  -0.42132  -0.41738  -0.41618  -0.40167
 Alpha  occ. eigenvalues --   -0.39414  -0.39099  -0.38503  -0.37443  -0.37178
 Alpha  occ. eigenvalues --   -0.36498  -0.35214  -0.34656  -0.34290  -0.32655
 Alpha  occ. eigenvalues --   -0.31986  -0.31645  -0.31404  -0.31027  -0.30410
 Alpha  occ. eigenvalues --   -0.30169  -0.29808
 Alpha virt. eigenvalues --   -0.11619  -0.10232  -0.10055  -0.09884  -0.07966
 Alpha virt. eigenvalues --   -0.06702  -0.06434  -0.05219  -0.04884  -0.04281
 Alpha virt. eigenvalues --   -0.03968  -0.03399  -0.03142  -0.02456  -0.01514

 Mulliken charges:
               1
     1  N   -0.750733
     2  H    0.413026
     3  H    0.436339
     4  H    0.413610
     5  C   -0.125196
     6  H    0.201300
     7  C    0.699780
     8  C   -0.273307
     9  H    0.154131
    10  H    0.198413
    11  O   -0.539197
    12  C   -0.394339
    13  H    0.180638
    14  H    0.137599
    15  C    0.641196
    16  O   -0.622669
    17  O   -0.562904
    18  N   -0.595930
    19  H    0.342877
    20  C   -0.052902
    21  H    0.180617
    22  C    0.663534
    23  C   -0.388236
    24  H    0.191219
    25  H    0.154476
    26  O   -0.568417
    27  C    0.036891
    28  C   -0.011996
    29  H    0.142159
    30  C    0.089349
    31  C    0.303888
    32  C   -0.216688
    33  H    0.135474
    34  N   -0.683610
    35  H    0.341034
    36  C   -0.152708
    37  H    0.147300
    38  C   -0.164260
    39  H    0.142352
    40  C   -0.145586
    41  H    0.143158
    42  N   -0.579484
    43  H    0.353970
    44  C   -0.106762
    45  H    0.236990
    46  C    0.654288
    47  C    0.088808
    48  H    0.152029
    49  O   -0.553445
    50  C   -0.455117
    51  H    0.155901
    52  H    0.171064
    53  H    0.140659
    54  O   -0.645785
    55  H    0.419371
    56  N   -0.628973
    57  H    0.388790
    58  C   -0.051908
    59  H    0.205407
    60  C    0.600290
    61  C   -0.303217
    62  H    0.184985
    63  H    0.164887
    64  O   -0.459674
    65  C   -0.281651
    66  H    0.143304
    67  H    0.191603
    68  C   -0.183027
    69  H    0.217080
    70  H    0.173674
    71  N   -0.589196
    72  H    0.349960
    73  N   -0.804915
    74  H    0.371979
    75  H    0.435108
    76  N   -0.762316
    77  H    0.368494
    78  H    0.365466
    79  C    0.768650
    80  O   -0.557612
    81  H    0.418642
 Sum of Mulliken charges =   1.00000

 Dipole moment (field-independent basis, Debye):
    X=            -16.7554    Y=             15.6915    Z=             -1.4337  Tot=             23.0005
 Quadrupole moment (field-independent basis, Debye-Ang):
   XX=           -161.9217   YY=           -196.4622   ZZ=           -149.0254
   XY=            -21.4364   XZ=            -21.5656   YZ=            -39.5013

 Normal termination of Gaussian 16 at Sat May 14 13:21:50 2022.
