 Gaussian 16, Revision C.01,
 Gaussian 16:  ES64L-G16RevC.01  3-Jul-2019

 ----------------------------------------------------------------------
 # B3LYP/6-31G* empiricaldispersion=gd3 guess=read geom=check nosymm in
 tegral(ultrafinegrid)
 ----------------------------------------------------------------------

 ------------------------------------------------------
 Candidate Structure: Conf:727 Charge calc in gas phase
 ------------------------------------------------------
 Structure from the checkpoint file:  "conf-727.chk"
 Charge =  1 Multiplicity = 1

                          Input orientation:
 ---------------------------------------------------------------------
 Center     Atomic      Atomic             Coordinates (Angstroms)
 Number     Number       Type             X           Y           Z
 ---------------------------------------------------------------------
      1          7           0       -5.537095    2.411299    3.480005
      2          1           0       -6.084356    3.131352    3.000219
      3          1           0       -5.744994    1.493772    3.038419
      4          1           0       -5.764021    2.415007    4.490241
      5          6           0       -4.035656    2.586705    3.340908
      6          1           0       -3.835541    3.653832    3.215555
      7          6           0       -3.648199    1.749593    2.125619
      8          6           0       -3.363142    2.050244    4.613343
      9          1           0       -3.433028    0.953820    4.616926
     10          1           0       -2.292683    2.302307    4.601344
     11          8           0       -4.424440    0.875886    1.707821
     12          6           0       -3.900846    2.639371    5.908418
     13          1           0       -4.793212    2.129413    6.297590
     14          1           0       -4.128298    3.710136    5.794390
     15          6           0       -2.745674    2.550168    7.061364
     16          8           0       -1.589737    2.528654    6.585287
     17          8           0       -3.201113    2.547453    8.209212
     18          7           0       -2.410392    1.958764    1.651414
     19          1           0       -1.795269    2.639474    2.090073
     20          6           0       -1.762135    1.043550    0.722134
     21          1           0       -2.215872    0.060784    0.865977
     22          6           0       -0.274615    1.009490    1.098517
     23          6           0       -1.885626    1.485333   -0.774193
     24          1           0       -0.885445    1.556751   -1.216700
     25          1           0       -2.280060    2.508882   -0.778371
     26          8           0        0.319085    2.032225    1.405475
     27          6           0       -2.724220    0.587153   -1.643166
     28          6           0       -3.688741   -0.318389   -1.267619
     29          1           0       -4.081615   -0.526905   -0.282238
     30          6           0       -2.660241    0.528044   -3.081218
     31          6           0       -3.593980   -0.462819   -3.512014
     32          6           0       -1.932621    1.240440   -4.056054
     33          1           0       -1.247414    2.029116   -3.760364
     34          7           0       -4.198972   -0.959123   -2.381501
     35          1           0       -4.934013   -1.649676   -2.363598
     36          6           0       -3.044722   -0.059576   -5.803080
     37          1           0       -3.226768   -0.232479   -6.862234
     38          6           0       -3.786610   -0.771994   -4.860775
     39          1           0       -4.510926   -1.521409   -5.167769
     40          6           0       -2.130541    0.940853   -5.406112
     41          1           0       -1.599526    1.513430   -6.162228
     42          7           0        0.297323   -0.231532    1.025369
     43          1           0       -0.256797   -0.965267    0.594018
     44          6           0        1.733425   -0.414598    0.805867
     45          1           0        2.221056    0.546759    0.987939
     46          6           0        1.855034   -0.870437   -0.648706
     47          6           0        2.305878   -1.452682    1.805022
     48          1           0        1.743789   -2.391725    1.657058
     49          8           0        1.017297   -1.636555   -1.126122
     50          6           0        3.791409   -1.708046    1.584231
     51          1           0        3.984286   -2.143891    0.598708
     52          1           0        4.154960   -2.397460    2.350339
     53          1           0        4.354057   -0.772582    1.680081
     54          8           0        2.163998   -0.968514    3.121289
     55          1           0        1.228393   -0.757463    3.276512
     56          7           0        2.877503   -0.373157   -1.409185
     57          1           0        3.383995    0.420966   -1.039281
     58          6           0        2.730741   -0.445648   -2.867647
     59          1           0        3.467230    0.246721   -3.290823
     60          6           0        1.351053    0.176060   -3.181763
     61          6           0        2.991741   -1.861466   -3.405676
     62          1           0        2.257279   -2.525788   -2.944231
     63          1           0        3.973350   -2.170175   -3.034897
     64          8           0        1.015840    1.236917   -2.710412
     65          6           0        2.935809   -1.968994   -4.949399
     66          1           0        2.560918   -1.038864   -5.390915
     67          1           0        3.935488   -2.121030   -5.370566
     68          6           0        2.016066   -3.126200   -5.369851
     69          1           0        2.480028   -4.091661   -5.149949
     70          1           0        1.080686   -3.089670   -4.804556
     71          7           0        1.667994   -3.133142   -6.801184
     72          1           0        2.313291   -3.571443   -7.445755
     73          7           0       -0.068419   -1.606052   -6.595921
     74          1           0       -1.015076   -1.330146   -6.829081
     75          1           0        0.282525   -1.275103   -5.698124
     76          7           0        0.257244   -2.726727   -8.598102
     77          1           0        0.579548   -3.546401   -9.092110
     78          1           0       -0.380100   -2.111194   -9.082406
     79          6           0        0.619240   -2.485436   -7.323840
     80          8           0        0.534930   -0.540942   -3.995953
     81          1           0       -0.334110   -0.063578   -4.000737
 ---------------------------------------------------------------------

 SCF Done:  E(RB3LYP) =  -2053.95138015     A.U. after    1 cycles

 Alpha  occ. eigenvalues --  -19.32034 -19.25807 -19.23327 -19.23260 -19.21354
 Alpha  occ. eigenvalues --  -19.21243 -19.05780 -19.05008 -14.55455 -14.54072
 Alpha  occ. eigenvalues --  -14.53975 -14.52641 -14.48158 -14.47694 -14.46753
 Alpha  occ. eigenvalues --  -14.45694 -10.50108 -10.44311 -10.40018 -10.39874
 Alpha  occ. eigenvalues --  -10.38511 -10.37323 -10.36404 -10.35100 -10.33588
 Alpha  occ. eigenvalues --  -10.32748 -10.32424 -10.32270 -10.32164 -10.31663
 Alpha  occ. eigenvalues --  -10.30755 -10.30354 -10.30045 -10.29833 -10.29507
 Alpha  occ. eigenvalues --  -10.29361 -10.28977 -10.28398 -10.25125 -10.24774
 Alpha  occ. eigenvalues --  -10.24546 -10.20426  -1.22687  -1.18494  -1.15506
 Alpha  occ. eigenvalues --   -1.15293  -1.13640  -1.13304  -1.09677  -1.09297
 Alpha  occ. eigenvalues --   -1.08155  -1.07839  -1.06392  -1.04058  -1.03377
 Alpha  occ. eigenvalues --   -1.02047  -0.98762  -0.94973  -0.93281  -0.90988
 Alpha  occ. eigenvalues --   -0.90842  -0.88849  -0.88169  -0.86296  -0.85096
 Alpha  occ. eigenvalues --   -0.84387  -0.82518  -0.82119  -0.79782  -0.79171
 Alpha  occ. eigenvalues --   -0.78406  -0.76119  -0.75765  -0.74907  -0.73474
 Alpha  occ. eigenvalues --   -0.73013  -0.72429  -0.70298  -0.69667  -0.69256
 Alpha  occ. eigenvalues --   -0.68847  -0.68647  -0.67897  -0.67680  -0.67168
 Alpha  occ. eigenvalues --   -0.66694  -0.66175  -0.65938  -0.65583  -0.64423
 Alpha  occ. eigenvalues --   -0.62921  -0.62223  -0.61321  -0.60444  -0.59840
 Alpha  occ. eigenvalues --   -0.59717  -0.59582  -0.58619  -0.58248  -0.58022
 Alpha  occ. eigenvalues --   -0.57885  -0.57749  -0.56049  -0.55952  -0.55540
 Alpha  occ. eigenvalues --   -0.55252  -0.54288  -0.53795  -0.53424  -0.53129
 Alpha  occ. eigenvalues --   -0.52835  -0.52505  -0.52043  -0.51842  -0.51208
 Alpha  occ. eigenvalues --   -0.50674  -0.50248  -0.49603  -0.48965  -0.48838
 Alpha  occ. eigenvalues --   -0.48618  -0.48129  -0.47539  -0.47443  -0.47188
 Alpha  occ. eigenvalues --   -0.46810  -0.46776  -0.46566  -0.46089  -0.45563
 Alpha  occ. eigenvalues --   -0.44697  -0.44611  -0.44569  -0.44103  -0.43864
 Alpha  occ. eigenvalues --   -0.43669  -0.42529  -0.42037  -0.40668  -0.40448
 Alpha  occ. eigenvalues --   -0.39552  -0.38273  -0.37916  -0.37727  -0.37443
 Alpha  occ. eigenvalues --   -0.37282  -0.36820  -0.36067  -0.35438  -0.34551
 Alpha  occ. eigenvalues --   -0.33749  -0.33335  -0.33303  -0.30720  -0.21088
 Alpha  occ. eigenvalues --   -0.20423  -0.19262
 Alpha virt. eigenvalues --   -0.14252  -0.12813  -0.12280  -0.09842  -0.09357
 Alpha virt. eigenvalues --   -0.08978  -0.08848  -0.07008  -0.06327  -0.06082
 Alpha virt. eigenvalues --   -0.04758  -0.03829  -0.03464  -0.02625  -0.01555

 Mulliken charges:
               1
     1  N   -0.726396
     2  H    0.399054
     3  H    0.409582
     4  H    0.401149
     5  C   -0.139585
     6  H    0.200262
     7  C    0.643683
     8  C   -0.280980
     9  H    0.150333
    10  H    0.216358
    11  O   -0.556562
    12  C   -0.429143
    13  H    0.129891
    14  H    0.128815
    15  C    0.591645
    16  O   -0.581283
    17  O   -0.562403
    18  N   -0.604911
    19  H    0.376225
    20  C   -0.035684
    21  H    0.176681
    22  C    0.590291
    23  C   -0.377035
    24  H    0.202356
    25  H    0.182886
    26  O   -0.495043
    27  C    0.072808
    28  C    0.001927
    29  H    0.204421
    30  C    0.080426
    31  C    0.332490
    32  C   -0.325651
    33  H    0.180313
    34  N   -0.693669
    35  H    0.344252
    36  C   -0.197473
    37  H    0.131528
    38  C   -0.154656
    39  H    0.149452
    40  C   -0.150771
    41  H    0.143600
    42  N   -0.614736
    43  H    0.350189
    44  C   -0.098685
    45  H    0.196375
    46  C    0.622163
    47  C    0.156171
    48  H    0.126131
    49  O   -0.539572
    50  C   -0.466829
    51  H    0.142422
    52  H    0.189611
    53  H    0.161333
    54  O   -0.603279
    55  H    0.410362
    56  N   -0.580877
    57  H    0.357009
    58  C   -0.061873
    59  H    0.191962
    60  C    0.613118
    61  C   -0.280073
    62  H    0.201226
    63  H    0.177524
    64  O   -0.448609
    65  C   -0.278936
    66  H    0.150031
    67  H    0.170162
    68  C   -0.189321
    69  H    0.200471
    70  H    0.203585
    71  N   -0.595818
    72  H    0.365758
    73  N   -0.805467
    74  H    0.371854
    75  H    0.443962
    76  N   -0.764481
    77  H    0.383870
    78  H    0.384964
    79  C    0.818226
    80  O   -0.633498
    81  H    0.444394
 Sum of Mulliken charges =   1.00000

 Dipole moment (field-independent basis, Debye):
    X=             -5.1245    Y=            -12.2054    Z=            -44.8799  Tot=             46.7914
 Quadrupole moment (field-independent basis, Debye-Ang):
   XX=           -134.0184   YY=           -206.8385   ZZ=           -164.0250
   XY=            -31.4293   XZ=            -19.1391   YZ=             45.5089

 Normal termination of Gaussian 16 at Sat May 14 13:21:43 2022.
