 Gaussian 16, Revision C.01,
 Gaussian 16:  ES64L-G16RevC.01  3-Jul-2019

 ----------------------------------------------------------------------
 # B3LYP/6-31G* empiricaldispersion=gd3 guess=read geom=check nosymm in
 tegral(ultrafinegrid)
 ----------------------------------------------------------------------

 ------------------------------------------------------
 Candidate Structure: Conf:315 Charge calc in gas phase
 ------------------------------------------------------
 Structure from the checkpoint file:  "conf-315.chk"
 Charge =  1 Multiplicity = 1

                          Input orientation:
 ---------------------------------------------------------------------
 Center     Atomic      Atomic             Coordinates (Angstroms)
 Number     Number       Type             X           Y           Z
 ---------------------------------------------------------------------
      1          7           0       -5.790344    1.261222    2.855698
      2          1           0       -6.025588    2.264547    2.726201
      3          1           0       -6.092194    0.743947    2.000329
      4          1           0       -6.270986    0.909890    3.687650
      5          6           0       -4.295858    1.042110    2.906418
      6          1           0       -3.854353    1.951904    3.313549
      7          6           0       -3.935482    0.851915    1.415989
      8          6           0       -3.945633   -0.196866    3.737925
      9          1           0       -4.388277   -1.076703    3.252381
     10          1           0       -2.857253   -0.321869    3.669999
     11          8           0       -4.788514    0.347535    0.679525
     12          6           0       -4.350751   -0.145141    5.226480
     13          1           0       -5.451228   -0.079993    5.296394
     14          6           0       -3.940892   -1.459021    5.908668
     15          1           0       -2.850317   -1.574891    5.897317
     16          1           0       -4.379016   -2.328382    5.405949
     17          1           0       -4.267543   -1.471982    6.953088
     18          6           0       -3.752197    1.066517    5.955396
     19          1           0       -2.657790    1.062530    5.879283
     20          1           0       -4.113471    2.023595    5.559151
     21          1           0       -4.010221    1.041031    7.018578
     22          7           0       -2.724571    1.273302    1.042682
     23          1           0       -2.037853    1.606986    1.714821
     24          6           0       -2.285345    1.366191   -0.342530
     25          1           0       -2.731083    0.541087   -0.904848
     26          6           0       -0.750000    1.285884   -0.317026
     27          6           0       -2.714623    2.728526   -0.983006
     28          1           0       -2.140080    3.525274   -0.494534
     29          1           0       -2.406141    2.716770   -2.034211
     30          8           0       -0.129229    1.530193    0.719333
     31          6           0       -4.184069    2.991592   -0.860843
     32          6           0       -5.163191    2.613991   -1.746399
     33          1           0       -5.068202    2.161347   -2.723983
     34          6           0       -4.865206    3.537936    0.284747
     35          6           0       -6.266286    3.431333    0.033236
     36          6           0       -4.436589    4.086754    1.506021
     37          1           0       -3.376295    4.205877    1.712006
     38          7           0       -6.409304    2.870463   -1.214520
     39          1           0       -7.284634    2.730557   -1.697050
     40          6           0       -6.771830    4.346273    2.183317
     41          1           0       -7.491830    4.683206    2.923418
     42          6           0       -7.226682    3.827138    0.970015
     43          1           0       -8.289280    3.743299    0.760343
     44          6           0       -5.386354    4.482965    2.446146
     45          1           0       -5.065265    4.927322    3.384112
     46          7           0       -0.175013    1.017352   -1.503126
     47          1           0       -0.719768    0.825340   -2.341289
     48          6           0        1.249841    1.136762   -1.759104
     49          1           0        1.670259    1.949078   -1.158428
     50          6           0        1.384056    1.362233   -3.274948
     51          6           0        1.963848   -0.189457   -1.379044
     52          1           0        1.607416   -0.977550   -2.059442
     53          1           0        1.659940   -0.438968   -0.357901
     54          8           0        0.520685    0.902733   -4.020852
     55          8           0        3.384713   -0.095359   -1.374855
     56          1           0        3.765335    0.121725   -2.293609
     57          7           0        2.506063    1.996511   -3.691201
     58          1           0        3.199191    2.198007   -2.977751
     59          6           0        3.105903    1.653647   -4.989887
     60          1           0        2.288311    1.398607   -5.665915
     61          6           0        4.004304    0.426455   -4.740101
     62          6           0        3.927858    2.818604   -5.544607
     63          1           0        4.359432    2.541003   -6.510839
     64          1           0        4.750028    3.067972   -4.864173
     65          1           0        3.297195    3.702252   -5.679454
     66          8           0        4.588497    0.341802   -3.618864
     67          7           0        4.112761   -0.450209   -5.710776
     68          1           0        3.791172   -0.302502   -6.704325
     69          6           0        5.055939   -1.566027   -5.797478
     70          1           0        6.032728   -1.240969   -5.420100
     71          6           0        5.161370   -1.883792   -7.353829
     72          6           0        4.615701   -2.826886   -5.045444
     73          1           0        3.697628   -3.224816   -5.497180
     74          1           0        5.401584   -3.567540   -5.229849
     75          8           0        5.910859   -2.826616   -7.635119
     76          6           0        4.397760   -2.597169   -3.546544
     77          1           0        5.191001   -1.930155   -3.190766
     78          1           0        3.460739   -2.042402   -3.401062
     79          6           0        4.369732   -3.870885   -2.696074
     80          1           0        5.360355   -4.345165   -2.694933
     81          1           0        3.676291   -4.609676   -3.116086
     82          6           0        3.924313   -3.604057   -1.257309
     83          1           0        2.858761   -3.364294   -1.203103
     84          1           0        4.129612   -4.447244   -0.592841
     85          7           0        4.635985   -2.387092   -0.679073
     86          1           0        4.617338   -2.390700    0.344240
     87          1           0        5.618227   -2.363323   -0.970969
     88          1           0        4.170883   -1.469205   -0.999699
     89          8           0        4.431403   -1.136454   -8.067929
 ---------------------------------------------------------------------

 SCF Done:  E(RB3LYP) =  -2042.56633115     A.U. after    1 cycles

 Alpha  occ. eigenvalues --  -19.26036 -19.25676 -19.23113 -19.21152 -19.18189
 Alpha  occ. eigenvalues --  -19.07641 -19.06271 -14.58775 -14.55998 -14.49655
 Alpha  occ. eigenvalues --  -14.49259 -14.46983 -14.44483 -14.39725 -10.43226
 Alpha  occ. eigenvalues --  -10.40238 -10.39804 -10.38065 -10.36220 -10.35639
 Alpha  occ. eigenvalues --  -10.34528 -10.34436 -10.33739 -10.33691 -10.33339
 Alpha  occ. eigenvalues --  -10.33023 -10.32591 -10.31136 -10.31102 -10.30759
 Alpha  occ. eigenvalues --  -10.30705 -10.30469 -10.30234 -10.30047 -10.29535
 Alpha  occ. eigenvalues --  -10.29309 -10.28775 -10.28693 -10.25555 -10.25425
 Alpha  occ. eigenvalues --  -10.24428 -10.23555 -10.22415  -1.18605  -1.15142
 Alpha  occ. eigenvalues --   -1.13348  -1.13113  -1.12427  -1.10341  -1.09279
 Alpha  occ. eigenvalues --   -1.08898  -1.06323  -1.03521  -1.01058  -1.00742
 Alpha  occ. eigenvalues --   -0.96236  -0.95985  -0.95122  -0.92346  -0.92009
 Alpha  occ. eigenvalues --   -0.89852  -0.89540  -0.88032  -0.86085  -0.85336
 Alpha  occ. eigenvalues --   -0.83984  -0.83283  -0.82225  -0.80651  -0.79752
 Alpha  occ. eigenvalues --   -0.77968  -0.76845  -0.75874  -0.73968  -0.73217
 Alpha  occ. eigenvalues --   -0.72527  -0.71867  -0.71769  -0.70899  -0.70619
 Alpha  occ. eigenvalues --   -0.69587  -0.69487  -0.69119  -0.68644  -0.67991
 Alpha  occ. eigenvalues --   -0.67116  -0.66090  -0.65415  -0.65087  -0.62903
 Alpha  occ. eigenvalues --   -0.62653  -0.62159  -0.60756  -0.60444  -0.60081
 Alpha  occ. eigenvalues --   -0.59426  -0.59350  -0.58799  -0.58594  -0.57780
 Alpha  occ. eigenvalues --   -0.57519  -0.56649  -0.56226  -0.55831  -0.55698
 Alpha  occ. eigenvalues --   -0.55039  -0.54835  -0.54647  -0.53916  -0.53467
 Alpha  occ. eigenvalues --   -0.53182  -0.52799  -0.52426  -0.52081  -0.51719
 Alpha  occ. eigenvalues --   -0.51639  -0.51371  -0.51029  -0.50311  -0.50200
 Alpha  occ. eigenvalues --   -0.50048  -0.49939  -0.49752  -0.48944  -0.48769
 Alpha  occ. eigenvalues --   -0.48686  -0.47809  -0.47547  -0.46879  -0.46678
 Alpha  occ. eigenvalues --   -0.45689  -0.45577  -0.45527  -0.45472  -0.45386
 Alpha  occ. eigenvalues --   -0.45044  -0.44635  -0.43929  -0.43841  -0.43373
 Alpha  occ. eigenvalues --   -0.42803  -0.41498  -0.40668  -0.40424  -0.39779
 Alpha  occ. eigenvalues --   -0.39465  -0.39099  -0.38872  -0.37921  -0.37321
 Alpha  occ. eigenvalues --   -0.36880  -0.36569  -0.35127  -0.34884  -0.34472
 Alpha  occ. eigenvalues --   -0.34395  -0.32240  -0.31616  -0.30843  -0.22728
 Alpha  occ. eigenvalues --   -0.22522  -0.20601
 Alpha virt. eigenvalues --   -0.13260  -0.12541  -0.09886  -0.09528  -0.08806
 Alpha virt. eigenvalues --   -0.08362  -0.07481  -0.05369  -0.04382  -0.04268
 Alpha virt. eigenvalues --   -0.03489  -0.02739  -0.02225  -0.02086  -0.01994

 Mulliken charges:
               1
     1  N   -0.768856
     2  H    0.421699
     3  H    0.419664
     4  H    0.401790
     5  C   -0.112644
     6  H    0.200082
     7  C    0.669356
     8  C   -0.283474
     9  H    0.176414
    10  H    0.180840
    11  O   -0.540385
    12  C   -0.102672
    13  H    0.117166
    14  C   -0.446969
    15  H    0.160484
    16  H    0.160263
    17  H    0.173943
    18  C   -0.454539
    19  H    0.163471
    20  H    0.134525
    21  H    0.182265
    22  N   -0.606852
    23  H    0.360478
    24  C   -0.062209
    25  H    0.194497
    26  C    0.631541
    27  C   -0.366203
    28  H    0.173569
    29  H    0.180071
    30  O   -0.543432
    31  C    0.080966
    32  C    0.035801
    33  H    0.182552
    34  C    0.062245
    35  C    0.324553
    36  C   -0.224022
    37  H    0.144815
    38  N   -0.681487
    39  H    0.350347
    40  C   -0.206024
    41  H    0.160448
    42  C   -0.172702
    43  H    0.160058
    44  C   -0.188800
    45  H    0.154291
    46  N   -0.619689
    47  H    0.364418
    48  C   -0.063030
    49  H    0.189170
    50  C    0.593903
    51  C   -0.042901
    52  H    0.154524
    53  H    0.164479
    54  O   -0.520997
    55  O   -0.701976
    56  H    0.470189
    57  N   -0.573862
    58  H    0.336942
    59  C   -0.078373
    60  H    0.203205
    61  C    0.624852
    62  C   -0.459517
    63  H    0.196329
    64  H    0.160717
    65  H    0.169894
    66  O   -0.637506
    67  N   -0.578241
    68  H    0.373139
    69  C   -0.088472
    70  H    0.149802
    71  C    0.599066
    72  C   -0.259834
    73  H    0.147621
    74  H    0.176948
    75  O   -0.574077
    76  C   -0.286184
    77  H    0.142327
    78  H    0.126170
    79  C   -0.288725
    80  H    0.168553
    81  H    0.185196
    82  C   -0.188888
    83  H    0.195628
    84  H    0.197902
    85  N   -0.776053
    86  H    0.395575
    87  H    0.406275
    88  H    0.460739
    89  O   -0.612163
 Sum of Mulliken charges =   1.00000

 Dipole moment (field-independent basis, Debye):
    X=            -21.9507    Y=              4.8261    Z=             25.9583  Tot=             34.3360
 Quadrupole moment (field-independent basis, Debye-Ang):
   XX=           -116.8606   YY=           -220.2319   ZZ=           -353.7743
   XY=            -41.2633   XZ=             41.7086   YZ=            -41.1685

 Normal termination of Gaussian 16 at Thu Jun 23 19:22:10 2022.
