 Gaussian 16, Revision C.01,
 Gaussian 16:  ES64L-G16RevC.01  3-Jul-2019

 ----------------------------------------------------------------------
 # B3LYP/6-31G* empiricaldispersion=gd3 guess=read geom=check nosymm in
 tegral(ultrafinegrid)
 ----------------------------------------------------------------------

 ------------------------------------------------------
 Candidate Structure: Conf:772 Charge calc in gas phase
 ------------------------------------------------------
 Structure from the checkpoint file:  "conf-772.chk"
 Charge =  1 Multiplicity = 1

                          Input orientation:
 ---------------------------------------------------------------------
 Center     Atomic      Atomic             Coordinates (Angstroms)
 Number     Number       Type             X           Y           Z
 ---------------------------------------------------------------------
      1          7           0       -0.202882    3.701072    1.224285
      2          1           0        0.327825    3.524071    0.281583
      3          1           0       -1.186985    3.939979    1.065478
      4          1           0        0.284605    4.456785    1.709420
      5          6           0       -0.116401    2.411358    1.999197
      6          1           0        0.950766    2.192251    2.050630
      7          6           0       -0.868095    1.415280    1.102867
      8          6           0       -0.739972    2.533661    3.388423
      9          1           0       -1.823264    2.661783    3.271697
     10          1           0       -0.593020    1.566669    3.888244
     11          8           0       -2.053482    1.620545    0.838425
     12          6           0       -0.156746    3.652375    4.276268
     13          1           0       -0.400962    4.624438    3.816127
     14          6           0       -0.840632    3.623471    5.650591
     15          1           0       -0.616226    2.685785    6.173901
     16          1           0       -1.929639    3.705732    5.559767
     17          1           0       -0.489811    4.449001    6.278725
     18          6           0        1.371023    3.554654    4.416252
     19          1           0        1.654676    2.581284    4.837053
     20          1           0        1.898255    3.672017    3.461645
     21          1           0        1.742539    4.328648    5.096313
     22          7           0       -0.123203    0.411497    0.609525
     23          1           0        0.876819    0.377950    0.782342
     24          6           0       -0.560444   -0.455673   -0.468493
     25          1           0       -1.458173   -1.004928   -0.168497
     26          6           0        0.611702   -1.397666   -0.753261
     27          6           0       -0.876567    0.347864   -1.783528
     28          1           0       -1.399710    1.256541   -1.475770
     29          1           0        0.069672    0.658315   -2.238773
     30          8           0        1.734990   -1.171162   -0.280401
     31          6           0       -1.724356   -0.419652   -2.748137
     32          6           0       -1.367170   -0.967345   -3.963081
     33          1           0       -0.416739   -0.958359   -4.480081
     34          6           0       -3.110051   -0.758259   -2.533298
     35          6           0       -3.535524   -1.515045   -3.656509
     36          6           0       -4.018682   -0.484362   -1.494879
     37          1           0       -3.710682    0.109986   -0.637700
     38          7           0       -2.450190   -1.628171   -4.506748
     39          1           0       -2.456340   -2.084400   -5.406280
     40          6           0       -5.716669   -1.730144   -2.727228
     41          1           0       -6.737170   -2.097930   -2.781099
     42          6           0       -4.839409   -2.009218   -3.768848
     43          1           0       -5.154770   -2.585967   -4.633721
     44          6           0       -5.312934   -0.975908   -1.604051
     45          1           0       -6.032504   -0.774971   -0.815691
     46          7           0        0.362141   -2.392890   -1.635974
     47          1           0       -0.519543   -2.318117   -2.141229
     48          6           0        1.446671   -3.077540   -2.359263
     49          1           0        2.224484   -3.307861   -1.625729
     50          6           0        2.018023   -2.151356   -3.461078
     51          6           0        0.912807   -4.388177   -2.942988
     52          1           0        1.692562   -4.853869   -3.548939
     53          1           0        0.068737   -4.170745   -3.617247
     54          8           0        1.864745   -2.378295   -4.655833
     55          8           0        0.573757   -5.308451   -1.925301
     56          1           0       -0.119565   -4.908217   -1.376768
     57          7           0        2.661645   -1.052072   -2.971035
     58          1           0        2.755106   -0.986981   -1.960694
     59          6           0        3.316295   -0.047397   -3.814792
     60          1           0        4.129290   -0.517438   -4.377562
     61          6           0        3.977821    0.956972   -2.867058
     62          6           0        2.353125    0.636526   -4.799473
     63          1           0        2.870791    1.431184   -5.346684
     64          1           0        1.492112    1.073202   -4.281399
     65          1           0        1.986419   -0.103521   -5.511442
     66          8           0        5.224854    1.021101   -2.781138
     67          7           0        3.163475    1.716396   -2.131232
     68          1           0        2.153034    1.675375   -2.229897
     69          6           0        3.628898    2.676240   -1.138725
     70          1           0        4.363879    2.180756   -0.497350
     71          6           0        2.439214    3.077716   -0.236784
     72          6           0        4.228769    3.933582   -1.817703
     73          1           0        4.857658    3.618391   -2.660342
     74          1           0        3.390904    4.484979   -2.258587
     75          8           0        2.692086    3.498858    0.906686
     76          6           0        5.019183    4.847470   -0.863520
     77          1           0        4.928756    5.882727   -1.210545
     78          1           0        4.557535    4.812843    0.129487
     79          6           0        6.525176    4.556322   -0.742647
     80          1           0        6.960439    5.300628   -0.065965
     81          1           0        7.022580    4.715739   -1.711538
     82          6           0        6.935045    3.184360   -0.190859
     83          1           0        7.917332    3.234461    0.286034
     84          1           0        6.217980    2.805537    0.541395
     85          7           0        7.060436    2.131327   -1.273571
     86          1           0        7.445696    1.260134   -0.894712
     87          1           0        6.156405    1.839261   -1.787721
     88          1           0        7.708139    2.445787   -2.003390
     89          8           0        1.287562    2.969667   -0.783959
 ---------------------------------------------------------------------

 SCF Done:  E(RB3LYP) =  -2042.64175778     A.U. after    2 cycles

 Alpha  occ. eigenvalues --  -19.25038 -19.22740 -19.21584 -19.21475 -19.21109
 Alpha  occ. eigenvalues --  -19.20684 -19.19721 -14.57438 -14.52176 -14.47684
 Alpha  occ. eigenvalues --  -14.46043 -14.45728 -14.45211 -14.44959 -10.41041
 Alpha  occ. eigenvalues --  -10.39302 -10.38724 -10.38203 -10.37980 -10.37752
 Alpha  occ. eigenvalues --  -10.34396 -10.33639 -10.33578 -10.33078 -10.31895
 Alpha  occ. eigenvalues --  -10.31884 -10.30830 -10.29643 -10.29536 -10.29141
 Alpha  occ. eigenvalues --  -10.28635 -10.28364 -10.28303 -10.28190 -10.27348
 Alpha  occ. eigenvalues --  -10.26049 -10.25518 -10.25233 -10.25124 -10.25103
 Alpha  occ. eigenvalues --  -10.24691 -10.24663 -10.24204  -1.16187  -1.14667
 Alpha  occ. eigenvalues --   -1.14019  -1.13435  -1.12405  -1.12107  -1.09092
 Alpha  occ. eigenvalues --   -1.07284  -1.05231  -1.05041  -1.03967  -1.02689
 Alpha  occ. eigenvalues --   -1.02406  -1.01275  -0.92536  -0.90641  -0.90295
 Alpha  occ. eigenvalues --   -0.89281  -0.88726  -0.86585  -0.85381  -0.84146
 Alpha  occ. eigenvalues --   -0.82152  -0.81893  -0.79946  -0.78931  -0.77365
 Alpha  occ. eigenvalues --   -0.76543  -0.76090  -0.75401  -0.74173  -0.72275
 Alpha  occ. eigenvalues --   -0.71694  -0.70610  -0.70016  -0.69240  -0.68766
 Alpha  occ. eigenvalues --   -0.68451  -0.68092  -0.67492  -0.66799  -0.66113
 Alpha  occ. eigenvalues --   -0.66055  -0.65217  -0.64646  -0.63399  -0.63344
 Alpha  occ. eigenvalues --   -0.62553  -0.61489  -0.60342  -0.59318  -0.59186
 Alpha  occ. eigenvalues --   -0.58456  -0.57974  -0.57597  -0.57048  -0.56956
 Alpha  occ. eigenvalues --   -0.56209  -0.55908  -0.55365  -0.55257  -0.54956
 Alpha  occ. eigenvalues --   -0.54242  -0.53957  -0.53760  -0.53296  -0.52665
 Alpha  occ. eigenvalues --   -0.52380  -0.51871  -0.51793  -0.51567  -0.51258
 Alpha  occ. eigenvalues --   -0.51071  -0.50511  -0.50240  -0.49932  -0.49479
 Alpha  occ. eigenvalues --   -0.49382  -0.49116  -0.48881  -0.48625  -0.48285
 Alpha  occ. eigenvalues --   -0.47924  -0.47617  -0.47301  -0.47226  -0.46948
 Alpha  occ. eigenvalues --   -0.46568  -0.46261  -0.46146  -0.45675  -0.45462
 Alpha  occ. eigenvalues --   -0.45113  -0.45046  -0.44742  -0.44203  -0.43978
 Alpha  occ. eigenvalues --   -0.41631  -0.41395  -0.41353  -0.41278  -0.40515
 Alpha  occ. eigenvalues --   -0.39932  -0.39760  -0.39049  -0.38304  -0.37948
 Alpha  occ. eigenvalues --   -0.36620  -0.36289  -0.36060  -0.35387  -0.35221
 Alpha  occ. eigenvalues --   -0.34782  -0.34616  -0.33881  -0.33627  -0.32588
 Alpha  occ. eigenvalues --   -0.28939  -0.27334
 Alpha virt. eigenvalues --   -0.10465  -0.09574  -0.09516  -0.08610  -0.07848
 Alpha virt. eigenvalues --   -0.06358  -0.05494  -0.04259  -0.03936  -0.03890
 Alpha virt. eigenvalues --   -0.02861  -0.02337  -0.01833  -0.01375  -0.00334

 Mulliken charges:
               1
     1  N   -0.760636
     2  H    0.445111
     3  H    0.388771
     4  H    0.396177
     5  C   -0.116224
     6  H    0.206718
     7  C    0.640738
     8  C   -0.268038
     9  H    0.173600
    10  H    0.166985
    11  O   -0.531950
    12  C   -0.096345
    13  H    0.111534
    14  C   -0.444678
    15  H    0.154626
    16  H    0.155298
    17  H    0.159963
    18  C   -0.477290
    19  H    0.150769
    20  H    0.169292
    21  H    0.161255
    22  N   -0.611920
    23  H    0.361994
    24  C   -0.040199
    25  H    0.202344
    26  C    0.613155
    27  C   -0.374070
    28  H    0.200895
    29  H    0.147524
    30  O   -0.564792
    31  C    0.004877
    32  C   -0.031158
    33  H    0.181484
    34  C    0.086848
    35  C    0.308674
    36  C   -0.222515
    37  H    0.163251
    38  N   -0.685019
    39  H    0.341860
    40  C   -0.146760
    41  H    0.141936
    42  C   -0.160637
    43  H    0.139094
    44  C   -0.144011
    45  H    0.137322
    46  N   -0.613752
    47  H    0.362834
    48  C   -0.107670
    49  H    0.198803
    50  C    0.635525
    51  C   -0.035630
    52  H    0.182414
    53  H    0.139883
    54  O   -0.523274
    55  O   -0.604952
    56  H    0.398524
    57  N   -0.666942
    58  H    0.379492
    59  C    0.009842
    60  H    0.192404
    61  C    0.593229
    62  C   -0.479736
    63  H    0.166062
    64  H    0.152523
    65  H    0.214165
    66  O   -0.598720
    67  N   -0.592850
    68  H    0.391234
    69  C   -0.036083
    70  H    0.137776
    71  C    0.604917
    72  C   -0.292668
    73  H    0.142885
    74  H    0.177753
    75  O   -0.575140
    76  C   -0.284668
    77  H    0.166540
    78  H    0.194292
    79  C   -0.294017
    80  H    0.189991
    81  H    0.153402
    82  C   -0.191627
    83  H    0.202702
    84  H    0.222076
    85  N   -0.776245
    86  H    0.403303
    87  H    0.465268
    88  H    0.398872
    89  O   -0.638588
 Sum of Mulliken charges =   1.00000

 Dipole moment (field-independent basis, Debye):
    X=             17.9770    Y=             12.0467    Z=             -2.8586  Tot=             21.8281
 Quadrupole moment (field-independent basis, Debye-Ang):
   XX=            -91.4800   YY=           -210.7425   ZZ=           -214.8964
   XY=             63.2328   XZ=            -15.3127   YZ=              9.7412

 Normal termination of Gaussian 16 at Thu Jun 23 19:22:40 2022.
