 Gaussian 16, Revision C.01,
 Gaussian 16:  ES64L-G16RevC.01  3-Jul-2019

 ----------------------------------------------------------------------
 # B3LYP/6-31G* empiricaldispersion=gd3 guess=read geom=check nosymm in
 tegral(ultrafinegrid)
 ----------------------------------------------------------------------

 ------------------------------------------------------
 Candidate Structure: Conf:961 Charge calc in gas phase
 ------------------------------------------------------
 Structure from the checkpoint file:  "conf-961.chk"
 Charge =  1 Multiplicity = 1

                          Input orientation:
 ---------------------------------------------------------------------
 Center     Atomic      Atomic             Coordinates (Angstroms)
 Number     Number       Type             X           Y           Z
 ---------------------------------------------------------------------
      1          7           0       -4.944813    1.207245    0.490461
      2          1           0       -5.457869    2.075455    0.201666
      3          1           0       -4.673366    0.743279   -0.396895
      4          1           0       -5.577124    0.602071    1.020930
      5          6           0       -3.656380    1.503503    1.220598
      6          1           0       -3.861101    2.300718    1.939052
      7          6           0       -2.710103    1.918382    0.078865
      8          6           0       -3.153973    0.211782    1.890151
      9          1           0       -3.832260   -0.044575    2.716394
     10          1           0       -3.220880   -0.587574    1.141290
     11          8           0       -2.761983    1.239047   -0.933705
     12          6           0       -1.701383    0.263958    2.406324
     13          1           0       -1.058163    0.461064    1.538912
     14          6           0       -1.487003    1.358703    3.460904
     15          1           0       -2.141491    1.205688    4.327775
     16          1           0       -1.675132    2.365239    3.070040
     17          1           0       -0.453477    1.346800    3.825595
     18          6           0       -1.311368   -1.112908    2.963534
     19          1           0       -1.927659   -1.382247    3.830013
     20          1           0       -1.428786   -1.897880    2.207937
     21          1           0       -0.265548   -1.115360    3.291792
     22          7           0       -1.883028    2.971471    0.309125
     23          1           0       -2.089833    3.562584    1.104542
     24          6           0       -1.056133    3.549933   -0.751303
     25          1           0       -0.911837    2.721286   -1.449340
     26          6           0        0.385934    3.838005   -0.306116
     27          6           0       -1.796381    4.681150   -1.512715
     28          1           0       -2.173223    5.432487   -0.808242
     29          1           0       -1.069700    5.188762   -2.154737
     30          8           0        1.074682    4.680996   -0.888532
     31          6           0       -2.893637    4.025423   -2.310945
     32          6           0       -2.625551    3.180331   -3.365071
     33          1           0       -1.697720    3.069111   -3.905655
     34          6           0       -4.243562    3.726716   -1.917912
     35          6           0       -4.691675    2.662210   -2.776111
     36          6           0       -5.110392    4.204034   -0.920227
     37          1           0       -4.807856    5.020938   -0.268471
     38          7           0       -3.681236    2.358908   -3.654335
     39          1           0       -3.492760    1.407952   -4.089048
     40          6           0       -6.808014    2.594644   -1.655216
     41          1           0       -7.811918    2.192553   -1.551522
     42          6           0       -5.963616    2.091910   -2.643867
     43          1           0       -6.280906    1.293429   -3.307940
     44          6           0       -6.385788    3.639968   -0.794339
     45          1           0       -7.081915    4.041736   -0.062187
     46          7           0        0.861815    3.012574    0.669875
     47          1           0        0.263407    2.201981    0.808381
     48          6           0        2.289432    2.702716    0.812811
     49          1           0        2.862913    3.560593    0.460606
     50          6           0        2.592071    1.528514   -0.152826
     51          6           0        2.616094    2.442911    2.282351
     52          1           0        1.899367    1.713451    2.705924
     53          1           0        2.476560    3.381211    2.837619
     54          8           0        2.904666    1.767411   -1.328591
     55          8           0        3.945643    1.966344    2.318558
     56          1           0        4.252689    1.941353    3.237408
     57          7           0        2.356677    0.263715    0.265527
     58          1           0        2.052987    0.151795    1.223622
     59          6           0        1.826198   -0.733743   -0.680677
     60          1           0        2.570018   -0.888232   -1.465994
     61          6           0        0.542400   -0.111634   -1.299835
     62          6           0        1.534136   -2.045340    0.047756
     63          1           0        1.144300   -2.787463   -0.654788
     64          1           0        0.776181   -1.893822    0.826125
     65          1           0        2.441813   -2.447129    0.508275
     66          8           0       -0.045938    0.764999   -0.642058
     67          7           0        0.181425   -0.479798   -2.529317
     68          1           0        0.507569   -1.345208   -2.951098
     69          6           0       -0.809676    0.249109   -3.334534
     70          1           0       -1.325383    0.929496   -2.662700
     71          6           0       -1.863651   -0.706569   -3.973677
     72          6           0       -0.068720    1.037173   -4.431623
     73          1           0        0.369918    0.333770   -5.151762
     74          1           0       -0.815687    1.607703   -4.993163
     75          8           0       -2.891413   -0.114624   -4.427632
     76          6           0        1.033312    1.937495   -3.854134
     77          1           0        0.685264    2.363831   -2.904645
     78          1           0        1.893818    1.315655   -3.585133
     79          6           0        1.484208    3.080268   -4.771126
     80          1           0        0.708873    3.857163   -4.820138
     81          1           0        1.620492    2.719463   -5.797915
     82          6           0        2.814806    3.703036   -4.345414
     83          1           0        3.643636    3.008217   -4.506080
     84          1           0        3.023683    4.627565   -4.889689
     85          7           0        2.840805    4.034242   -2.869738
     86          1           0        3.646681    4.619296   -2.633756
     87          1           0        2.000197    4.526552   -2.522851
     88          1           0        2.897026    3.171126   -2.262871
     89          8           0       -1.551178   -1.907223   -4.009867
 ---------------------------------------------------------------------

 SCF Done:  E(RB3LYP) =  -2042.59497685     A.U. after    3 cycles

 Alpha  occ. eigenvalues --  -19.25977 -19.24863 -19.24812 -19.24683 -19.20601
 Alpha  occ. eigenvalues --  -19.11496 -19.10770 -14.57321 -14.54824 -14.49562
 Alpha  occ. eigenvalues --  -14.47881 -14.47315 -14.43740 -14.42893 -10.42108
 Alpha  occ. eigenvalues --  -10.41599 -10.41296 -10.39063 -10.37616 -10.36019
 Alpha  occ. eigenvalues --  -10.35612 -10.35353 -10.34481 -10.33701 -10.32299
 Alpha  occ. eigenvalues --  -10.30848 -10.29950 -10.29811 -10.29594 -10.29484
 Alpha  occ. eigenvalues --  -10.29145 -10.29030 -10.28431 -10.28274 -10.28078
 Alpha  occ. eigenvalues --  -10.27765 -10.27598 -10.27572 -10.27406 -10.27184
 Alpha  occ. eigenvalues --  -10.26768 -10.26057 -10.25698  -1.17709  -1.16691
 Alpha  occ. eigenvalues --   -1.15807  -1.13499  -1.12327  -1.11832  -1.09950
 Alpha  occ. eigenvalues --   -1.06330  -1.04764  -1.04461  -1.04213  -1.03460
 Alpha  occ. eigenvalues --   -0.99797  -0.95892  -0.94202  -0.92546  -0.90686
 Alpha  occ. eigenvalues --   -0.90499  -0.88924  -0.87734  -0.86587  -0.84752
 Alpha  occ. eigenvalues --   -0.84481  -0.81873  -0.80727  -0.79815  -0.78949
 Alpha  occ. eigenvalues --   -0.78438  -0.76908  -0.75619  -0.74532  -0.72529
 Alpha  occ. eigenvalues --   -0.72092  -0.71995  -0.70942  -0.70551  -0.70362
 Alpha  occ. eigenvalues --   -0.69912  -0.68487  -0.67776  -0.67597  -0.67274
 Alpha  occ. eigenvalues --   -0.67157  -0.66172  -0.66011  -0.64879  -0.63539
 Alpha  occ. eigenvalues --   -0.62614  -0.61748  -0.61250  -0.60995  -0.60822
 Alpha  occ. eigenvalues --   -0.60162  -0.59413  -0.59048  -0.58727  -0.57973
 Alpha  occ. eigenvalues --   -0.57487  -0.56513  -0.56154  -0.55930  -0.55097
 Alpha  occ. eigenvalues --   -0.54999  -0.54864  -0.54528  -0.54020  -0.53506
 Alpha  occ. eigenvalues --   -0.53255  -0.53005  -0.52739  -0.52264  -0.51921
 Alpha  occ. eigenvalues --   -0.51749  -0.51348  -0.50943  -0.50691  -0.50361
 Alpha  occ. eigenvalues --   -0.49837  -0.49528  -0.49284  -0.49032  -0.48549
 Alpha  occ. eigenvalues --   -0.48382  -0.48088  -0.47875  -0.47627  -0.46917
 Alpha  occ. eigenvalues --   -0.46799  -0.46382  -0.45895  -0.45493  -0.45389
 Alpha  occ. eigenvalues --   -0.45061  -0.45001  -0.44497  -0.44210  -0.43854
 Alpha  occ. eigenvalues --   -0.43450  -0.42573  -0.42297  -0.41864  -0.41283
 Alpha  occ. eigenvalues --   -0.41024  -0.40678  -0.39882  -0.39231  -0.38696
 Alpha  occ. eigenvalues --   -0.38307  -0.37854  -0.37536  -0.36419  -0.35907
 Alpha  occ. eigenvalues --   -0.34709  -0.33683  -0.30978  -0.28317  -0.26765
 Alpha  occ. eigenvalues --   -0.25953  -0.25121
 Alpha virt. eigenvalues --   -0.12800  -0.11769  -0.10343  -0.09432  -0.07755
 Alpha virt. eigenvalues --   -0.07188  -0.06777  -0.06646  -0.06452  -0.05640
 Alpha virt. eigenvalues --   -0.03059  -0.02882  -0.02501  -0.01717  -0.00570

 Mulliken charges:
               1
     1  N   -0.759326
     2  H    0.410241
     3  H    0.430885
     4  H    0.400272
     5  C   -0.116768
     6  H    0.186045
     7  C    0.700527
     8  C   -0.275733
     9  H    0.158648
    10  H    0.182988
    11  O   -0.491707
    12  C   -0.128932
    13  H    0.177718
    14  C   -0.456601
    15  H    0.163951
    16  H    0.122543
    17  H    0.159843
    18  C   -0.453349
    19  H    0.160993
    20  H    0.168181
    21  H    0.147820
    22  N   -0.646454
    23  H    0.340471
    24  C   -0.088454
    25  H    0.261163
    26  C    0.616229
    27  C   -0.339448
    28  H    0.152412
    29  H    0.168968
    30  O   -0.570221
    31  C    0.029054
    32  C    0.020595
    33  H    0.145970
    34  C    0.081352
    35  C    0.309044
    36  C   -0.242688
    37  H    0.130008
    38  N   -0.663304
    39  H    0.411125
    40  C   -0.180786
    41  H    0.149140
    42  C   -0.187381
    43  H    0.175838
    44  C   -0.228879
    45  H    0.144396
    46  N   -0.596050
    47  H    0.393260
    48  C   -0.086047
    49  H    0.188972
    50  C    0.664380
    51  C   -0.046185
    52  H    0.116822
    53  H    0.166230
    54  O   -0.560382
    55  O   -0.609205
    56  H    0.417811
    57  N   -0.561442
    58  H    0.340342
    59  C   -0.050159
    60  H    0.191584
    61  C    0.626065
    62  C   -0.488656
    63  H    0.195832
    64  H    0.159243
    65  H    0.184368
    66  O   -0.589639
    67  N   -0.570081
    68  H    0.345374
    69  C   -0.130004
    70  H    0.206476
    71  C    0.604982
    72  C   -0.284230
    73  H    0.158861
    74  H    0.167128
    75  O   -0.617684
    76  C   -0.294479
    77  H    0.127099
    78  H    0.164792
    79  C   -0.290364
    80  H    0.161392
    81  H    0.187911
    82  C   -0.185024
    83  H    0.205183
    84  H    0.198598
    85  N   -0.791800
    86  H    0.394371
    87  H    0.424820
    88  H    0.453856
    89  O   -0.570714
 Sum of Mulliken charges =   1.00000

 Dipole moment (field-independent basis, Debye):
    X=              0.5684    Y=             15.7632    Z=              7.9995  Tot=             17.6860
 Quadrupole moment (field-independent basis, Debye-Ang):
   XX=           -164.0575   YY=           -206.7670   ZZ=           -233.1609
   XY=              7.9747   XZ=            -57.7907   YZ=            -31.4434

 Normal termination of Gaussian 16 at Thu Jun 23 19:25:35 2022.
