 Gaussian 16, Revision C.01,
 Gaussian 16:  ES64L-G16RevC.01  3-Jul-2019

 ----------------------------------------------------------------------
 # B3LYP/6-31G* empiricaldispersion=gd3 guess=read geom=check nosymm in
 tegral(ultrafinegrid)
 ----------------------------------------------------------------------

 -----------------------------------------------------
 Candidate Structure: Conf:34 Charge calc in gas phase
 -----------------------------------------------------
 Structure from the checkpoint file:  "conf-34.chk"
 Charge =  1 Multiplicity = 1

                          Input orientation:
 ---------------------------------------------------------------------
 Center     Atomic      Atomic             Coordinates (Angstroms)
 Number     Number       Type             X           Y           Z
 ---------------------------------------------------------------------
      1          7           0       -6.217074    1.506733    2.823512
      2          1           0       -6.557766    2.469615    2.751599
      3          1           0       -6.462245    0.991231    1.922309
      4          1           0       -6.645648    1.062938    3.640195
      5          6           0       -4.701701    1.402171    2.812799
      6          1           0       -4.287143    2.366668    3.110295
      7          6           0       -4.415815    1.067924    1.325390
      8          6           0       -4.268079    0.274164    3.768391
      9          1           0       -4.651507    0.517995    4.770625
     10          1           0       -4.760962   -0.652197    3.442721
     11          8           0       -5.361308    0.620417    0.654698
     12          6           0       -2.746250    0.029016    3.877950
     13          1           0       -2.360417   -0.256994    2.893355
     14          6           0       -1.983351    1.275723    4.348771
     15          1           0       -2.332596    1.602108    5.336802
     16          1           0       -2.078034    2.127599    3.662951
     17          1           0       -0.915037    1.054154    4.422541
     18          6           0       -2.500195   -1.149633    4.831687
     19          1           0       -2.847435   -0.917997    5.846607
     20          1           0       -3.015409   -2.055641    4.493232
     21          1           0       -1.430909   -1.375276    4.886397
     22          7           0       -3.175404    1.260777    0.902703
     23          1           0       -2.435414    1.532017    1.550959
     24          6           0       -2.622513    0.721389   -0.340738
     25          1           0       -3.312483   -0.029288   -0.730621
     26          6           0       -1.280878    0.087813    0.076964
     27          6           0       -2.407435    1.845640   -1.396339
     28          1           0       -3.398625    2.230668   -1.668902
     29          1           0       -1.857942    2.662186   -0.913242
     30          8           0       -0.663529    0.581303    1.039535
     31          6           0       -1.641672    1.332515   -2.574033
     32          6           0       -0.322329    1.589590   -2.852461
     33          1           0        0.358432    2.273007   -2.364954
     34          6           0       -2.049996    0.273745   -3.465828
     35          6           0       -0.913608   -0.060924   -4.253138
     36          6           0       -3.239152   -0.457855   -3.636598
     37          1           0       -4.129647   -0.211900   -3.061885
     38          7           0        0.111838    0.793914   -3.891925
     39          1           0        1.089103    0.571562   -4.031303
     40          6           0       -2.117980   -1.819036   -5.319533
     41          1           0       -2.163015   -2.644132   -6.023983
     42          6           0       -0.934347   -1.102066   -5.184847
     43          1           0       -0.054051   -1.348017   -5.771925
     44          6           0       -3.259942   -1.498369   -4.557803
     45          1           0       -4.168886   -2.076881   -4.695257
     46          7           0       -0.874011   -0.959400   -0.638969
     47          1           0       -1.370791   -1.231846   -1.486287
     48          6           0        0.450749   -1.577598   -0.510074
     49          1           0        0.729741   -1.644043    0.541836
     50          6           0        1.478702   -0.710432   -1.260478
     51          6           0        0.370225   -2.976708   -1.132394
     52          1           0       -0.274368   -3.608718   -0.514373
     53          1           0        1.374607   -3.406754   -1.146464
     54          8           0        1.883106   -0.995614   -2.391687
     55          8           0       -0.238086   -2.909496   -2.419977
     56          1           0        0.405466   -2.443146   -2.983016
     57          7           0        1.869899    0.421611   -0.619042
     58          1           0        1.496204    0.593776    0.307353
     59          6           0        2.977782    1.229539   -1.122834
     60          1           0        2.728244    1.609842   -2.119107
     61          6           0        4.254213    0.372634   -1.340777
     62          6           0        3.246042    2.398218   -0.173966
     63          1           0        4.070202    3.002226   -0.563473
     64          1           0        3.528248    2.032570    0.820138
     65          1           0        2.361335    3.038020   -0.072766
     66          8           0        5.024377    0.644881   -2.261948
     67          7           0        4.419064   -0.619993   -0.437577
     68          1           0        3.614753   -0.829789    0.168015
     69          6           0        4.973962   -1.930323   -0.781403
     70          1           0        4.851705   -2.086867   -1.862228
     71          6           0        4.064005   -3.012580   -0.061070
     72          6           0        6.446232   -2.104822   -0.423023
     73          1           0        6.600486   -1.801207    0.622058
     74          1           0        6.662490   -3.177018   -0.491048
     75          8           0        4.475667   -4.178607   -0.119831
     76          6           0        7.368777   -1.302656   -1.344902
     77          1           0        7.204020   -1.621988   -2.383113
     78          1           0        7.100224   -0.240976   -1.316148
     79          6           0        8.850914   -1.494399   -0.986423
     80          1           0        9.103272   -2.564390   -1.021645
     81          1           0        9.033112   -1.147569    0.041172
     82          6           0        9.728322   -0.723948   -1.955584
     83          1           0        9.606753   -1.060849   -2.987926
     84          1           0        9.559245    0.354567   -1.909532
     85          7           0       11.216372   -0.934225   -1.619606
     86          1           0       11.845043   -0.429926   -2.256077
     87          1           0       11.414351   -0.620816   -0.661950
     88          1           0       11.452905   -1.932749   -1.663895
     89          8           0        3.005952   -2.542729    0.467132
 ---------------------------------------------------------------------

 SCF Done:  E(RB3LYP) =  -2042.53988069     A.U. after    2 cycles

 Alpha  occ. eigenvalues --  -19.25372 -19.19555 -19.17003 -19.16592 -19.13750
 Alpha  occ. eigenvalues --  -19.07939 -19.06737 -14.62175 -14.58966 -14.47886
 Alpha  occ. eigenvalues --  -14.42594 -14.41980 -14.40334 -14.35484 -10.42060
 Alpha  occ. eigenvalues --  -10.39436 -10.38478 -10.36279 -10.33291 -10.32168
 Alpha  occ. eigenvalues --  -10.32148 -10.30560 -10.30073 -10.29356 -10.27438
 Alpha  occ. eigenvalues --  -10.27043 -10.26985 -10.26941 -10.26880 -10.26352
 Alpha  occ. eigenvalues --  -10.25944 -10.25648 -10.25520 -10.24599 -10.23796
 Alpha  occ. eigenvalues --  -10.23531 -10.23426 -10.23264 -10.23203 -10.22765
 Alpha  occ. eigenvalues --  -10.22610 -10.22343 -10.21242  -1.17878  -1.15978
 Alpha  occ. eigenvalues --   -1.12685  -1.11131  -1.08370  -1.05072  -1.04580
 Alpha  occ. eigenvalues --   -1.04261  -1.02374  -1.00666  -0.98980  -0.97006
 Alpha  occ. eigenvalues --   -0.93452  -0.93310  -0.91699  -0.91302  -0.88807
 Alpha  occ. eigenvalues --   -0.88046  -0.86507  -0.83187  -0.82762  -0.81785
 Alpha  occ. eigenvalues --   -0.79399  -0.78890  -0.77950  -0.77328  -0.77089
 Alpha  occ. eigenvalues --   -0.76739  -0.74644  -0.74205  -0.73750  -0.72700
 Alpha  occ. eigenvalues --   -0.71929  -0.70537  -0.70019  -0.68754  -0.67502
 Alpha  occ. eigenvalues --   -0.66715  -0.66402  -0.65783  -0.64496  -0.63999
 Alpha  occ. eigenvalues --   -0.63661  -0.62704  -0.61918  -0.61889  -0.61343
 Alpha  occ. eigenvalues --   -0.59192  -0.59126  -0.58341  -0.58094  -0.57848
 Alpha  occ. eigenvalues --   -0.56174  -0.55907  -0.54991  -0.54753  -0.54280
 Alpha  occ. eigenvalues --   -0.53301  -0.53177  -0.52968  -0.52530  -0.52334
 Alpha  occ. eigenvalues --   -0.52191  -0.51683  -0.51413  -0.50322  -0.50146
 Alpha  occ. eigenvalues --   -0.49499  -0.49207  -0.48226  -0.48040  -0.47767
 Alpha  occ. eigenvalues --   -0.47632  -0.47277  -0.47149  -0.46473  -0.46445
 Alpha  occ. eigenvalues --   -0.46061  -0.45890  -0.45753  -0.45390  -0.45199
 Alpha  occ. eigenvalues --   -0.44376  -0.44181  -0.43575  -0.43310  -0.43300
 Alpha  occ. eigenvalues --   -0.42944  -0.42857  -0.42679  -0.42419  -0.42059
 Alpha  occ. eigenvalues --   -0.41885  -0.41223  -0.40008  -0.39950  -0.39726
 Alpha  occ. eigenvalues --   -0.38397  -0.38262  -0.38160  -0.37692  -0.37535
 Alpha  occ. eigenvalues --   -0.37385  -0.36547  -0.36383  -0.34548  -0.34200
 Alpha  occ. eigenvalues --   -0.33690  -0.32194  -0.31222  -0.30386  -0.28880
 Alpha  occ. eigenvalues --   -0.27634  -0.26849  -0.26797  -0.25098  -0.23050
 Alpha  occ. eigenvalues --   -0.22752  -0.20870
 Alpha virt. eigenvalues --   -0.12874  -0.10969  -0.09981  -0.06199  -0.06185
 Alpha virt. eigenvalues --   -0.06035  -0.05444  -0.05292  -0.03595  -0.03040
 Alpha virt. eigenvalues --   -0.02530  -0.02171  -0.00673  -0.00591   0.00032

 Mulliken charges:
               1
     1  N   -0.755485
     2  H    0.414168
     3  H    0.432056
     4  H    0.411331
     5  C   -0.120806
     6  H    0.211083
     7  C    0.643332
     8  C   -0.284746
     9  H    0.159118
    10  H    0.173948
    11  O   -0.541803
    12  C   -0.108600
    13  H    0.173517
    14  C   -0.457770
    15  H    0.150473
    16  H    0.129946
    17  H    0.192185
    18  C   -0.452087
    19  H    0.149393
    20  H    0.158625
    21  H    0.181251
    22  N   -0.594682
    23  H    0.380524
    24  C   -0.079524
    25  H    0.199122
    26  C    0.643667
    27  C   -0.339777
    28  H    0.163559
    29  H    0.151922
    30  O   -0.590487
    31  C    0.047202
    32  C    0.003944
    33  H    0.156251
    34  C    0.054326
    35  C    0.303769
    36  C   -0.228194
    37  H    0.121197
    38  N   -0.663169
    39  H    0.358478
    40  C   -0.134825
    41  H    0.137987
    42  C   -0.171313
    43  H    0.141956
    44  C   -0.129168
    45  H    0.129737
    46  N   -0.592790
    47  H    0.378919
    48  C   -0.090631
    49  H    0.208384
    50  C    0.672254
    51  C   -0.066471
    52  H    0.143740
    53  H    0.211761
    54  O   -0.567568
    55  O   -0.645424
    56  H    0.417405
    57  N   -0.636534
    58  H    0.356420
    59  C   -0.006781
    60  H    0.155251
    61  C    0.593588
    62  C   -0.484067
    63  H    0.175000
    64  H    0.161560
    65  H    0.149344
    66  O   -0.558822
    67  N   -0.604553
    68  H    0.347314
    69  C   -0.073755
    70  H    0.150882
    71  C    0.591311
    72  C   -0.253181
    73  H    0.124211
    74  H    0.166142
    75  O   -0.574467
    76  C   -0.270269
    77  H    0.148603
    78  H    0.179793
    79  C   -0.290763
    80  H    0.161037
    81  H    0.157037
    82  C   -0.205862
    83  H    0.226517
    84  H    0.227589
    85  N   -0.731808
    86  H    0.423185
    87  H    0.422229
    88  H    0.423736
    89  O   -0.641098
 Sum of Mulliken charges =   1.00000

 Dipole moment (field-independent basis, Debye):
    X=             13.8417    Y=             11.1092    Z=              7.0046  Tot=             19.0806
 Quadrupole moment (field-independent basis, Debye-Ang):
   XX=            308.2494   YY=           -272.2857   ZZ=           -202.6559
   XY=            -37.7121   XZ=           -133.6666   YZ=             27.6765

 Normal termination of Gaussian 16 at Thu Jun 23 19:21:33 2022.
