 Gaussian 16, Revision C.01,
 Gaussian 16:  ES64L-G16RevC.01  3-Jul-2019

 ----------------------------------------------------------------------
 # B3LYP/6-31G* empiricaldispersion=gd3 guess=read geom=check nosymm in
 tegral(ultrafinegrid)
 ----------------------------------------------------------------------

 ------------------------------------------------------
 Candidate Structure: Conf:472 Charge calc in gas phase
 ------------------------------------------------------
 Structure from the checkpoint file:  "conf-472.chk"
 Charge =  1 Multiplicity = 1

                          Input orientation:
 ---------------------------------------------------------------------
 Center     Atomic      Atomic             Coordinates (Angstroms)
 Number     Number       Type             X           Y           Z
 ---------------------------------------------------------------------
      1          7           0        0.982727    1.824868    1.302506
      2          1           0        1.232994    1.255919    0.386709
      3          1           0        0.480175    2.694339    1.100547
      4          1           0        1.877147    2.002518    1.763946
      5          6           0        0.115108    0.922329    2.139892
      6          1           0        0.695005    0.005104    2.250264
      7          6           0       -1.125509    0.718768    1.256359
      8          6           0       -0.225573    1.543078    3.492906
      9          1           0       -0.883182    2.404157    3.320514
     10          1           0       -0.822471    0.801564    4.041140
     11          8           0       -1.821130    1.694304    0.966111
     12          6           0        0.984285    1.952013    4.357430
     13          1           0        1.522929    2.763271    3.839764
     14          6           0        0.488214    2.523420    5.693410
     15          1           0       -0.039945    1.753818    6.269926
     16          1           0       -0.201564    3.361550    5.541505
     17          1           0        1.326305    2.879897    6.301902
     18          6           0        1.964715    0.789626    4.582519
     19          1           0        1.450927   -0.057113    5.055946
     20          1           0        2.420609    0.428787    3.653067
     21          1           0        2.775709    1.098258    5.251444
     22          7           0       -1.297964   -0.529535    0.793766
     23          1           0       -0.605012   -1.249700    0.979655
     24          6           0       -2.175411   -0.859501   -0.314751
     25          1           0       -3.210848   -0.608632   -0.065032
     26          6           0       -1.991542   -2.361235   -0.558369
     27          6           0       -1.759152   -0.093870   -1.621267
     28          1           0       -1.532270    0.932547   -1.321211
     29          1           0       -0.827173   -0.532942   -1.990734
     30          8           0       -1.042166   -2.969774   -0.039355
     31          6           0       -2.831948   -0.077004   -2.663115
     32          6           0       -2.894261   -0.770907   -3.851195
     33          1           0       -2.197280   -1.473956   -4.286771
     34          6           0       -4.058115    0.675746   -2.559162
     35          6           0       -4.824282    0.395140   -3.721501
     36          6           0       -4.567312    1.556138   -1.587818
     37          1           0       -3.985642    1.786689   -0.698036
     38          7           0       -4.090332   -0.493368   -4.485904
     39          1           0       -4.359484   -0.850060   -5.389741
     40          6           0       -6.563902    1.833787   -2.962422
     41          1           0       -7.537173    2.296679   -3.098438
     42          6           0       -6.081091    0.969289   -3.938837
     43          1           0       -6.657722    0.749580   -4.833218
     44          6           0       -5.816809    2.124692   -1.800601
     45          1           0       -6.229175    2.807966   -1.063635
     46          7           0       -2.830361   -2.914039   -1.452096
     47          1           0       -3.513531   -2.309467   -1.893202
     48          6           0       -2.557243   -4.192609   -2.116548
     49          1           0       -2.244907   -4.902496   -1.344749
     50          6           0       -1.423596   -3.995636   -3.160669
     51          6           0       -3.819346   -4.702403   -2.799316
     52          1           0       -3.578180   -5.647592   -3.305774
     53          1           0       -4.119299   -3.985738   -3.579412
     54          8           0       -1.645714   -3.983521   -4.370081
     55          8           0       -4.809499   -4.853858   -1.795260
     56          1           0       -5.617651   -5.181929   -2.217202
     57          7           0       -0.208777   -3.779835   -2.599816
     58          1           0       -0.162370   -3.796512   -1.583951
     59          6           0        1.012624   -3.452694   -3.344454
     60          1           0        1.303084   -4.324137   -3.941760
     61          6           0        2.102729   -3.307307   -2.262661
     62          6           0        0.844423   -2.243434   -4.273436
     63          1           0        1.807979   -1.965486   -4.713404
     64          1           0        0.441142   -1.374985   -3.740460
     65          1           0        0.146573   -2.494943   -5.072975
     66          8           0        2.664628   -4.301557   -1.809524
     67          7           0        2.351524   -2.046443   -1.814421
     68          1           0        1.734092   -1.284798   -2.076930
     69          6           0        3.040253   -1.801796   -0.552864
     70          1           0        2.813927   -2.627693    0.133633
     71          6           0        2.501382   -0.501145    0.096154
     72          6           0        4.570992   -1.698753   -0.687316
     73          1           0        4.791037   -0.892918   -1.403329
     74          1           0        4.947033   -1.377482    0.291743
     75          8           0        2.984638   -0.167074    1.195202
     76          6           0        5.248649   -3.007633   -1.111756
     77          1           0        4.879930   -3.829448   -0.492215
     78          1           0        4.968234   -3.275470   -2.135518
     79          6           0        6.783670   -2.969737   -0.986591
     80          1           0        7.191484   -3.961094   -1.229996
     81          1           0        7.063987   -2.740724    0.051636
     82          6           0        7.397586   -1.932223   -1.915486
     83          1           0        7.159767   -2.120925   -2.965511
     84          1           0        7.109749   -0.910631   -1.660768
     85          7           0        8.928743   -1.972074   -1.815491
     86          1           0        9.382786   -1.285085   -2.429605
     87          1           0        9.232628   -1.783120   -0.852328
     88          1           0        9.284596   -2.902870   -2.066114
     89          8           0        1.594760    0.130275   -0.555339
 ---------------------------------------------------------------------

 SCF Done:  E(RB3LYP) =  -2042.59970438     A.U. after    2 cycles

 Alpha  occ. eigenvalues --  -19.20257 -19.19520 -19.19374 -19.18675 -19.18119
 Alpha  occ. eigenvalues --  -19.17780 -19.16961 -14.64794 -14.49803 -14.43313
 Alpha  occ. eigenvalues --  -14.43246 -14.43218 -14.42243 -14.41780 -10.41357
 Alpha  occ. eigenvalues --  -10.36484 -10.36222 -10.35490 -10.35271 -10.34904
 Alpha  occ. eigenvalues --  -10.33550 -10.32368 -10.30457 -10.29891 -10.29798
 Alpha  occ. eigenvalues --  -10.29727 -10.29434 -10.28817 -10.27624 -10.27203
 Alpha  occ. eigenvalues --  -10.26760 -10.26713 -10.26549 -10.25545 -10.24571
 Alpha  occ. eigenvalues --  -10.23850 -10.23815 -10.23701 -10.23559 -10.23143
 Alpha  occ. eigenvalues --  -10.22991 -10.22895 -10.22489  -1.18629  -1.11887
 Alpha  occ. eigenvalues --   -1.11395  -1.10992  -1.10057  -1.09314  -1.07682
 Alpha  occ. eigenvalues --   -1.04923  -1.02991  -1.02139  -1.00205  -0.99749
 Alpha  occ. eigenvalues --   -0.98919  -0.98090  -0.94737  -0.88742  -0.88484
 Alpha  occ. eigenvalues --   -0.87304  -0.86780  -0.84425  -0.83271  -0.82418
 Alpha  occ. eigenvalues --   -0.81249  -0.80064  -0.78114  -0.77704  -0.77239
 Alpha  occ. eigenvalues --   -0.76915  -0.74919  -0.74381  -0.74046  -0.73081
 Alpha  occ. eigenvalues --   -0.71979  -0.69362  -0.68249  -0.67052  -0.66760
 Alpha  occ. eigenvalues --   -0.66628  -0.66028  -0.64998  -0.64709  -0.64109
 Alpha  occ. eigenvalues --   -0.63656  -0.63538  -0.63318  -0.61755  -0.61509
 Alpha  occ. eigenvalues --   -0.61098  -0.59708  -0.59098  -0.58424  -0.57157
 Alpha  occ. eigenvalues --   -0.56692  -0.56029  -0.55585  -0.55414  -0.55131
 Alpha  occ. eigenvalues --   -0.54349  -0.53484  -0.53312  -0.52884  -0.52392
 Alpha  occ. eigenvalues --   -0.52293  -0.52099  -0.51799  -0.51330  -0.50624
 Alpha  occ. eigenvalues --   -0.50113  -0.49838  -0.49580  -0.49285  -0.48962
 Alpha  occ. eigenvalues --   -0.48338  -0.48247  -0.48033  -0.47624  -0.47382
 Alpha  occ. eigenvalues --   -0.47142  -0.46921  -0.46601  -0.46145  -0.45868
 Alpha  occ. eigenvalues --   -0.45642  -0.45354  -0.45205  -0.45002  -0.44842
 Alpha  occ. eigenvalues --   -0.44627  -0.44188  -0.43921  -0.43837  -0.43541
 Alpha  occ. eigenvalues --   -0.43147  -0.43041  -0.42480  -0.41961  -0.41164
 Alpha  occ. eigenvalues --   -0.39864  -0.39822  -0.39734  -0.39562  -0.39469
 Alpha  occ. eigenvalues --   -0.38058  -0.37924  -0.35068  -0.34088  -0.33856
 Alpha  occ. eigenvalues --   -0.33553  -0.33412  -0.32948  -0.32866  -0.32690
 Alpha  occ. eigenvalues --   -0.31772  -0.31722  -0.31355  -0.30698  -0.30092
 Alpha  occ. eigenvalues --   -0.27050  -0.25302
 Alpha virt. eigenvalues --   -0.15241  -0.08607  -0.08496  -0.06745  -0.06245
 Alpha virt. eigenvalues --   -0.05939  -0.05822  -0.04826  -0.03509  -0.02857
 Alpha virt. eigenvalues --   -0.02293  -0.02077  -0.01674  -0.01024   0.00464

 Mulliken charges:
               1
     1  N   -0.759592
     2  H    0.442300
     3  H    0.381637
     4  H    0.392024
     5  C   -0.111680
     6  H    0.203748
     7  C    0.636658
     8  C   -0.267104
     9  H    0.170342
    10  H    0.165563
    11  O   -0.536960
    12  C   -0.092665
    13  H    0.107634
    14  C   -0.443569
    15  H    0.153557
    16  H    0.152069
    17  H    0.154215
    18  C   -0.479257
    19  H    0.149819
    20  H    0.179152
    21  H    0.152736
    22  N   -0.605807
    23  H    0.363838
    24  C   -0.044602
    25  H    0.197655
    26  C    0.625413
    27  C   -0.376714
    28  H    0.188893
    29  H    0.162348
    30  O   -0.572788
    31  C    0.014866
    32  C   -0.029264
    33  H    0.185147
    34  C    0.080668
    35  C    0.310361
    36  C   -0.222661
    37  H    0.161462
    38  N   -0.691213
    39  H    0.335905
    40  C   -0.147862
    41  H    0.134400
    42  C   -0.163035
    43  H    0.130905
    44  C   -0.144457
    45  H    0.131561
    46  N   -0.579179
    47  H    0.363387
    48  C   -0.081808
    49  H    0.197638
    50  C    0.636964
    51  C   -0.048398
    52  H    0.155029
    53  H    0.142194
    54  O   -0.543319
    55  O   -0.616723
    56  H    0.405237
    57  N   -0.651074
    58  H    0.389291
    59  C    0.027521
    60  H    0.178694
    61  C    0.536097
    62  C   -0.490782
    63  H    0.147927
    64  H    0.154733
    65  H    0.203289
    66  O   -0.522505
    67  N   -0.610859
    68  H    0.364351
    69  C   -0.038576
    70  H    0.182881
    71  C    0.600467
    72  C   -0.275153
    73  H    0.122843
    74  H    0.165290
    75  O   -0.586416
    76  C   -0.262762
    77  H    0.196246
    78  H    0.168557
    79  C   -0.299357
    80  H    0.164781
    81  H    0.165248
    82  C   -0.204509
    83  H    0.227035
    84  H    0.231904
    85  N   -0.731536
    86  H    0.429193
    87  H    0.426487
    88  H    0.426121
    89  O   -0.642096
 Sum of Mulliken charges =   1.00000

 Dipole moment (field-independent basis, Debye):
    X=             31.5131    Y=             -4.6938    Z=             -7.3393  Tot=             32.6951
 Quadrupole moment (field-independent basis, Debye-Ang):
   XX=             91.2006   YY=           -237.1988   ZZ=           -209.2021
   XY=            -47.2229   XZ=            -43.5446   YZ=             28.1817

 Normal termination of Gaussian 16 at Thu Jun 23 19:22:34 2022.
