 Gaussian 16, Revision C.01,
 Gaussian 16:  ES64L-G16RevC.01  3-Jul-2019

 ----------------------------------------------------------------------
 # B3LYP/6-31G* empiricaldispersion=gd3 guess=read geom=check nosymm in
 tegral(ultrafinegrid)
 ----------------------------------------------------------------------

 -----------------------------------------------------
 Candidate Structure: Conf:18 Charge calc in gas phase
 -----------------------------------------------------
 Structure from the checkpoint file:  "conf-18.chk"
 Charge =  1 Multiplicity = 1

                          Input orientation:
 ---------------------------------------------------------------------
 Center     Atomic      Atomic             Coordinates (Angstroms)
 Number     Number       Type             X           Y           Z
 ---------------------------------------------------------------------
      1          7           0       -6.357426    2.152820    2.612224
      2          1           0       -6.688019    2.689584    1.785712
      3          1           0       -6.491732    1.136048    2.409651
      4          1           0       -6.891820    2.438194    3.436478
      5          6           0       -4.862292    2.286046    2.798031
      6          1           0       -4.581676    3.270080    2.422147
      7          6           0       -4.321549    1.149570    1.899370
      8          6           0       -4.486567    2.095399    4.272415
      9          1           0       -5.013750    2.853234    4.870869
     10          1           0       -4.849481    1.109540    4.592473
     11          8           0       -5.022709    0.138997    1.772675
     12          6           0       -2.972280    2.203659    4.558809
     13          1           0       -2.455513    1.445232    3.955812
     14          6           0       -2.404468    3.583254    4.191307
     15          1           0       -2.915914    4.378077    4.749004
     16          1           0       -2.489444    3.816317    3.122950
     17          1           0       -1.339574    3.633445    4.436834
     18          6           0       -2.713726    1.888179    6.039080
     19          1           0       -3.204982    2.622992    6.689147
     20          1           0       -3.085789    0.893453    6.309749
     21          1           0       -1.641236    1.917030    6.255980
     22          7           0       -3.149309    1.378712    1.311884
     23          1           0       -2.564347    2.175267    1.562524
     24          6           0       -2.527632    0.521281    0.315140
     25          1           0       -2.769951   -0.521217    0.539368
     26          6           0       -1.015185    0.802347    0.422548
     27          6           0       -3.026038    0.881578   -1.122647
     28          1           0       -2.630087    1.872339   -1.377484
     29          1           0       -2.575415    0.173499   -1.826809
     30          8           0       -0.621936    1.808779    1.019648
     31          6           0       -4.520307    0.871689   -1.233467
     32          6           0       -5.314789   -0.198596   -1.561022
     33          1           0       -5.031226   -1.186045   -1.898670
     34          6           0       -5.414822    1.933966   -0.849623
     35          6           0       -6.743972    1.421795   -0.940477
     36          6           0       -5.228023    3.257723   -0.415725
     37          1           0       -4.228799    3.680842   -0.361417
     38          7           0       -6.644896    0.123605   -1.383423
     39          1           0       -7.422179   -0.479377   -1.607546
     40          6           0       -7.647299    3.484589   -0.138325
     41          1           0       -8.497548    4.108305    0.122361
     42          6           0       -7.864105    2.180733   -0.586267
     43          1           0       -8.869120    1.775751   -0.664905
     44          6           0       -6.338708    4.022227   -0.061137
     45          1           0       -6.205827    5.053632    0.253503
     46          7           0       -0.224799   -0.068051   -0.221921
     47          1           0       -0.613290   -0.819100   -0.790840
     48          6           0        1.176402    0.182113   -0.517088
     49          1           0        1.350690    1.261339   -0.564294
     50          6           0        1.455192   -0.497755   -1.862677
     51          6           0        2.117923   -0.408625    0.572400
     52          1           0        1.919406   -1.489362    0.648711
     53          1           0        1.844740    0.058396    1.525321
     54          8           0        0.688663   -1.361828   -2.296144
     55          8           0        3.469257   -0.126907    0.310023
     56          1           0        3.817574   -0.821504   -0.303987
     57          7           0        2.594472   -0.097524   -2.470502
     58          1           0        3.208340    0.475405   -1.899974
     59          6           0        3.262171   -0.937289   -3.455222
     60          1           0        2.484036   -1.416942   -4.054644
     61          6           0        4.091123   -2.036025   -2.742952
     62          6           0        4.175108   -0.085693   -4.351150
     63          1           0        4.704015   -0.711687   -5.076013
     64          1           0        4.930073    0.430184   -3.744740
     65          1           0        3.586669    0.665862   -4.885885
     66          8           0        4.303375   -2.008317   -1.511484
     67          7           0        4.583076   -2.952246   -3.572975
     68          1           0        4.512488   -2.817647   -4.602958
     69          6           0        5.825987   -3.696936   -3.391923
     70          1           0        6.529070   -3.084842   -2.810922
     71          6           0        6.430906   -3.864926   -4.863895
     72          6           0        5.679771   -5.055952   -2.719711
     73          1           0        4.855160   -5.608218   -3.191041
     74          1           0        6.608108   -5.593556   -2.947761
     75          8           0        7.438621   -4.584171   -4.928044
     76          6           0        5.466662   -4.980738   -1.204574
     77          1           0        6.250277   -4.349894   -0.763061
     78          1           0        4.515449   -4.490403   -0.969468
     79          6           0        5.532196   -6.381305   -0.572278
     80          1           0        6.480586   -6.857076   -0.862397
     81          1           0        4.718746   -7.008054   -0.965261
     82          6           0        5.443498   -6.304200    0.939973
     83          1           0        6.240286   -5.695154    1.374012
     84          1           0        4.477309   -5.935348    1.292665
     85          7           0        5.611564   -7.707803    1.552279
     86          1           0        5.563894   -7.707947    2.578097
     87          1           0        4.885413   -8.341923    1.198378
     88          1           0        6.517234   -8.106552    1.276119
     89          8           0        5.789486   -3.237209   -5.753213
 ---------------------------------------------------------------------

 SCF Done:  E(RB3LYP) =  -2042.53842086     A.U. after    1 cycles

 Alpha  occ. eigenvalues --  -19.24453 -19.20629 -19.18085 -19.17950 -19.15861
 Alpha  occ. eigenvalues --  -19.06659 -19.05572 -14.62483 -14.57557 -14.47939
 Alpha  occ. eigenvalues --  -14.47712 -14.44060 -14.41084 -14.36503 -10.41538
 Alpha  occ. eigenvalues --  -10.38875 -10.38305 -10.37673 -10.34612 -10.33633
 Alpha  occ. eigenvalues --  -10.32411 -10.31850 -10.31793 -10.31655 -10.30305
 Alpha  occ. eigenvalues --  -10.29956 -10.29809 -10.29444 -10.29396 -10.29376
 Alpha  occ. eigenvalues --  -10.29371 -10.29153 -10.29051 -10.28838 -10.27889
 Alpha  occ. eigenvalues --  -10.27350 -10.27302 -10.26722 -10.25031 -10.24552
 Alpha  occ. eigenvalues --  -10.22186 -10.21791 -10.21228  -1.16996  -1.16286
 Alpha  occ. eigenvalues --   -1.12617  -1.11675  -1.09738  -1.07933  -1.06685
 Alpha  occ. eigenvalues --   -1.05616  -1.04537  -1.00607  -0.99690  -0.97910
 Alpha  occ. eigenvalues --   -0.94639  -0.93997  -0.93421  -0.91830  -0.90908
 Alpha  occ. eigenvalues --   -0.90594  -0.87789  -0.85771  -0.84137  -0.83518
 Alpha  occ. eigenvalues --   -0.82980  -0.81913  -0.79894  -0.78942  -0.77824
 Alpha  occ. eigenvalues --   -0.77165  -0.75967  -0.74932  -0.74435  -0.72652
 Alpha  occ. eigenvalues --   -0.71877  -0.71562  -0.70657  -0.70244  -0.69744
 Alpha  occ. eigenvalues --   -0.69521  -0.68328  -0.66859  -0.66204  -0.66090
 Alpha  occ. eigenvalues --   -0.65079  -0.64362  -0.63806  -0.63158  -0.62397
 Alpha  occ. eigenvalues --   -0.61239  -0.60108  -0.59480  -0.59233  -0.59008
 Alpha  occ. eigenvalues --   -0.58084  -0.57566  -0.57384  -0.56707  -0.56462
 Alpha  occ. eigenvalues --   -0.55636  -0.54092  -0.53832  -0.53702  -0.53568
 Alpha  occ. eigenvalues --   -0.53156  -0.52925  -0.52622  -0.52463  -0.52025
 Alpha  occ. eigenvalues --   -0.51979  -0.51451  -0.50776  -0.50536  -0.49458
 Alpha  occ. eigenvalues --   -0.49167  -0.48993  -0.48933  -0.48666  -0.48191
 Alpha  occ. eigenvalues --   -0.48123  -0.47470  -0.47176  -0.46917  -0.46763
 Alpha  occ. eigenvalues --   -0.46127  -0.45802  -0.45098  -0.44889  -0.44399
 Alpha  occ. eigenvalues --   -0.44320  -0.43615  -0.43568  -0.43444  -0.43324
 Alpha  occ. eigenvalues --   -0.43083  -0.42756  -0.42406  -0.41749  -0.41012
 Alpha  occ. eigenvalues --   -0.40068  -0.39152  -0.38479  -0.38084  -0.38035
 Alpha  occ. eigenvalues --   -0.37521  -0.37263  -0.36879  -0.35955  -0.35208
 Alpha  occ. eigenvalues --   -0.34818  -0.34028  -0.33060  -0.32272  -0.31733
 Alpha  occ. eigenvalues --   -0.30772  -0.30222  -0.29267  -0.28112  -0.21718
 Alpha  occ. eigenvalues --   -0.21515  -0.19868
 Alpha virt. eigenvalues --   -0.13172  -0.11917  -0.10990  -0.08468  -0.07591
 Alpha virt. eigenvalues --   -0.06651  -0.06538  -0.06305  -0.04033  -0.03656
 Alpha virt. eigenvalues --   -0.03507  -0.02833  -0.02255  -0.01520  -0.00975

 Mulliken charges:
               1
     1  N   -0.767857
     2  H    0.421150
     3  H    0.418006
     4  H    0.398817
     5  C   -0.107592
     6  H    0.200796
     7  C    0.663827
     8  C   -0.281347
     9  H    0.155146
    10  H    0.169461
    11  O   -0.547998
    12  C   -0.099124
    13  H    0.156811
    14  C   -0.458635
    15  H    0.153804
    16  H    0.138531
    17  H    0.185236
    18  C   -0.449484
    19  H    0.153778
    20  H    0.153686
    21  H    0.170406
    22  N   -0.610028
    23  H    0.377956
    24  C   -0.064500
    25  H    0.189470
    26  C    0.628663
    27  C   -0.368627
    28  H    0.173503
    29  H    0.183105
    30  O   -0.545071
    31  C    0.083373
    32  C    0.033470
    33  H    0.177920
    34  C    0.063721
    35  C    0.326783
    36  C   -0.221656
    37  H    0.147718
    38  N   -0.683030
    39  H    0.346514
    40  C   -0.204345
    41  H    0.156473
    42  C   -0.171214
    43  H    0.155192
    44  C   -0.194150
    45  H    0.152424
    46  N   -0.613326
    47  H    0.356974
    48  C   -0.079143
    49  H    0.187242
    50  C    0.600904
    51  C   -0.023564
    52  H    0.123895
    53  H    0.154892
    54  O   -0.548205
    55  O   -0.656598
    56  H    0.443643
    57  N   -0.578131
    58  H    0.340750
    59  C   -0.083227
    60  H    0.195000
    61  C    0.619648
    62  C   -0.473838
    63  H    0.213409
    64  H    0.150961
    65  H    0.161184
    66  O   -0.598897
    67  N   -0.588845
    68  H    0.367671
    69  C   -0.081269
    70  H    0.140025
    71  C    0.589237
    72  C   -0.258967
    73  H    0.131463
    74  H    0.170989
    75  O   -0.579408
    76  C   -0.266445
    77  H    0.148297
    78  H    0.169935
    79  C   -0.291367
    80  H    0.164401
    81  H    0.160106
    82  C   -0.205514
    83  H    0.226659
    84  H    0.221547
    85  N   -0.731294
    86  H    0.421646
    87  H    0.422213
    88  H    0.425450
    89  O   -0.611185
 Sum of Mulliken charges =   1.00000

 Dipole moment (field-independent basis, Debye):
    X=            -19.9587    Y=            -11.6775    Z=             26.9587  Tot=             35.5174
 Quadrupole moment (field-independent basis, Debye-Ang):
   XX=            -99.0406   YY=            -37.0406   ZZ=           -284.9877
   XY=           -138.1387   XZ=             86.2236   YZ=            -82.7881

 Normal termination of Gaussian 16 at Thu Jun 23 19:21:19 2022.
