 Gaussian 16, Revision C.01,
 Gaussian 16:  ES64L-G16RevC.01  3-Jul-2019

 ----------------------------------------------------------------------
 # B3LYP/6-31G* empiricaldispersion=gd3 guess=read geom=check nosymm in
 tegral(ultrafinegrid)
 ----------------------------------------------------------------------

 ------------------------------------------------------
 Candidate Structure: Conf:746 Charge calc in gas phase
 ------------------------------------------------------
 Structure from the checkpoint file:  "conf-746.chk"
 Charge =  1 Multiplicity = 1

                          Input orientation:
 ---------------------------------------------------------------------
 Center     Atomic      Atomic             Coordinates (Angstroms)
 Number     Number       Type             X           Y           Z
 ---------------------------------------------------------------------
      1          7           0       -5.673347    4.693742    2.640540
      2          1           0       -6.084889    5.242797    1.880238
      3          1           0       -6.096499    3.718323    2.621925
      4          1           0       -5.863992    5.166561    3.528453
      5          6           0       -4.198641    4.390578    2.431755
      6          1           0       -3.805818    5.096583    1.698361
      7          6           0       -4.240502    2.942919    1.876556
      8          6           0       -3.459098    4.504604    3.777772
      9          1           0       -3.630839    5.518977    4.167585
     10          1           0       -3.920752    3.798485    4.481687
     11          8           0       -5.288602    2.294424    2.038136
     12          6           0       -1.933365    4.259976    3.731921
     13          1           0       -1.750195    3.232550    3.396286
     14          6           0       -1.214326    5.218954    2.771389
     15          1           0       -1.383052    6.264354    3.059512
     16          1           0       -1.527472    5.103804    1.726002
     17          1           0       -0.136905    5.033129    2.792058
     18          6           0       -1.369025    4.392454    5.154602
     19          1           0       -1.504405    5.410412    5.540766
     20          1           0       -1.855399    3.697505    5.848635
     21          1           0       -0.296712    4.174562    5.158677
     22          7           0       -3.138471    2.504693    1.289168
     23          1           0       -2.269534    3.046216    1.283921
     24          6           0       -2.904374    1.120573    0.890616
     25          1           0       -3.340607    0.457243    1.645751
     26          6           0       -1.361194    0.993764    0.892944
     27          6           0       -3.551659    0.812280   -0.487896
     28          1           0       -4.592365    1.150496   -0.427018
     29          1           0       -3.053091    1.424571   -1.246187
     30          8           0       -0.664245    1.977160    1.162570
     31          6           0       -3.497742   -0.638558   -0.881765
     32          6           0       -4.161941   -1.681656   -0.277421
     33          1           0       -4.851079   -1.670651    0.556434
     34          6           0       -2.733335   -1.215658   -1.961961
     35          6           0       -2.982493   -2.619266   -1.950758
     36          6           0       -1.871502   -0.681582   -2.933126
     37          1           0       -1.615052    0.371565   -2.930858
     38          7           0       -3.847615   -2.869946   -0.905623
     39          1           0       -4.246089   -3.768379   -0.677523
     40          6           0       -1.574344   -2.926637   -3.850880
     41          1           0       -1.163099   -3.567868   -4.628146
     42          6           0       -2.399169   -3.491203   -2.878504
     43          1           0       -2.612995   -4.556237   -2.867220
     44          6           0       -1.315126   -1.538644   -3.876698
     45          1           0       -0.683766   -1.123273   -4.654450
     46          7           0       -0.884919   -0.213864    0.570816
     47          1           0       -1.518315   -0.990058    0.419742
     48          6           0        0.502456   -0.479180    0.261397
     49          1           0        1.088747   -0.547464    1.186327
     50          6           0        1.075478    0.595440   -0.685645
     51          6           0        0.563054   -1.816225   -0.523995
     52          1           0        1.591612   -2.192898   -0.496473
     53          1           0        0.303479   -1.607109   -1.564716
     54          8           0        0.383713    1.129016   -1.543164
     55          8           0       -0.341751   -2.759020    0.049182
     56          1           0       -0.851927   -3.150708   -0.675828
     57          7           0        2.412828    0.807488   -0.555455
     58          1           0        2.921108    0.190441    0.065788
     59          6           0        3.166943    1.325479   -1.687541
     60          1           0        2.723205    2.281189   -1.980104
     61          6           0        3.056785    0.364402   -2.886995
     62          6           0        4.642816    1.519697   -1.310683
     63          1           0        5.221115    1.860312   -2.175147
     64          1           0        5.080527    0.570412   -0.976782
     65          1           0        4.736777    2.252721   -0.504038
     66          8           0        2.644834   -0.816757   -2.695604
     67          7           0        3.465643    0.852175   -4.040318
     68          1           0        4.058776    1.716966   -4.060622
     69          6           0        3.952048    0.076591   -5.179077
     70          1           0        4.156353   -0.949089   -4.857655
     71          6           0        5.346127    0.749252   -5.566267
     72          6           0        3.001242    0.134639   -6.377860
     73          1           0        2.888632    1.192524   -6.643791
     74          1           0        3.518253   -0.339683   -7.220001
     75          8           0        5.581895    1.815946   -4.926748
     76          6           0        1.602907   -0.472808   -6.159945
     77          1           0        1.277282   -0.270051   -5.129675
     78          1           0        0.877691    0.041312   -6.802646
     79          6           0        1.484816   -1.972591   -6.484948
     80          1           0        1.754433   -2.131646   -7.536158
     81          1           0        0.438682   -2.299873   -6.389036
     82          6           0        2.367696   -2.913960   -5.670459
     83          1           0        2.205651   -3.954571   -5.966882
     84          1           0        3.427372   -2.681794   -5.790225
     85          7           0        2.065282   -2.812617   -4.196098
     86          1           0        2.540294   -3.552551   -3.672778
     87          1           0        2.375611   -1.863669   -3.715328
     88          1           0        1.058889   -2.905042   -4.014739
     89          8           0        5.971106    0.146408   -6.444813
 ---------------------------------------------------------------------

 SCF Done:  E(RB3LYP) =  -2042.56815964     A.U. after    1 cycles

 Alpha  occ. eigenvalues --  -19.27418 -19.24263 -19.22240 -19.20660 -19.19386
 Alpha  occ. eigenvalues --  -19.09393 -19.08100 -14.60757 -14.52356 -14.49680
 Alpha  occ. eigenvalues --  -14.48281 -14.45461 -14.43606 -14.40670 -10.44020
 Alpha  occ. eigenvalues --  -10.41176 -10.39164 -10.36673 -10.35779 -10.35197
 Alpha  occ. eigenvalues --  -10.33890 -10.33603 -10.32664 -10.32354 -10.32348
 Alpha  occ. eigenvalues --  -10.32304 -10.31151 -10.30442 -10.30242 -10.29329
 Alpha  occ. eigenvalues --  -10.29052 -10.28724 -10.28607 -10.28349 -10.28064
 Alpha  occ. eigenvalues --  -10.28033 -10.27960 -10.27703 -10.27130 -10.25492
 Alpha  occ. eigenvalues --  -10.25263 -10.24717 -10.23060  -1.19796  -1.14706
 Alpha  occ. eigenvalues --   -1.14148  -1.11916  -1.11443  -1.10588  -1.08201
 Alpha  occ. eigenvalues --   -1.07289  -1.06575  -1.02517  -1.02411  -1.00234
 Alpha  occ. eigenvalues --   -0.97934  -0.95269  -0.94001  -0.93731  -0.91562
 Alpha  occ. eigenvalues --   -0.89086  -0.88294  -0.87347  -0.85653  -0.83616
 Alpha  occ. eigenvalues --   -0.83429  -0.82271  -0.81516  -0.80548  -0.78929
 Alpha  occ. eigenvalues --   -0.77844  -0.76886  -0.74552  -0.73780  -0.73631
 Alpha  occ. eigenvalues --   -0.72906  -0.72390  -0.72010  -0.70535  -0.69287
 Alpha  occ. eigenvalues --   -0.68826  -0.68032  -0.66834  -0.66428  -0.65989
 Alpha  occ. eigenvalues --   -0.65939  -0.65809  -0.64446  -0.63854  -0.63654
 Alpha  occ. eigenvalues --   -0.62691  -0.62327  -0.61040  -0.60460  -0.59590
 Alpha  occ. eigenvalues --   -0.58951  -0.57995  -0.57814  -0.57580  -0.57331
 Alpha  occ. eigenvalues --   -0.56885  -0.56464  -0.55436  -0.55305  -0.54804
 Alpha  occ. eigenvalues --   -0.54521  -0.54086  -0.53876  -0.53233  -0.52792
 Alpha  occ. eigenvalues --   -0.52418  -0.52285  -0.51800  -0.51509  -0.51282
 Alpha  occ. eigenvalues --   -0.51088  -0.50949  -0.50537  -0.49516  -0.49350
 Alpha  occ. eigenvalues --   -0.49068  -0.48952  -0.48372  -0.48315  -0.48087
 Alpha  occ. eigenvalues --   -0.47725  -0.47354  -0.46706  -0.45809  -0.45217
 Alpha  occ. eigenvalues --   -0.45039  -0.44966  -0.44909  -0.44523  -0.44417
 Alpha  occ. eigenvalues --   -0.44296  -0.43815  -0.43656  -0.43385  -0.43053
 Alpha  occ. eigenvalues --   -0.42741  -0.42099  -0.41866  -0.40620  -0.40003
 Alpha  occ. eigenvalues --   -0.39986  -0.38906  -0.38249  -0.37700  -0.37103
 Alpha  occ. eigenvalues --   -0.36613  -0.36357  -0.35449  -0.35309  -0.34023
 Alpha  occ. eigenvalues --   -0.32865  -0.32648  -0.32265  -0.30440  -0.24320
 Alpha  occ. eigenvalues --   -0.24267  -0.22195
 Alpha virt. eigenvalues --   -0.12952  -0.11769  -0.11676  -0.08262  -0.07842
 Alpha virt. eigenvalues --   -0.06965  -0.05958  -0.05664  -0.05111  -0.04956
 Alpha virt. eigenvalues --   -0.04274  -0.02416  -0.01741  -0.01425  -0.01136

 Mulliken charges:
               1
     1  N   -0.755970
     2  H    0.417404
     3  H    0.431166
     4  H    0.414078
     5  C   -0.118783
     6  H    0.217962
     7  C    0.645758
     8  C   -0.286610
     9  H    0.163736
    10  H    0.171657
    11  O   -0.549317
    12  C   -0.106443
    13  H    0.164098
    14  C   -0.460782
    15  H    0.154224
    16  H    0.139451
    17  H    0.193369
    18  C   -0.452013
    19  H    0.155542
    20  H    0.155695
    21  H    0.177484
    22  N   -0.611726
    23  H    0.397332
    24  C   -0.079276
    25  H    0.190833
    26  C    0.654173
    27  C   -0.339363
    28  H    0.179243
    29  H    0.182095
    30  O   -0.547820
    31  C    0.020076
    32  C    0.007880
    33  H    0.173489
    34  C    0.077953
    35  C    0.291907
    36  C   -0.192583
    37  H    0.182570
    38  N   -0.675363
    39  H    0.346346
    40  C   -0.184619
    41  H    0.136774
    42  C   -0.192835
    43  H    0.151631
    44  C   -0.173816
    45  H    0.159020
    46  N   -0.619108
    47  H    0.365142
    48  C   -0.039337
    49  H    0.167662
    50  C    0.655374
    51  C   -0.084519
    52  H    0.154082
    53  H    0.172925
    54  O   -0.541381
    55  O   -0.633871
    56  H    0.414418
    57  N   -0.586257
    58  H    0.331447
    59  C   -0.055951
    60  H    0.197618
    61  C    0.641359
    62  C   -0.491939
    63  H    0.223630
    64  H    0.151690
    65  H    0.170828
    66  O   -0.646595
    67  N   -0.561510
    68  H    0.373456
    69  C   -0.119195
    70  H    0.111341
    71  C    0.605499
    72  C   -0.264002
    73  H    0.159297
    74  H    0.174008
    75  O   -0.609199
    76  C   -0.287651
    77  H    0.146255
    78  H    0.155668
    79  C   -0.296579
    80  H    0.186431
    81  H    0.143464
    82  C   -0.184123
    83  H    0.183172
    84  H    0.231476
    85  N   -0.792736
    86  H    0.386601
    87  H    0.470746
    88  H    0.379382
    89  O   -0.564644
 Sum of Mulliken charges =   1.00000

 Dipole moment (field-independent basis, Debye):
    X=            -27.9683    Y=              4.4062    Z=             11.6711  Tot=             30.6245
 Quadrupole moment (field-independent basis, Debye-Ang):
   XX=           -213.6099   YY=           -122.2908   ZZ=           -241.1505
   XY=           -103.3952   XZ=             16.8653   YZ=            102.5982

 Normal termination of Gaussian 16 at Thu Jun 23 19:22:14 2022.
