 Gaussian 16, Revision C.01,
 Gaussian 16:  ES64L-G16RevC.01  3-Jul-2019

 ----------------------------------------------------------------------
 # B3LYP/6-31G* empiricaldispersion=gd3 guess=read geom=check nosymm in
 tegral(ultrafinegrid)
 ----------------------------------------------------------------------

 ------------------------------------------------------
 Candidate Structure: Conf:879 Charge calc in gas phase
 ------------------------------------------------------
 Structure from the checkpoint file:  "conf-879.chk"
 Charge =  1 Multiplicity = 1

                          Input orientation:
 ---------------------------------------------------------------------
 Center     Atomic      Atomic             Coordinates (Angstroms)
 Number     Number       Type             X           Y           Z
 ---------------------------------------------------------------------
      1          7           0       -5.955796    2.525583    2.928656
      2          1           0       -6.239777    3.404820    2.450662
      3          1           0       -6.405249    1.729934    2.423633
      4          1           0       -6.256186    2.557074    3.906218
      5          6           0       -4.475105    2.265446    2.767501
      6          1           0       -3.981402    3.237322    2.748699
      7          6           0       -4.414908    1.551357    1.401651
      8          6           0       -3.953215    1.362617    3.894695
      9          1           0       -4.073556    1.888279    4.853242
     10          1           0       -4.583562    0.463755    3.926998
     11          8           0       -5.363901    0.825504    1.086925
     12          6           0       -2.475061    0.937066    3.729983
     13          1           0       -2.365687    0.415890    2.771061
     14          6           0       -1.505818    2.128716    3.731465
     15          1           0       -1.518028    2.646947    4.698441
     16          1           0       -1.728225    2.871000    2.955553
     17          1           0       -0.487017    1.781945    3.535910
     18          6           0       -2.108344   -0.055211    4.842911
     19          1           0       -2.198769    0.406337    5.833997
     20          1           0       -2.750382   -0.943096    4.821130
     21          1           0       -1.070236   -0.388378    4.733096
     22          7           0       -3.317968    1.787994    0.688161
     23          1           0       -2.591792    2.404201    1.040791
     24          6           0       -3.043136    1.283402   -0.655802
     25          1           0       -3.581121    0.340126   -0.777831
     26          6           0       -1.513306    1.115128   -0.632049
     27          6           0       -3.507811    2.314145   -1.722168
     28          1           0       -2.853818    3.189870   -1.644395
     29          1           0       -3.345206    1.878213   -2.714622
     30          8           0       -0.831524    2.071527   -0.265113
     31          6           0       -4.947535    2.689163   -1.524177
     32          6           0       -6.042122    2.054383   -2.057743
     33          1           0       -6.085956    1.272488   -2.803605
     34          6           0       -5.461909    3.638191   -0.568539
     35          6           0       -6.881964    3.497189   -0.552922
     36          6           0       -4.865648    4.569807    0.299342
     37          1           0       -3.789632    4.720915    0.284950
     38          7           0       -7.200531    2.534679   -1.481984
     39          1           0       -8.135056    2.252153   -1.736428
     40          6           0       -7.074822    5.122708    1.189938
     41          1           0       -7.681780    5.723706    1.861248
     42          6           0       -7.696749    4.225632    0.319902
     43          1           0       -8.776561    4.105875    0.317162
     44          6           0       -5.669043    5.301051    1.172081
     45          1           0       -5.218856    6.039769    1.829551
     46          7           0       -1.035859   -0.104460   -0.936085
     47          1           0       -1.626341   -0.835763   -1.316998
     48          6           0        0.347714   -0.481264   -0.716959
     49          1           0        0.953372    0.428247   -0.732733
     50          6           0        0.737675   -1.472525   -1.827503
     51          6           0        0.510575   -1.183246    0.643848
     52          1           0        1.576919   -1.407727    0.794741
     53          1           0       -0.039225   -2.136872    0.610825
     54          8           0       -0.124797   -2.185799   -2.343603
     55          8           0        0.003040   -0.328833    1.664394
     56          1           0        0.145990   -0.774046    2.513286
     57          7           0        2.047642   -1.527521   -2.121399
     58          1           0        2.738459   -0.938293   -1.662537
     59          6           0        2.611944   -2.476385   -3.068553
     60          1           0        2.197093   -3.469623   -2.855115
     61          6           0        4.131373   -2.476929   -2.807694
     62          6           0        2.283587   -2.097171   -4.523000
     63          1           0        2.691699   -2.832783   -5.223513
     64          1           0        2.707446   -1.117202   -4.764259
     65          1           0        1.198534   -2.061317   -4.647081
     66          8           0        4.647993   -1.630657   -2.077253
     67          7           0        4.825081   -3.436414   -3.456581
     68          1           0        4.342430   -4.133218   -4.009874
     69          6           0        6.278968   -3.553321   -3.389688
     70          1           0        6.682643   -2.570823   -3.144756
     71          6           0        6.840402   -3.977690   -4.735670
     72          6           0        6.706668   -4.595874   -2.318354
     73          1           0        6.570240   -4.114192   -1.343517
     74          1           0        5.995461   -5.429605   -2.360525
     75          8           0        6.189035   -5.033523   -5.237153
     76          6           0        8.147145   -5.148940   -2.443779
     77          1           0        8.819853   -4.348829   -2.775947
     78          1           0        8.478120   -5.415173   -1.434342
     79          6           0        8.310668   -6.406783   -3.356995
     80          1           0        7.317997   -6.794847   -3.614135
     81          1           0        8.791154   -7.194179   -2.766508
     82          6           0        9.119000   -6.227288   -4.670906
     83          1           0        9.475811   -5.200550   -4.763872
     84          1           0       10.000272   -6.882648   -4.662198
     85          7           0        8.286755   -6.489851   -5.878889
     86          1           0        8.803683   -6.221474   -6.715450
     87          1           0        8.096144   -7.488668   -5.961027
     88          1           0        6.900987   -5.591440   -5.738233
     89          8           0        7.849862   -3.493565   -5.208307
 ---------------------------------------------------------------------

 SCF Done:  E(RB3LYP) =  -2042.60869983     A.U. after    2 cycles

 Alpha  occ. eigenvalues --  -19.24485 -19.23600 -19.21220 -19.20211 -19.19142
 Alpha  occ. eigenvalues --  -19.18313 -19.17647 -14.57913 -14.48040 -14.47898
 Alpha  occ. eigenvalues --  -14.44888 -14.43203 -14.42621 -14.40201 -10.41536
 Alpha  occ. eigenvalues --  -10.38455 -10.37736 -10.36424 -10.35590 -10.35468
 Alpha  occ. eigenvalues --  -10.33644 -10.32362 -10.32232 -10.31907 -10.31648
 Alpha  occ. eigenvalues --  -10.31492 -10.30437 -10.29818 -10.29766 -10.29444
 Alpha  occ. eigenvalues --  -10.29342 -10.29141 -10.29023 -10.28805 -10.28468
 Alpha  occ. eigenvalues --  -10.27880 -10.27134 -10.27123 -10.26699 -10.24530
 Alpha  occ. eigenvalues --  -10.24283 -10.23794 -10.23749  -1.17060  -1.13200
 Alpha  occ. eigenvalues --   -1.12753  -1.11945  -1.11195  -1.10564  -1.10034
 Alpha  occ. eigenvalues --   -1.07897  -1.04880  -1.04550  -1.01245  -0.99809
 Alpha  occ. eigenvalues --   -0.98993  -0.95415  -0.94586  -0.93455  -0.90562
 Alpha  occ. eigenvalues --   -0.87972  -0.86512  -0.85650  -0.84839  -0.84006
 Alpha  occ. eigenvalues --   -0.82789  -0.81874  -0.79851  -0.78912  -0.77940
 Alpha  occ. eigenvalues --   -0.76318  -0.74848  -0.73596  -0.72655  -0.72128
 Alpha  occ. eigenvalues --   -0.72089  -0.70783  -0.70161  -0.69504  -0.68252
 Alpha  occ. eigenvalues --   -0.67621  -0.67009  -0.66201  -0.66062  -0.65312
 Alpha  occ. eigenvalues --   -0.64647  -0.64312  -0.63730  -0.62952  -0.61751
 Alpha  occ. eigenvalues --   -0.61253  -0.59286  -0.59105  -0.58533  -0.57944
 Alpha  occ. eigenvalues --   -0.57475  -0.57316  -0.56545  -0.55898  -0.55624
 Alpha  occ. eigenvalues --   -0.55216  -0.54917  -0.54150  -0.53863  -0.53746
 Alpha  occ. eigenvalues --   -0.53684  -0.53483  -0.52921  -0.52248  -0.52140
 Alpha  occ. eigenvalues --   -0.51701  -0.51439  -0.51161  -0.51028  -0.50521
 Alpha  occ. eigenvalues --   -0.50411  -0.50216  -0.49576  -0.49388  -0.48745
 Alpha  occ. eigenvalues --   -0.48240  -0.48117  -0.47630  -0.47461  -0.47162
 Alpha  occ. eigenvalues --   -0.46838  -0.46654  -0.46519  -0.45971  -0.45376
 Alpha  occ. eigenvalues --   -0.45124  -0.44852  -0.44496  -0.44358  -0.43952
 Alpha  occ. eigenvalues --   -0.43623  -0.43571  -0.43474  -0.43382  -0.43167
 Alpha  occ. eigenvalues --   -0.42672  -0.42384  -0.41703  -0.40359  -0.39086
 Alpha  occ. eigenvalues --   -0.38816  -0.38508  -0.38000  -0.37813  -0.37698
 Alpha  occ. eigenvalues --   -0.36068  -0.35015  -0.34936  -0.33993  -0.33488
 Alpha  occ. eigenvalues --   -0.33010  -0.32937  -0.32585  -0.32416  -0.32034
 Alpha  occ. eigenvalues --   -0.30191  -0.29650
 Alpha virt. eigenvalues --   -0.11936  -0.10923  -0.08487  -0.07961  -0.06588
 Alpha virt. eigenvalues --   -0.05756  -0.04589  -0.04380  -0.03329  -0.03042
 Alpha virt. eigenvalues --   -0.02727  -0.02283  -0.00944  -0.00392   0.00098

 Mulliken charges:
               1
     1  N   -0.765314
     2  H    0.420384
     3  H    0.417278
     4  H    0.400947
     5  C   -0.112202
     6  H    0.199534
     7  C    0.662667
     8  C   -0.279579
     9  H    0.157306
    10  H    0.168190
    11  O   -0.549188
    12  C   -0.106524
    13  H    0.171176
    14  C   -0.455953
    15  H    0.153113
    16  H    0.132019
    17  H    0.186949
    18  C   -0.450801
    19  H    0.157213
    20  H    0.157008
    21  H    0.150215
    22  N   -0.598670
    23  H    0.375478
    24  C   -0.049808
    25  H    0.180024
    26  C    0.647218
    27  C   -0.359863
    28  H    0.182775
    29  H    0.173130
    30  O   -0.539903
    31  C    0.069695
    32  C    0.034060
    33  H    0.176522
    34  C    0.065333
    35  C    0.330330
    36  C   -0.223840
    37  H    0.150620
    38  N   -0.681918
    39  H    0.346499
    40  C   -0.211950
    41  H    0.155737
    42  C   -0.170470
    43  H    0.155033
    44  C   -0.189429
    45  H    0.151448
    46  N   -0.600920
    47  H    0.352524
    48  C   -0.082999
    49  H    0.200072
    50  C    0.624351
    51  C   -0.024910
    52  H    0.150973
    53  H    0.143686
    54  O   -0.545435
    55  O   -0.617326
    56  H    0.405578
    57  N   -0.616369
    58  H    0.361384
    59  C   -0.043171
    60  H    0.176940
    61  C    0.619899
    62  C   -0.449949
    63  H    0.156678
    64  H    0.167063
    65  H    0.188455
    66  O   -0.537009
    67  N   -0.618517
    68  H    0.350778
    69  C   -0.021075
    70  H    0.197289
    71  C    0.593122
    72  C   -0.272624
    73  H    0.161262
    74  H    0.143477
    75  O   -0.631047
    76  C   -0.290316
    77  H    0.166843
    78  H    0.148547
    79  C   -0.288388
    80  H    0.153032
    81  H    0.149302
    82  C   -0.157186
    83  H    0.196554
    84  H    0.145435
    85  N   -0.773706
    86  H    0.337612
    87  H    0.325029
    88  H    0.457722
    89  O   -0.485147
 Sum of Mulliken charges =   1.00000

 Dipole moment (field-independent basis, Debye):
    X=            -15.9668    Y=              0.3451    Z=              5.6900  Tot=             16.9539
 Quadrupole moment (field-independent basis, Debye-Ang):
   XX=            -54.8878   YY=           -170.5547   ZZ=           -180.2335
   XY=           -125.6324   XZ=            -70.0728   YZ=             60.1224

 Normal termination of Gaussian 16 at Thu Jun 23 19:22:27 2022.
