 Gaussian 16, Revision C.01,
 Gaussian 16:  ES64L-G16RevC.01  3-Jul-2019

 ----------------------------------------------------------------------
 # B3LYP/6-31G* empiricaldispersion=gd3 guess=read geom=check nosymm in
 tegral(ultrafinegrid)
 ----------------------------------------------------------------------

 ------------------------------------------------------
 Candidate Structure: Conf:112 Charge calc in gas phase
 ------------------------------------------------------
 Structure from the checkpoint file:  "conf-112.chk"
 Charge =  1 Multiplicity = 1

                          Input orientation:
 ---------------------------------------------------------------------
 Center     Atomic      Atomic             Coordinates (Angstroms)
 Number     Number       Type             X           Y           Z
 ---------------------------------------------------------------------
      1          7           0       -3.798267   -3.358271    2.387581
      2          1           0       -4.773080   -3.400816    2.073320
      3          1           0       -3.211115   -3.882075    1.699249
      4          1           0       -3.736589   -3.776483    3.321971
      5          6           0       -3.219808   -1.953238    2.355969
      6          1           0       -4.043915   -1.250301    2.492732
      7          6           0       -2.580638   -1.839809    0.961670
      8          6           0       -2.150069   -1.809342    3.451435
      9          1           0       -1.383693   -2.576410    3.277774
     10          1           0       -1.634224   -0.859960    3.274689
     11          8           0       -2.261505   -2.900401    0.389555
     12          6           0       -2.675157   -1.872659    4.900187
     13          1           0       -3.187396   -2.839427    5.065216
     14          6           0       -1.479384   -1.831056    5.864421
     15          1           0       -0.934142   -0.885943    5.758862
     16          1           0       -0.776427   -2.648897    5.671865
     17          1           0       -1.817319   -1.910847    6.902070
     18          6           0       -3.672347   -0.746863    5.209699
     19          1           0       -3.208376    0.233401    5.046569
     20          1           0       -4.582257   -0.796624    4.598020
     21          1           0       -3.990061   -0.792546    6.255688
     22          7           0       -2.407181   -0.605956    0.488414
     23          1           0       -2.606713    0.156223    1.127883
     24          6           0       -1.366387   -0.325552   -0.504518
     25          1           0       -1.310672   -1.215397   -1.129460
     26          6           0       -0.025088   -0.217738    0.279307
     27          6           0       -1.718831    0.865866   -1.438815
     28          1           0       -2.814314    0.940439   -1.476591
     29          1           0       -1.345869    1.804994   -1.015152
     30          8           0        0.018229   -0.516336    1.478397
     31          6           0       -1.159406    0.627716   -2.811147
     32          6           0       -0.148034    1.303868   -3.472206
     33          1           0        0.428418    2.159463   -3.150947
     34          6           0       -1.535318   -0.463613   -3.669520
     35          6           0       -0.696010   -0.384998   -4.821285
     36          6           0       -2.479841   -1.506467   -3.582089
     37          1           0       -3.184902   -1.550694   -2.752169
     38          7           0        0.121021    0.710447   -4.673271
     39          1           0        0.966908    0.913123   -5.258835
     40          6           0       -1.655035   -2.379010   -5.715261
     41          1           0       -1.715184   -3.134047   -6.493512
     42          6           0       -0.738466   -1.340308   -5.845910
     43          1           0       -0.034437   -1.278511   -6.673029
     44          6           0       -2.530976   -2.458004   -4.606106
     45          1           0       -3.285358   -3.241938   -4.577230
     46          7           0        1.021442    0.167688   -0.454271
     47          1           0        0.908377    0.433473   -1.432680
     48          6           0        2.392708    0.240764    0.033741
     49          1           0        2.437575    0.869798    0.932847
     50          6           0        3.185110    0.890969   -1.120858
     51          6           0        2.934246   -1.168691    0.384762
     52          1           0        2.280482   -1.587442    1.154820
     53          1           0        3.935832   -1.073216    0.833200
     54          8           0        2.594690    1.307183   -2.115691
     55          8           0        2.920818   -2.044234   -0.715631
     56          1           0        3.702650   -1.871906   -1.297381
     57          7           0        4.539622    0.906643   -1.026258
     58          1           0        4.961604    0.375063   -0.275337
     59          6           0        5.309340    0.896113   -2.289871
     60          1           0        5.052215    1.802627   -2.841972
     61          6           0        4.843005   -0.368301   -3.046459
     62          6           0        6.802734    0.842758   -1.987694
     63          1           0        7.372910    0.885517   -2.920174
     64          1           0        7.049927   -0.098879   -1.485426
     65          1           0        7.103459    1.685351   -1.357136
     66          8           0        4.953082   -1.473353   -2.471684
     67          7           0        4.282437   -0.181994   -4.234950
     68          1           0        4.005579    0.755884   -4.543792
     69          6           0        3.511783   -1.182787   -4.973270
     70          1           0        4.178798   -1.918304   -5.430671
     71          6           0        2.701811   -0.422163   -6.081497
     72          6           0        2.436848   -1.873907   -4.090372
     73          1           0        2.306741   -1.280910   -3.181244
     74          1           0        1.496941   -1.819981   -4.642338
     75          8           0        2.170657   -1.137490   -6.942902
     76          6           0        2.651271   -3.349393   -3.740419
     77          1           0        3.037067   -3.880373   -4.618175
     78          1           0        3.390867   -3.466446   -2.944265
     79          6           0        1.309187   -4.008801   -3.363951
     80          1           0        1.450666   -5.074184   -3.133038
     81          1           0        0.644139   -3.944918   -4.237412
     82          6           0        0.622951   -3.325487   -2.183353
     83          1           0        1.099156   -3.548120   -1.228728
     84          1           0        0.586147   -2.243043   -2.297786
     85          7           0       -0.832327   -3.768421   -2.107773
     86          1           0       -1.290122   -3.466584   -1.231184
     87          1           0       -1.368992   -3.341224   -2.896035
     88          1           0       -0.907052   -4.787482   -2.182877
     89          8           0        2.562833    0.829099   -5.871844
 ---------------------------------------------------------------------

 SCF Done:  E(RB3LYP) =  -2042.58737715     A.U. after    3 cycles

 Alpha  occ. eigenvalues --  -19.30907 -19.22824 -19.21552 -19.20965 -19.17308
 Alpha  occ. eigenvalues --  -19.11582 -19.10497 -14.63656 -14.56126 -14.52737
 Alpha  occ. eigenvalues --  -14.45978 -14.44267 -14.42536 -14.40286 -10.47192
 Alpha  occ. eigenvalues --  -10.43445 -10.39951 -10.37783 -10.36145 -10.34754
 Alpha  occ. eigenvalues --  -10.34166 -10.34122 -10.33970 -10.32775 -10.32198
 Alpha  occ. eigenvalues --  -10.30680 -10.30485 -10.30128 -10.29558 -10.29244
 Alpha  occ. eigenvalues --  -10.28915 -10.28583 -10.28072 -10.27702 -10.27035
 Alpha  occ. eigenvalues --  -10.26365 -10.26183 -10.25880 -10.25378 -10.25199
 Alpha  occ. eigenvalues --  -10.24729 -10.24442 -10.22890  -1.22590  -1.17558
 Alpha  occ. eigenvalues --   -1.14740  -1.13119  -1.10751  -1.09458  -1.09253
 Alpha  occ. eigenvalues --   -1.08395  -1.04698  -1.03800  -1.02655  -1.00616
 Alpha  occ. eigenvalues --   -0.97305  -0.97215  -0.95421  -0.92723  -0.91520
 Alpha  occ. eigenvalues --   -0.90169  -0.88785  -0.86359  -0.84839  -0.83001
 Alpha  occ. eigenvalues --   -0.82265  -0.81600  -0.81158  -0.80824  -0.79826
 Alpha  occ. eigenvalues --   -0.77367  -0.76892  -0.76194  -0.76002  -0.75665
 Alpha  occ. eigenvalues --   -0.74348  -0.72872  -0.71262  -0.70788  -0.69766
 Alpha  occ. eigenvalues --   -0.69333  -0.69240  -0.68116  -0.67752  -0.66587
 Alpha  occ. eigenvalues --   -0.66345  -0.65959  -0.64621  -0.63861  -0.63524
 Alpha  occ. eigenvalues --   -0.61943  -0.61545  -0.61160  -0.60464  -0.60105
 Alpha  occ. eigenvalues --   -0.59493  -0.59448  -0.58819  -0.57491  -0.57343
 Alpha  occ. eigenvalues --   -0.56857  -0.55917  -0.55523  -0.55324  -0.55244
 Alpha  occ. eigenvalues --   -0.54930  -0.54674  -0.54234  -0.53481  -0.53232
 Alpha  occ. eigenvalues --   -0.52795  -0.52375  -0.51475  -0.51233  -0.50985
 Alpha  occ. eigenvalues --   -0.50530  -0.50402  -0.50102  -0.50010  -0.49645
 Alpha  occ. eigenvalues --   -0.49035  -0.48534  -0.48358  -0.48110  -0.47717
 Alpha  occ. eigenvalues --   -0.47639  -0.47347  -0.46796  -0.46693  -0.46539
 Alpha  occ. eigenvalues --   -0.46213  -0.45817  -0.45404  -0.44968  -0.44798
 Alpha  occ. eigenvalues --   -0.44662  -0.43996  -0.43531  -0.43290  -0.42657
 Alpha  occ. eigenvalues --   -0.42583  -0.41571  -0.41309  -0.40840  -0.40713
 Alpha  occ. eigenvalues --   -0.40013  -0.39633  -0.38887  -0.37325  -0.37057
 Alpha  occ. eigenvalues --   -0.36851  -0.35381  -0.34767  -0.34327  -0.34149
 Alpha  occ. eigenvalues --   -0.31505  -0.30255  -0.29973  -0.28123  -0.27025
 Alpha  occ. eigenvalues --   -0.26082  -0.24682
 Alpha virt. eigenvalues --   -0.16057  -0.14043  -0.09743  -0.09322  -0.08777
 Alpha virt. eigenvalues --   -0.07915  -0.07431  -0.07235  -0.06013  -0.05539
 Alpha virt. eigenvalues --   -0.04353  -0.04129  -0.03382  -0.02179  -0.01626

 Mulliken charges:
               1
     1  N   -0.744652
     2  H    0.422340
     3  H    0.424318
     4  H    0.420605
     5  C   -0.149124
     6  H    0.215255
     7  C    0.683489
     8  C   -0.284602
     9  H    0.178121
    10  H    0.221807
    11  O   -0.579003
    12  C   -0.106651
    13  H    0.109365
    14  C   -0.446642
    15  H    0.172904
    16  H    0.160895
    17  H    0.176982
    18  C   -0.456516
    19  H    0.170125
    20  H    0.131100
    21  H    0.189062
    22  N   -0.557294
    23  H    0.358355
    24  C   -0.100017
    25  H    0.179134
    26  C    0.625686
    27  C   -0.375127
    28  H    0.170907
    29  H    0.175060
    30  O   -0.558388
    31  C    0.000986
    32  C    0.022074
    33  H    0.187910
    34  C    0.108928
    35  C    0.276184
    36  C   -0.297063
    37  H    0.107754
    38  N   -0.674184
    39  H    0.416614
    40  C   -0.160275
    41  H    0.150088
    42  C   -0.160383
    43  H    0.233166
    44  C   -0.190707
    45  H    0.127867
    46  N   -0.629275
    47  H    0.406428
    48  C   -0.053603
    49  H    0.184241
    50  C    0.609002
    51  C   -0.065872
    52  H    0.169117
    53  H    0.134104
    54  O   -0.522378
    55  O   -0.666944
    56  H    0.465335
    57  N   -0.589949
    58  H    0.336204
    59  C   -0.038657
    60  H    0.182683
    61  C    0.619722
    62  C   -0.480962
    63  H    0.184083
    64  H    0.171016
    65  H    0.167222
    66  O   -0.603786
    67  N   -0.582053
    68  H    0.367335
    69  C   -0.007495
    70  H    0.162973
    71  C    0.545310
    72  C   -0.317250
    73  H    0.137763
    74  H    0.171364
    75  O   -0.556992
    76  C   -0.254058
    77  H    0.162991
    78  H    0.169935
    79  C   -0.310246
    80  H    0.142451
    81  H    0.167832
    82  C   -0.194088
    83  H    0.219212
    84  H    0.217416
    85  N   -0.796037
    86  H    0.426569
    87  H    0.403786
    88  H    0.388119
    89  O   -0.619020
 Sum of Mulliken charges =   1.00000

 Dipole moment (field-independent basis, Debye):
    X=            -16.9493    Y=            -15.5497    Z=             18.5743  Tot=             29.5648
 Quadrupole moment (field-independent basis, Debye-Ang):
   XX=           -174.9657   YY=           -182.4210   ZZ=           -281.1076
   XY=             60.0052   XZ=            -16.7475   YZ=            -13.1700

 Normal termination of Gaussian 16 at Thu Jun 23 19:23:15 2022.
