 Gaussian 16, Revision C.01,
 Gaussian 16:  ES64L-G16RevC.01  3-Jul-2019

 ----------------------------------------------------------------------
 # B3LYP/6-31G* empiricaldispersion=gd3 guess=read geom=check nosymm in
 tegral(ultrafinegrid)
 ----------------------------------------------------------------------

 ------------------------------------------------------
 Candidate Structure: Conf:428 Charge calc in gas phase
 ------------------------------------------------------
 Structure from the checkpoint file:  "conf-428.chk"
 Charge =  1 Multiplicity = 1

                          Input orientation:
 ---------------------------------------------------------------------
 Center     Atomic      Atomic             Coordinates (Angstroms)
 Number     Number       Type             X           Y           Z
 ---------------------------------------------------------------------
      1          7           0       -5.939314    0.265397    1.829867
      2          1           0       -6.214697    0.706914    0.924833
      3          1           0       -5.995341   -0.762979    1.674719
      4          1           0       -6.565025    0.569298    2.580042
      5          6           0       -4.480646    0.528103    2.122450
      6          1           0       -4.260857    1.533313    1.758654
      7          6           0       -3.764901   -0.538797    1.260178
      8          6           0       -4.210245    0.388173    3.627418
      9          1           0       -4.874789    1.082612    4.162810
     10          1           0       -4.485380   -0.629923    3.933995
     11          8           0       -4.389004   -1.555045    0.935704
     12          6           0       -2.755155    0.678918    4.056167
     13          1           0       -2.098648   -0.032277    3.538660
     14          6           0       -2.313163    2.105855    3.695607
     15          1           0       -2.971082    2.849052    4.163615
     16          1           0       -2.305998    2.300323    2.615801
     17          1           0       -1.295632    2.289831    4.053234
     18          6           0       -2.618213    0.435028    5.566335
     19          1           0       -3.250613    1.127536    6.135684
     20          1           0       -2.905400   -0.587294    5.836952
     21          1           0       -1.583369    0.589400    5.887757
     22          7           0       -2.506853   -0.259204    0.923105
     23          1           0       -2.076895    0.624368    1.187090
     24          6           0       -1.763725   -0.951871   -0.117765
     25          1           0       -1.787806   -2.029660    0.069440
     26          6           0       -0.331018   -0.416228   -0.007153
     27          6           0       -2.356830   -0.650911   -1.545723
     28          1           0       -1.582109   -0.848414   -2.294011
     29          1           0       -3.173243   -1.358217   -1.717722
     30          8           0       -0.089285    0.627860    0.591679
     31          6           0       -2.862078    0.755937   -1.670556
     32          6           0       -2.112969    1.892004   -1.868834
     33          1           0       -1.057640    1.979088   -2.085843
     34          6           0       -4.221654    1.192975   -1.471206
     35          6           0       -4.220422    2.618134   -1.534019
     36          6           0       -5.447454    0.527979   -1.289024
     37          1           0       -5.486666   -0.557461   -1.281571
     38          7           0       -2.922269    3.006565   -1.773484
     39          1           0       -2.621456    3.952738   -1.955577
     40          6           0       -6.575654    2.696746   -1.146540
     41          1           0       -7.498229    3.257407   -1.030391
     42          6           0       -5.382728    3.378352   -1.359231
     43          1           0       -5.357902    4.463339   -1.404593
     44          6           0       -6.613096    1.282006   -1.125480
     45          1           0       -7.574505    0.777220   -1.051940
     46          7           0        0.631740   -1.148038   -0.636026
     47          1           0        0.303597   -1.835153   -1.304821
     48          6           0        1.893394   -0.490991   -0.962096
     49          1           0        2.415559   -0.237543   -0.035559
     50          6           0        1.613599    0.753537   -1.828033
     51          6           0        2.754706   -1.470775   -1.791902
     52          1           0        2.268843   -1.603184   -2.772574
     53          1           0        2.771533   -2.438166   -1.277011
     54          8           0        0.713211    0.706881   -2.665565
     55          8           0        4.105137   -1.055476   -1.930499
     56          1           0        4.191750   -0.140808   -2.373752
     57          7           0        2.452084    1.804857   -1.667549
     58          1           0        3.244718    1.658945   -1.051845
     59          6           0        2.746822    2.675633   -2.812855
     60          1           0        1.808730    2.842870   -3.344554
     61          6           0        3.737109    1.910799   -3.712509
     62          6           0        3.355642    4.000269   -2.350147
     63          1           0        3.552404    4.640156   -3.215233
     64          1           0        4.307108    3.826487   -1.834535
     65          1           0        2.674430    4.521828   -1.670817
     66          8           0        4.588254    1.160873   -3.150417
     67          7           0        3.637310    2.102959   -5.006325
     68          1           0        3.057774    2.854817   -5.468271
     69          6           0        4.572737    1.683313   -6.049806
     70          1           0        5.599261    1.844989   -5.699664
     71          6           0        4.265409    2.655392   -7.273386
     72          6           0        4.413155    0.226284   -6.497165
     73          1           0        3.425431    0.086503   -6.955304
     74          1           0        5.150816    0.082359   -7.294284
     75          8           0        4.950365    2.446451   -8.281016
     76          6           0        4.606047   -0.785089   -5.362207
     77          1           0        5.428269   -0.428590   -4.731570
     78          1           0        3.716962   -0.775913   -4.716710
     79          6           0        4.888032   -2.219206   -5.821026
     80          1           0        5.863496   -2.268698   -6.323232
     81          1           0        4.146562   -2.550106   -6.558426
     82          6           0        4.851483   -3.222323   -4.667169
     83          1           0        3.833124   -3.380932   -4.301725
     84          1           0        5.281744   -4.189361   -4.939266
     85          7           0        5.630012   -2.703260   -3.463554
     86          1           0        5.895935   -3.463294   -2.831335
     87          1           0        6.490650   -2.231271   -3.759144
     88          1           0        5.048819   -2.005567   -2.890666
     89          8           0        3.336044    3.482012   -7.034798
 ---------------------------------------------------------------------

 SCF Done:  E(RB3LYP) =  -2042.56856551     A.U. after    1 cycles

 Alpha  occ. eigenvalues --  -19.26328 -19.25708 -19.23853 -19.21512 -19.18730
 Alpha  occ. eigenvalues --  -19.08302 -19.06886 -14.58396 -14.56532 -14.48795
 Alpha  occ. eigenvalues --  -14.47825 -14.47646 -14.45078 -14.40244 -10.42692
 Alpha  occ. eigenvalues --  -10.40472 -10.39375 -10.38350 -10.36609 -10.35832
 Alpha  occ. eigenvalues --  -10.35380 -10.34991 -10.34283 -10.32785 -10.32267
 Alpha  occ. eigenvalues --  -10.31121 -10.30835 -10.30820 -10.30103 -10.29534
 Alpha  occ. eigenvalues --  -10.29321 -10.29163 -10.29147 -10.29040 -10.28860
 Alpha  occ. eigenvalues --  -10.28291 -10.27977 -10.27440 -10.26047 -10.25998
 Alpha  occ. eigenvalues --  -10.25457 -10.24132 -10.22902  -1.18146  -1.15942
 Alpha  occ. eigenvalues --   -1.13822  -1.12902  -1.12705  -1.10889  -1.09440
 Alpha  occ. eigenvalues --   -1.07797  -1.05870  -1.04113  -1.01614  -1.01360
 Alpha  occ. eigenvalues --   -0.96829  -0.94551  -0.94219  -0.92633  -0.91179
 Alpha  occ. eigenvalues --   -0.89952  -0.88618  -0.87709  -0.85742  -0.84570
 Alpha  occ. eigenvalues --   -0.83956  -0.82866  -0.82074  -0.79804  -0.78670
 Alpha  occ. eigenvalues --   -0.77589  -0.77363  -0.76086  -0.72966  -0.72813
 Alpha  occ. eigenvalues --   -0.72496  -0.72107  -0.71359  -0.70733  -0.70040
 Alpha  occ. eigenvalues --   -0.69491  -0.69339  -0.68928  -0.67789  -0.67514
 Alpha  occ. eigenvalues --   -0.66081  -0.65982  -0.65505  -0.63895  -0.63484
 Alpha  occ. eigenvalues --   -0.62186  -0.62066  -0.61021  -0.60535  -0.60312
 Alpha  occ. eigenvalues --   -0.60129  -0.58688  -0.58508  -0.57819  -0.57473
 Alpha  occ. eigenvalues --   -0.57243  -0.56829  -0.56663  -0.55883  -0.54979
 Alpha  occ. eigenvalues --   -0.54657  -0.54225  -0.53808  -0.53343  -0.53280
 Alpha  occ. eigenvalues --   -0.53193  -0.52384  -0.52170  -0.51792  -0.51323
 Alpha  occ. eigenvalues --   -0.51238  -0.50832  -0.50640  -0.50575  -0.50188
 Alpha  occ. eigenvalues --   -0.50115  -0.49707  -0.49144  -0.48958  -0.48244
 Alpha  occ. eigenvalues --   -0.47926  -0.47640  -0.47526  -0.46880  -0.45994
 Alpha  occ. eigenvalues --   -0.45648  -0.45345  -0.44719  -0.44607  -0.44445
 Alpha  occ. eigenvalues --   -0.44195  -0.44062  -0.43997  -0.43837  -0.43589
 Alpha  occ. eigenvalues --   -0.43455  -0.42027  -0.40784  -0.40144  -0.39735
 Alpha  occ. eigenvalues --   -0.39601  -0.38890  -0.38451  -0.38114  -0.37678
 Alpha  occ. eigenvalues --   -0.37490  -0.37281  -0.35809  -0.35575  -0.34780
 Alpha  occ. eigenvalues --   -0.32967  -0.32785  -0.31372  -0.30379  -0.23406
 Alpha  occ. eigenvalues --   -0.23157  -0.21198
 Alpha virt. eigenvalues --   -0.12104  -0.11617  -0.10080  -0.09446  -0.08769
 Alpha virt. eigenvalues --   -0.08018  -0.07951  -0.04851  -0.04676  -0.03769
 Alpha virt. eigenvalues --   -0.03223  -0.03061  -0.02733  -0.02533  -0.01886

 Mulliken charges:
               1
     1  N   -0.757159
     2  H    0.408326
     3  H    0.415248
     4  H    0.401594
     5  C   -0.127202
     6  H    0.216111
     7  C    0.667449
     8  C   -0.277896
     9  H    0.157698
    10  H    0.171145
    11  O   -0.546482
    12  C   -0.099215
    13  H    0.155923
    14  C   -0.463837
    15  H    0.156606
    16  H    0.140729
    17  H    0.182212
    18  C   -0.449984
    19  H    0.155729
    20  H    0.157376
    21  H    0.170466
    22  N   -0.615364
    23  H    0.384263
    24  C   -0.050213
    25  H    0.190771
    26  C    0.642519
    27  C   -0.391158
    28  H    0.189796
    29  H    0.181827
    30  O   -0.530026
    31  C    0.043148
    32  C    0.022542
    33  H    0.214457
    34  C    0.078388
    35  C    0.313628
    36  C   -0.254112
    37  H    0.163179
    38  N   -0.685141
    39  H    0.349206
    40  C   -0.148468
    41  H    0.154465
    42  C   -0.160253
    43  H    0.156006
    44  C   -0.227310
    45  H    0.152428
    46  N   -0.604467
    47  H    0.340258
    48  C   -0.053971
    49  H    0.188940
    50  C    0.620889
    51  C   -0.067475
    52  H    0.155770
    53  H    0.160231
    54  O   -0.541204
    55  O   -0.700425
    56  H    0.471967
    57  N   -0.567466
    58  H    0.337847
    59  C   -0.069290
    60  H    0.190037
    61  C    0.627948
    62  C   -0.464919
    63  H    0.197903
    64  H    0.164050
    65  H    0.163716
    66  O   -0.639780
    67  N   -0.578050
    68  H    0.371508
    69  C   -0.088694
    70  H    0.149975
    71  C    0.599493
    72  C   -0.259733
    73  H    0.148089
    74  H    0.177990
    75  O   -0.571591
    76  C   -0.286228
    77  H    0.141617
    78  H    0.126708
    79  C   -0.289375
    80  H    0.170004
    81  H    0.186575
    82  C   -0.189572
    83  H    0.194576
    84  H    0.202007
    85  N   -0.776295
    86  H    0.398238
    87  H    0.407615
    88  H    0.459943
    89  O   -0.614776
 Sum of Mulliken charges =   1.00000

 Dipole moment (field-independent basis, Debye):
    X=            -11.0800    Y=            -11.1166    Z=             14.0832  Tot=             21.0875
 Quadrupole moment (field-independent basis, Debye-Ang):
   XX=            -92.9618   YY=           -218.0934   ZZ=           -345.5773
   XY=           -100.7482   XZ=            -15.5349   YZ=             97.4003

 Normal termination of Gaussian 16 at Thu Jun 23 19:22:12 2022.
