 Gaussian 16, Revision C.01,
 Gaussian 16:  ES64L-G16RevC.01  3-Jul-2019

 ----------------------------------------------------------------------
 # B3LYP/6-31G* empiricaldispersion=gd3 guess=read geom=check nosymm in
 tegral(ultrafinegrid)
 ----------------------------------------------------------------------

 ------------------------------------------------------
 Candidate Structure: Conf:950 Charge calc in gas phase
 ------------------------------------------------------
 Structure from the checkpoint file:  "conf-950.chk"
 Charge =  1 Multiplicity = 1

                          Input orientation:
 ---------------------------------------------------------------------
 Center     Atomic      Atomic             Coordinates (Angstroms)
 Number     Number       Type             X           Y           Z
 ---------------------------------------------------------------------
      1          7           0       -4.848077   -0.758789    3.193555
      2          1           0       -5.527758   -0.079813    3.550312
      3          1           0       -5.044882   -0.919636    2.168299
      4          1           0       -4.930442   -1.627284    3.729617
      5          6           0       -3.427298   -0.219110    3.147916
      6          1           0       -3.296507    0.497711    3.960284
      7          6           0       -3.359564    0.411205    1.741456
      8          6           0       -2.457179   -1.414398    3.248616
      9          1           0       -2.590992   -1.879624    4.236722
     10          1           0       -2.765169   -2.147557    2.490435
     11          8           0       -4.075189   -0.098802    0.864713
     12          6           0       -0.959784   -1.091801    3.046109
     13          1           0       -0.821803   -0.645419    2.054782
     14          6           0       -0.423711   -0.117826    4.103689
     15          1           0       -0.544605   -0.531782    5.113184
     16          1           0       -0.909089    0.864697    4.078574
     17          1           0        0.642052    0.060265    3.937173
     18          6           0       -0.153924   -2.398630    3.056226
     19          1           0       -0.174913   -2.873203    4.045717
     20          1           0       -0.545854   -3.114421    2.324038
     21          1           0        0.881888   -2.184822    2.781789
     22          7           0       -2.484382    1.394158    1.575579
     23          1           0       -1.896068    1.714692    2.347416
     24          6           0       -1.888350    1.727684    0.280470
     25          1           0       -2.012856    0.862409   -0.374684
     26          6           0       -0.398682    1.940207    0.620036
     27          6           0       -2.524991    2.965818   -0.394441
     28          1           0       -3.610326    2.803885   -0.415670
     29          1           0       -2.334065    3.849468    0.225013
     30          8           0       -0.093131    2.350345    1.748634
     31          6           0       -1.976234    3.136233   -1.776565
     32          6           0       -1.123169    4.113629   -2.225797
     33          1           0       -0.740203    4.982890   -1.708773
     34          6           0       -2.140915    2.200547   -2.862069
     35          6           0       -1.355453    2.677707   -3.946414
     36          6           0       -2.872307    1.008643   -3.018627
     37          1           0       -3.490135    0.627328   -2.208461
     38          7           0       -0.752632    3.847134   -3.527733
     39          1           0       -0.142393    4.421263   -4.088305
     40          6           0       -2.014344    0.826906   -5.293485
     41          1           0       -1.979702    0.277066   -6.229619
     42          6           0       -1.284341    2.003062   -5.168721
     43          1           0       -0.679452    2.381388   -5.987971
     44          6           0       -2.800782    0.334407   -4.230860
     45          1           0       -3.361483   -0.585905   -4.368117
     46          7           0        0.468126    1.627239   -0.344819
     47          1           0        0.146898    1.259509   -1.238881
     48          6           0        1.901443    1.509561   -0.144388
     49          1           0        2.342304    2.489232    0.084379
     50          6           0        2.459149    0.972866   -1.474834
     51          6           0        2.230511    0.531496    1.020518
     52          1           0        1.833625    0.964342    1.940040
     53          1           0        3.323022    0.456415    1.127603
     54          8           0        1.712880    0.625321   -2.384598
     55          8           0        1.632319   -0.728652    0.841315
     56          1           0        2.189455   -1.214742    0.192943
     57          7           0        3.817631    0.895114   -1.553055
     58          1           0        4.321301    1.014831   -0.682435
     59          6           0        4.415894   -0.071094   -2.464757
     60          1           0        3.945727    0.071340   -3.441893
     61          6           0        4.094014   -1.511734   -1.977124
     62          6           0        5.927196    0.167381   -2.563187
     63          1           0        6.388981   -0.525359   -3.271434
     64          1           0        6.408844    0.011892   -1.590028
     65          1           0        6.129126    1.190672   -2.893878
     66          8           0        3.554285   -1.721834   -0.879088
     67          7           0        4.474221   -2.479266   -2.812233
     68          1           0        4.962233   -2.298244   -3.690611
     69          6           0        4.438045   -3.909078   -2.531973
     70          1           0        4.619328   -4.078069   -1.468285
     71          6           0        5.553873   -4.576021   -3.386700
     72          6           0        3.053430   -4.485904   -2.926400
     73          1           0        2.307894   -4.031808   -2.264303
     74          1           0        2.823798   -4.123983   -3.938679
     75          8           0        5.960928   -5.686098   -2.974443
     76          6           0        2.944592   -6.030082   -2.871159
     77          1           0        3.768737   -6.434793   -2.276079
     78          1           0        2.007914   -6.316949   -2.379699
     79          6           0        2.944370   -6.728873   -4.251623
     80          1           0        2.123471   -6.316909   -4.859959
     81          1           0        2.732022   -7.799034   -4.106607
     82          6           0        4.260429   -6.567899   -4.998403
     83          1           0        4.519149   -5.527653   -5.216077
     84          1           0        5.112838   -6.989546   -4.464365
     85          7           0        4.189662   -7.264395   -6.366054
     86          1           0        5.074887   -7.142387   -6.870641
     87          1           0        4.014239   -8.270428   -6.268564
     88          1           0        3.438978   -6.873339   -6.946227
     89          8           0        5.813678   -3.985084   -4.476124
 ---------------------------------------------------------------------

 SCF Done:  E(RB3LYP) =  -2042.55910689     A.U. after    1 cycles

 Alpha  occ. eigenvalues --  -19.25156 -19.19711 -19.19115 -19.18829 -19.16909
 Alpha  occ. eigenvalues --  -19.10792 -19.10366 -14.59555 -14.58162 -14.47537
 Alpha  occ. eigenvalues --  -14.43987 -14.43164 -14.42302 -14.39734 -10.41806
 Alpha  occ. eigenvalues --  -10.39324 -10.36650 -10.35588 -10.33634 -10.32202
 Alpha  occ. eigenvalues --  -10.32189 -10.31666 -10.30157 -10.29366 -10.29213
 Alpha  occ. eigenvalues --  -10.28631 -10.28404 -10.28193 -10.28095 -10.27676
 Alpha  occ. eigenvalues --  -10.27265 -10.25891 -10.24908 -10.24607 -10.24527
 Alpha  occ. eigenvalues --  -10.24526 -10.24503 -10.24389 -10.24347 -10.24251
 Alpha  occ. eigenvalues --  -10.24007 -10.23713 -10.23417  -1.17677  -1.13087
 Alpha  occ. eigenvalues --   -1.11957  -1.11806  -1.10759  -1.08194  -1.06702
 Alpha  occ. eigenvalues --   -1.04348  -1.04007  -1.03871  -0.99873  -0.99055
 Alpha  occ. eigenvalues --   -0.96738  -0.94858  -0.93051  -0.89699  -0.88504
 Alpha  occ. eigenvalues --   -0.88153  -0.86400  -0.84672  -0.83180  -0.81737
 Alpha  occ. eigenvalues --   -0.80447  -0.79252  -0.78755  -0.77630  -0.76271
 Alpha  occ. eigenvalues --   -0.76159  -0.74545  -0.73007  -0.72581  -0.72195
 Alpha  occ. eigenvalues --   -0.72039  -0.70786  -0.70628  -0.69330  -0.68412
 Alpha  occ. eigenvalues --   -0.68013  -0.66525  -0.65643  -0.65178  -0.64265
 Alpha  occ. eigenvalues --   -0.64015  -0.63573  -0.62455  -0.62182  -0.61759
 Alpha  occ. eigenvalues --   -0.60868  -0.59611  -0.59394  -0.58577  -0.57504
 Alpha  occ. eigenvalues --   -0.56819  -0.56483  -0.55375  -0.54666  -0.54468
 Alpha  occ. eigenvalues --   -0.54073  -0.53717  -0.53374  -0.53270  -0.52687
 Alpha  occ. eigenvalues --   -0.52301  -0.51887  -0.51746  -0.51348  -0.50649
 Alpha  occ. eigenvalues --   -0.50184  -0.50020  -0.49537  -0.48771  -0.48672
 Alpha  occ. eigenvalues --   -0.48560  -0.48240  -0.48030  -0.47784  -0.47193
 Alpha  occ. eigenvalues --   -0.46918  -0.46621  -0.46520  -0.46420  -0.45863
 Alpha  occ. eigenvalues --   -0.45430  -0.45248  -0.44766  -0.44381  -0.44158
 Alpha  occ. eigenvalues --   -0.43787  -0.43478  -0.43069  -0.42573  -0.42165
 Alpha  occ. eigenvalues --   -0.41895  -0.41757  -0.41667  -0.41056  -0.40724
 Alpha  occ. eigenvalues --   -0.40086  -0.39702  -0.39611  -0.39186  -0.38955
 Alpha  occ. eigenvalues --   -0.38694  -0.38504  -0.37625  -0.37177  -0.34330
 Alpha  occ. eigenvalues --   -0.33739  -0.33406  -0.32982  -0.32381  -0.31416
 Alpha  occ. eigenvalues --   -0.30734  -0.30198  -0.27992  -0.26546  -0.26234
 Alpha  occ. eigenvalues --   -0.25358  -0.24282
 Alpha virt. eigenvalues --   -0.11416  -0.09958  -0.09437  -0.06952  -0.05925
 Alpha virt. eigenvalues --   -0.05291  -0.04601  -0.03412  -0.03086  -0.02801
 Alpha virt. eigenvalues --   -0.02680  -0.02483  -0.01221  -0.00198   0.00449

 Mulliken charges:
               1
     1  N   -0.746497
     2  H    0.415284
     3  H    0.426376
     4  H    0.412394
     5  C   -0.125113
     6  H    0.208903
     7  C    0.640704
     8  C   -0.282801
     9  H    0.158560
    10  H    0.167730
    11  O   -0.542804
    12  C   -0.100706
    13  H    0.174942
    14  C   -0.460155
    15  H    0.144202
    16  H    0.134493
    17  H    0.191010
    18  C   -0.450685
    19  H    0.138077
    20  H    0.143211
    21  H    0.200251
    22  N   -0.597543
    23  H    0.381098
    24  C   -0.073205
    25  H    0.196950
    26  C    0.641941
    27  C   -0.343989
    28  H    0.167934
    29  H    0.161831
    30  O   -0.567572
    31  C    0.048213
    32  C    0.011693
    33  H    0.160405
    34  C    0.062176
    35  C    0.325540
    36  C   -0.223011
    37  H    0.134073
    38  N   -0.687798
    39  H    0.336652
    40  C   -0.147257
    41  H    0.130462
    42  C   -0.151077
    43  H    0.133503
    44  C   -0.137334
    45  H    0.124686
    46  N   -0.611140
    47  H    0.381192
    48  C   -0.049976
    49  H    0.174093
    50  C    0.604822
    51  C   -0.068445
    52  H    0.183491
    53  H    0.130039
    54  O   -0.522387
    55  O   -0.653338
    56  H    0.453156
    57  N   -0.582193
    58  H    0.331238
    59  C   -0.072819
    60  H    0.191620
    61  C    0.643192
    62  C   -0.470574
    63  H    0.184544
    64  H    0.159354
    65  H    0.170186
    66  O   -0.589135
    67  N   -0.597615
    68  H    0.349940
    69  C   -0.028653
    70  H    0.162841
    71  C    0.564697
    72  C   -0.278393
    73  H    0.158591
    74  H    0.126709
    75  O   -0.590910
    76  C   -0.268590
    77  H    0.197064
    78  H    0.138272
    79  C   -0.286687
    80  H    0.135505
    81  H    0.138285
    82  C   -0.229933
    83  H    0.244234
    84  H    0.256311
    85  N   -0.736915
    86  H    0.426675
    87  H    0.407811
    88  H    0.406417
    89  O   -0.618325
 Sum of Mulliken charges =   1.00000

 Dipole moment (field-independent basis, Debye):
    X=            -10.0461    Y=            -12.0682    Z=             -4.4455  Tot=             16.3195
 Quadrupole moment (field-independent basis, Debye-Ang):
   XX=           -192.8257   YY=           -103.7576   ZZ=            -86.4947
   XY=            -10.3073   XZ=           -104.6638   YZ=            100.9170

 Normal termination of Gaussian 16 at Thu Jun 23 19:23:30 2022.
