 Gaussian 16, Revision C.01,
 Gaussian 16:  ES64L-G16RevC.01  3-Jul-2019

 ----------------------------------------------------------------------
 # B3LYP/6-31G* empiricaldispersion=gd3 guess=read geom=check nosymm in
 tegral(ultrafinegrid)
 ----------------------------------------------------------------------

 ------------------------------------------------------
 Candidate Structure: Conf:231 Charge calc in gas phase
 ------------------------------------------------------
 Structure from the checkpoint file:  "conf-231.chk"
 Charge =  1 Multiplicity = 1

                          Input orientation:
 ---------------------------------------------------------------------
 Center     Atomic      Atomic             Coordinates (Angstroms)
 Number     Number       Type             X           Y           Z
 ---------------------------------------------------------------------
      1          7           0       -1.464708   -3.222218    3.167104
      2          1           0       -2.163556   -3.966772    3.242583
      3          1           0       -0.965772   -3.318346    2.235487
      4          1           0       -0.806593   -3.302540    3.947400
      5          6           0       -2.069270   -1.831759    3.054589
      6          1           0       -3.096323   -1.876106    3.422259
      7          6           0       -2.003221   -1.571855    1.529704
      8          6           0       -1.202757   -0.851431    3.868575
      9          1           0       -1.177027   -1.219944    4.905332
     10          1           0       -0.186699   -0.872996    3.457807
     11          8           0       -1.253542   -2.290605    0.856070
     12          6           0       -1.679067    0.616466    3.889059
     13          1           0       -1.645997    1.004096    2.864521
     14          6           0       -3.102853    0.769918    4.444854
     15          1           0       -3.172727    0.370825    5.464697
     16          1           0       -3.866699    0.258082    3.841765
     17          1           0       -3.385905    1.826376    4.483621
     18          6           0       -0.676911    1.440941    4.711924
     19          1           0       -0.654678    1.109234    5.757758
     20          1           0        0.332666    1.350733    4.298280
     21          1           0       -0.957593    2.499049    4.703687
     22          7           0       -2.746966   -0.574918    1.037242
     23          1           0       -3.227070    0.033930    1.689305
     24          6           0       -2.455162    0.004210   -0.290866
     25          1           0       -2.362545   -0.823576   -0.996981
     26          6           0       -1.124316    0.759169   -0.128682
     27          6           0       -3.572501    0.959591   -0.728198
     28          1           0       -4.526220    0.416351   -0.713118
     29          1           0       -3.633036    1.775767    0.001147
     30          8           0       -1.077285    1.768125    0.591172
     31          6           0       -3.276676    1.501959   -2.092277
     32          6           0       -2.804754    2.755632   -2.396144
     33          1           0       -2.606574    3.590700   -1.738467
     34          6           0       -3.335060    0.767637   -3.330813
     35          6           0       -2.890512    1.646086   -4.355635
     36          6           0       -3.717840   -0.541022   -3.672495
     37          1           0       -4.072449   -1.230951   -2.909823
     38          7           0       -2.573332    2.848244   -3.752120
     39          1           0       -2.264506    3.678373   -4.233912
     40          6           0       -3.207400   -0.045453   -6.003463
     41          1           0       -3.167624   -0.382003   -7.035245
     42          6           0       -2.823996    1.255075   -5.696347
     43          1           0       -2.485586    1.940181   -6.468658
     44          6           0       -3.650120   -0.935543   -5.002532
     45          1           0       -3.945460   -1.942862   -5.281564
     46          7           0       -0.057661    0.202295   -0.715362
     47          1           0       -0.130839   -0.643442   -1.273087
     48          6           0        1.294361    0.686668   -0.508319
     49          1           0        1.274843    1.782429   -0.525390
     50          6           0        2.159912    0.122586   -1.641291
     51          6           0        1.866958    0.198055    0.849931
     52          1           0        2.836808    0.683182    1.024201
     53          1           0        2.052271   -0.878326    0.797805
     54          8           0        1.808787   -0.878785   -2.254696
     55          8           0        0.966949    0.423422    1.928450
     56          1           0        0.466571    1.239941    1.742699
     57          7           0        3.326498    0.786846   -1.875407
     58          1           0        3.610609    1.450135   -1.163742
     59          6           0        4.423636    0.069790   -2.510949
     60          1           0        4.020925   -0.405607   -3.410069
     61          6           0        4.919707   -1.038843   -1.545932
     62          6           0        5.549074    1.041642   -2.881966
     63          1           0        6.363433    0.518790   -3.390970
     64          1           0        5.968208    1.512398   -1.984405
     65          1           0        5.172247    1.825408   -3.545584
     66          8           0        4.568570   -1.072811   -0.366646
     67          7           0        5.765327   -1.932601   -2.097832
     68          1           0        6.050875   -1.871168   -3.069011
     69          6           0        6.380320   -3.008751   -1.337564
     70          1           0        6.754144   -2.611489   -0.388985
     71          6           0        7.516318   -3.563261   -2.183423
     72          6           0        5.380467   -4.169600   -1.038122
     73          1           0        5.723122   -4.683695   -0.134225
     74          1           0        4.431563   -3.687928   -0.786414
     75          8           0        8.223943   -4.487866   -1.550895
     76          6           0        5.202559   -5.198850   -2.187463
     77          1           0        4.138569   -5.438924   -2.286381
     78          1           0        5.474540   -4.729780   -3.141965
     79          6           0        5.997620   -6.522351   -1.981800
     80          1           0        5.299215   -7.310504   -1.673030
     81          1           0        6.708789   -6.406138   -1.158322
     82          6           0        6.775329   -7.058859   -3.193445
     83          1           0        7.133991   -8.064208   -2.948125
     84          1           0        6.106011   -7.161831   -4.060773
     85          7           0        7.971599   -6.241227   -3.527610
     86          1           0        7.724859   -5.469310   -4.146624
     87          1           0        8.472089   -5.191806   -2.253361
     88          1           0        8.653322   -6.804983   -4.030999
     89          8           0        7.632567   -3.282705   -3.369266
 ---------------------------------------------------------------------

 SCF Done:  E(RB3LYP) =  -2042.60633980     A.U. after    1 cycles

 Alpha  occ. eigenvalues --  -19.27022 -19.22967 -19.22896 -19.21230 -19.20365
 Alpha  occ. eigenvalues --  -19.19996 -19.18435 -14.59972 -14.49912 -14.45521
 Alpha  occ. eigenvalues --  -14.44733 -14.44079 -14.42491 -14.40059 -10.43610
 Alpha  occ. eigenvalues --  -10.40392 -10.38460 -10.37735 -10.37356 -10.35408
 Alpha  occ. eigenvalues --  -10.33970 -10.32273 -10.32013 -10.31697 -10.30908
 Alpha  occ. eigenvalues --  -10.29980 -10.29851 -10.28949 -10.28581 -10.28350
 Alpha  occ. eigenvalues --  -10.28220 -10.27858 -10.26397 -10.26169 -10.25427
 Alpha  occ. eigenvalues --  -10.25121 -10.25087 -10.25048 -10.24991 -10.24647
 Alpha  occ. eigenvalues --  -10.24550 -10.24307 -10.24253  -1.19461  -1.15362
 Alpha  occ. eigenvalues --   -1.13972  -1.13406  -1.12304  -1.10116  -1.09854
 Alpha  occ. eigenvalues --   -1.06720  -1.06281  -1.04605  -1.01877  -1.00798
 Alpha  occ. eigenvalues --   -0.99150  -0.95675  -0.94164  -0.90609  -0.89727
 Alpha  occ. eigenvalues --   -0.87745  -0.87043  -0.85793  -0.84203  -0.82836
 Alpha  occ. eigenvalues --   -0.80905  -0.80016  -0.79776  -0.78641  -0.77927
 Alpha  occ. eigenvalues --   -0.75998  -0.75640  -0.73996  -0.73698  -0.72966
 Alpha  occ. eigenvalues --   -0.72567  -0.71437  -0.69158  -0.68668  -0.68605
 Alpha  occ. eigenvalues --   -0.67461  -0.66946  -0.65970  -0.65851  -0.65192
 Alpha  occ. eigenvalues --   -0.65067  -0.63463  -0.62990  -0.62766  -0.61610
 Alpha  occ. eigenvalues --   -0.60621  -0.59823  -0.59614  -0.59479  -0.58406
 Alpha  occ. eigenvalues --   -0.57511  -0.57222  -0.56963  -0.55871  -0.55447
 Alpha  occ. eigenvalues --   -0.55115  -0.54919  -0.54571  -0.53922  -0.53711
 Alpha  occ. eigenvalues --   -0.53453  -0.53057  -0.52925  -0.52502  -0.51821
 Alpha  occ. eigenvalues --   -0.51684  -0.51248  -0.50715  -0.50197  -0.49837
 Alpha  occ. eigenvalues --   -0.49568  -0.49463  -0.49201  -0.48945  -0.48580
 Alpha  occ. eigenvalues --   -0.48371  -0.48135  -0.47850  -0.47539  -0.47354
 Alpha  occ. eigenvalues --   -0.47116  -0.46889  -0.46584  -0.46364  -0.45870
 Alpha  occ. eigenvalues --   -0.45792  -0.44720  -0.44576  -0.44303  -0.43964
 Alpha  occ. eigenvalues --   -0.43594  -0.43334  -0.43314  -0.42763  -0.42557
 Alpha  occ. eigenvalues --   -0.41966  -0.41698  -0.41354  -0.40212  -0.39791
 Alpha  occ. eigenvalues --   -0.39596  -0.39526  -0.38998  -0.38635  -0.36663
 Alpha  occ. eigenvalues --   -0.36425  -0.35585  -0.34969  -0.34206  -0.33937
 Alpha  occ. eigenvalues --   -0.33705  -0.33467  -0.32849  -0.31926  -0.31762
 Alpha  occ. eigenvalues --   -0.28655  -0.27037
 Alpha virt. eigenvalues --   -0.12655  -0.10868  -0.08090  -0.07569  -0.06509
 Alpha virt. eigenvalues --   -0.06095  -0.05682  -0.05251  -0.04300  -0.03751
 Alpha virt. eigenvalues --   -0.02026  -0.01396  -0.00539  -0.00221  -0.00039

 Mulliken charges:
               1
     1  N   -0.753799
     2  H    0.414813
     3  H    0.433896
     4  H    0.415246
     5  C   -0.127060
     6  H    0.210419
     7  C    0.667313
     8  C   -0.296190
     9  H    0.152181
    10  H    0.216417
    11  O   -0.534325
    12  C   -0.120377
    13  H    0.169023
    14  C   -0.467053
    15  H    0.159662
    16  H    0.122381
    17  H    0.183418
    18  C   -0.462455
    19  H    0.148879
    20  H    0.177743
    21  H    0.167014
    22  N   -0.599232
    23  H    0.365444
    24  C   -0.057606
    25  H    0.191981
    26  C    0.662620
    27  C   -0.379706
    28  H    0.165878
    29  H    0.168172
    30  O   -0.577270
    31  C    0.040622
    32  C    0.014615
    33  H    0.167543
    34  C    0.086908
    35  C    0.314470
    36  C   -0.214705
    37  H    0.113912
    38  N   -0.688714
    39  H    0.337868
    40  C   -0.149553
    41  H    0.139294
    42  C   -0.157428
    43  H    0.136712
    44  C   -0.136661
    45  H    0.131980
    46  N   -0.577921
    47  H    0.370831
    48  C   -0.133176
    49  H    0.182999
    50  C    0.635351
    51  C    0.008356
    52  H    0.150042
    53  H    0.170400
    54  O   -0.523534
    55  O   -0.658508
    56  H    0.427612
    57  N   -0.578663
    58  H    0.333977
    59  C   -0.078647
    60  H    0.194272
    61  C    0.641616
    62  C   -0.468369
    63  H    0.175241
    64  H    0.161531
    65  H    0.178065
    66  O   -0.550748
    67  N   -0.615359
    68  H    0.354047
    69  C   -0.031739
    70  H    0.188249
    71  C    0.597525
    72  C   -0.268690
    73  H    0.156261
    74  H    0.170114
    75  O   -0.593690
    76  C   -0.296063
    77  H    0.146120
    78  H    0.146411
    79  C   -0.269642
    80  H    0.141010
    81  H    0.165180
    82  C   -0.146973
    83  H    0.155713
    84  H    0.144514
    85  N   -0.783124
    86  H    0.348583
    87  H    0.449822
    88  H    0.330972
    89  O   -0.504259
 Sum of Mulliken charges =   1.00000

 Dipole moment (field-independent basis, Debye):
    X=             -2.1142    Y=             -9.5051    Z=              5.7208  Tot=             11.2935
 Quadrupole moment (field-independent basis, Debye-Ang):
   XX=           -194.8469   YY=           -161.4038   ZZ=           -176.7973
   XY=            -16.0981   XZ=            -50.5986   YZ=            -24.3420

 Normal termination of Gaussian 16 at Thu Jun 23 19:25:34 2022.
