 Gaussian 16, Revision C.01,
 Gaussian 16:  ES64L-G16RevC.01  3-Jul-2019

 ----------------------------------------------------------------------
 # B3LYP/6-31G* empiricaldispersion=gd3 guess=read geom=check nosymm in
 tegral(ultrafinegrid)
 ----------------------------------------------------------------------

 ------------------------------------------------------
 Candidate Structure: Conf:102 Charge calc in gas phase
 ------------------------------------------------------
 Structure from the checkpoint file:  "conf-102.chk"
 Charge =  1 Multiplicity = 1

                          Input orientation:
 ---------------------------------------------------------------------
 Center     Atomic      Atomic             Coordinates (Angstroms)
 Number     Number       Type             X           Y           Z
 ---------------------------------------------------------------------
      1          7           0       -4.446006   -1.994656    1.019572
      2          1           0       -4.822274   -1.409367    1.784303
      3          1           0       -5.172064   -2.020803    0.266131
      4          1           0       -4.216169   -2.930017    1.364286
      5          6           0       -3.276319   -1.291453    0.373580
      6          1           0       -2.850005   -0.629392    1.128530
      7          6           0       -3.932520   -0.447172   -0.738919
      8          6           0       -2.236198   -2.268905   -0.176336
      9          1           0       -2.751813   -3.038414   -0.768663
     10          1           0       -1.612757   -1.710374   -0.882582
     11          8           0       -5.078847   -0.711717   -1.114916
     12          6           0       -1.301345   -2.910219    0.868946
     13          1           0       -1.889330   -3.538319    1.560634
     14          6           0       -0.306450   -3.818965    0.130013
     15          1           0        0.282701   -3.225652   -0.579787
     16          1           0       -0.821389   -4.603573   -0.436199
     17          1           0        0.377895   -4.304279    0.833567
     18          6           0       -0.558677   -1.843090    1.690590
     19          1           0       -0.078450   -1.111757    1.029275
     20          1           0       -1.223427   -1.292268    2.368243
     21          1           0        0.213817   -2.307187    2.312351
     22          7           0       -3.129967    0.518711   -1.182537
     23          1           0       -2.252211    0.662194   -0.674550
     24          6           0       -3.502263    1.645969   -2.046671
     25          1           0       -4.035975    1.261746   -2.922517
     26          6           0       -2.143953    2.279919   -2.460029
     27          6           0       -4.384929    2.670114   -1.280861
     28          1           0       -4.377334    3.606999   -1.843004
     29          1           0       -5.411554    2.292373   -1.264685
     30          8           0       -1.949853    3.485913   -2.412152
     31          6           0       -3.879300    2.862299    0.123132
     32          6           0       -2.810750    3.622670    0.516225
     33          1           0       -2.235564    4.330506   -0.062372
     34          6           0       -4.270472    2.081880    1.277149
     35          6           0       -3.359733    2.383312    2.326149
     36          6           0       -5.316656    1.176517    1.527142
     37          1           0       -6.047103    0.956324    0.754680
     38          7           0       -2.448991    3.304267    1.826686
     39          1           0       -1.897223    3.913328    2.416488
     40          6           0       -4.467075    0.867535    3.800504
     41          1           0       -4.569666    0.399371    4.774865
     42          6           0       -3.435661    1.776525    3.584260
     43          1           0       -2.726216    2.016291    4.371126
     44          6           0       -5.409123    0.580045    2.785967
     45          1           0       -6.261185   -0.057038    3.018755
     46          7           0       -1.172545    1.361679   -2.752514
     47          1           0       -1.449182    0.382948   -2.726296
     48          6           0        0.198035    1.509661   -2.280674
     49          1           0        0.794475    2.132636   -2.957064
     50          6           0        0.788313    0.082647   -2.206878
     51          6           0        0.260309    2.143876   -0.873576
     52          1           0       -0.076799    3.181736   -0.937344
     53          1           0        1.297604    2.122446   -0.516554
     54          8           0        0.049613   -0.908412   -2.139559
     55          8           0       -0.587052    1.388684    0.008140
     56          1           0       -0.875198    1.971137    0.731912
     57          7           0        2.124250    0.020411   -2.166827
     58          1           0        2.714984    0.849924   -2.199187
     59          6           0        2.869541   -1.212217   -1.957719
     60          1           0        2.418109   -1.755985   -1.117665
     61          6           0        4.297009   -0.768214   -1.573927
     62          6           0        2.858311   -2.109335   -3.206231
     63          1           0        3.397275   -3.044108   -3.022687
     64          1           0        3.333650   -1.595334   -4.047421
     65          1           0        1.825304   -2.348120   -3.470544
     66          8           0        4.629397    0.417230   -1.647913
     67          7           0        5.126093   -1.754735   -1.189959
     68          1           0        4.815006   -2.717397   -1.116768
     69          6           0        6.529950   -1.533523   -0.872674
     70          1           0        6.948034   -0.817407   -1.583581
     71          6           0        7.258545   -2.862574   -0.996220
     72          6           0        6.708231   -0.981221    0.577921
     73          1           0        6.436362    0.078089    0.538424
     74          1           0        5.961429   -1.477301    1.210644
     75          8           0        8.540613   -2.693726   -1.271133
     76          6           0        8.112122   -1.167973    1.196702
     77          1           0        8.870375   -1.038427    0.418875
     78          1           0        8.280175   -0.365546    1.923793
     79          6           0        8.299427   -2.535339    1.915843
     80          1           0        7.537270   -3.249535    1.580914
     81          1           0        8.110250   -2.391725    2.986048
     82          6           0        9.680306   -3.204145    1.758629
     83          1           0       10.459019   -2.445487    1.623385
     84          1           0        9.928865   -3.759895    2.673308
     85          7           0        9.727881   -4.106156    0.576455
     86          1           0       10.667998   -4.479918    0.452150
     87          1           0        9.111411   -4.905110    0.728475
     88          1           0        9.088987   -3.393896   -0.739590
     89          8           0        6.712451   -3.927255   -0.742335
 ---------------------------------------------------------------------

 SCF Done:  E(RB3LYP) =  -2042.62679686     A.U. after    1 cycles

 Alpha  occ. eigenvalues --  -19.26952 -19.24885 -19.22230 -19.21913 -19.21760
 Alpha  occ. eigenvalues --  -19.19829 -19.19459 -14.58000 -14.48756 -14.47330
 Alpha  occ. eigenvalues --  -14.45245 -14.44529 -14.43743 -14.41656 -10.41446
 Alpha  occ. eigenvalues --  -10.38803 -10.38605 -10.37875 -10.37303 -10.36920
 Alpha  occ. eigenvalues --  -10.34201 -10.33940 -10.33663 -10.32925 -10.32261
 Alpha  occ. eigenvalues --  -10.31805 -10.30455 -10.30103 -10.29976 -10.29864
 Alpha  occ. eigenvalues --  -10.29710 -10.29571 -10.29504 -10.29281 -10.28717
 Alpha  occ. eigenvalues --  -10.28690 -10.28484 -10.27248 -10.26496 -10.26114
 Alpha  occ. eigenvalues --  -10.25556 -10.25119 -10.24698  -1.17104  -1.14670
 Alpha  occ. eigenvalues --   -1.14446  -1.13234  -1.13017  -1.12100  -1.11634
 Alpha  occ. eigenvalues --   -1.08277  -1.06228  -1.05270  -1.01960  -1.01502
 Alpha  occ. eigenvalues --   -1.00266  -0.97065  -0.94831  -0.93125  -0.90716
 Alpha  occ. eigenvalues --   -0.88545  -0.87586  -0.86460  -0.85271  -0.84454
 Alpha  occ. eigenvalues --   -0.84045  -0.82100  -0.81337  -0.78625  -0.77764
 Alpha  occ. eigenvalues --   -0.76869  -0.76465  -0.75456  -0.73116  -0.72772
 Alpha  occ. eigenvalues --   -0.71872  -0.71113  -0.70238  -0.69651  -0.69546
 Alpha  occ. eigenvalues --   -0.68566  -0.67290  -0.66784  -0.66547  -0.65970
 Alpha  occ. eigenvalues --   -0.65891  -0.65480  -0.64193  -0.63916  -0.63033
 Alpha  occ. eigenvalues --   -0.61895  -0.60874  -0.59172  -0.59044  -0.58090
 Alpha  occ. eigenvalues --   -0.57855  -0.57696  -0.57552  -0.57307  -0.56412
 Alpha  occ. eigenvalues --   -0.56192  -0.55846  -0.55388  -0.54929  -0.54495
 Alpha  occ. eigenvalues --   -0.54335  -0.54123  -0.53887  -0.53442  -0.52769
 Alpha  occ. eigenvalues --   -0.52570  -0.52250  -0.52017  -0.51798  -0.51567
 Alpha  occ. eigenvalues --   -0.51078  -0.50996  -0.50212  -0.49951  -0.49737
 Alpha  occ. eigenvalues --   -0.49374  -0.48959  -0.48526  -0.48360  -0.48067
 Alpha  occ. eigenvalues --   -0.47905  -0.47839  -0.47464  -0.47165  -0.46881
 Alpha  occ. eigenvalues --   -0.46391  -0.45938  -0.45803  -0.45294  -0.44801
 Alpha  occ. eigenvalues --   -0.44720  -0.44254  -0.43843  -0.43609  -0.43367
 Alpha  occ. eigenvalues --   -0.43116  -0.43011  -0.42767  -0.42388  -0.40291
 Alpha  occ. eigenvalues --   -0.39807  -0.39765  -0.39540  -0.38901  -0.38108
 Alpha  occ. eigenvalues --   -0.37707  -0.36013  -0.35881  -0.35653  -0.35159
 Alpha  occ. eigenvalues --   -0.34501  -0.34097  -0.33984  -0.33613  -0.33213
 Alpha  occ. eigenvalues --   -0.32137  -0.31007
 Alpha virt. eigenvalues --   -0.12352  -0.10759  -0.09944  -0.08756  -0.07954
 Alpha virt. eigenvalues --   -0.07643  -0.05907  -0.04840  -0.04704  -0.04137
 Alpha virt. eigenvalues --   -0.02972  -0.01762  -0.00737  -0.00259  -0.00124

 Mulliken charges:
               1
     1  N   -0.755498
     2  H    0.401055
     3  H    0.416982
     4  H    0.406031
     5  C   -0.130954
     6  H    0.214529
     7  C    0.664903
     8  C   -0.323590
     9  H    0.156681
    10  H    0.240597
    11  O   -0.546516
    12  C   -0.080059
    13  H    0.108241
    14  C   -0.462758
    15  H    0.178074
    16  H    0.153210
    17  H    0.157893
    18  C   -0.473499
    19  H    0.178969
    20  H    0.131529
    21  H    0.164723
    22  N   -0.665383
    23  H    0.409538
    24  C   -0.047269
    25  H    0.204678
    26  C    0.589560
    27  C   -0.353791
    28  H    0.200106
    29  H    0.172599
    30  O   -0.505502
    31  C    0.067844
    32  C   -0.033423
    33  H    0.201560
    34  C    0.085602
    35  C    0.286363
    36  C   -0.233312
    37  H    0.170387
    38  N   -0.698973
    39  H    0.351609
    40  C   -0.151653
    41  H    0.154743
    42  C   -0.163354
    43  H    0.153896
    44  C   -0.223752
    45  H    0.152555
    46  N   -0.604156
    47  H    0.363891
    48  C   -0.045375
    49  H    0.193285
    50  C    0.627675
    51  C   -0.077111
    52  H    0.188660
    53  H    0.165052
    54  O   -0.551813
    55  O   -0.648235
    56  H    0.431085
    57  N   -0.611926
    58  H    0.365230
    59  C   -0.049692
    60  H    0.174793
    61  C    0.624137
    62  C   -0.452044
    63  H    0.161379
    64  H    0.172568
    65  H    0.187382
    66  O   -0.541898
    67  N   -0.622548
    68  H    0.349912
    69  C   -0.003908
    70  H    0.192953
    71  C    0.574720
    72  C   -0.281080
    73  H    0.172136
    74  H    0.140999
    75  O   -0.598099
    76  C   -0.285285
    77  H    0.173234
    78  H    0.147078
    79  C   -0.292967
    80  H    0.161084
    81  H    0.150039
    82  C   -0.142776
    83  H    0.167178
    84  H    0.150089
    85  N   -0.779447
    86  H    0.336572
    87  H    0.341401
    88  H    0.459751
    89  O   -0.509096
 Sum of Mulliken charges =   1.00000

 Dipole moment (field-independent basis, Debye):
    X=             -2.4122    Y=             -5.5935    Z=              8.1326  Tot=             10.1609
 Quadrupole moment (field-independent basis, Debye-Ang):
   XX=           -112.7658   YY=           -210.9768   ZZ=           -231.5828
   XY=            -18.8128   XZ=              0.2060   YZ=             -5.2139

 Normal termination of Gaussian 16 at Thu Jun 23 19:22:24 2022.
