 Gaussian 16, Revision C.01,
 Gaussian 16:  ES64L-G16RevC.01  3-Jul-2019

 ----------------------------------------------------------------------
 # B3LYP/6-31G* empiricaldispersion=gd3 guess=read geom=check nosymm in
 tegral(ultrafinegrid)
 ----------------------------------------------------------------------

 ------------------------------------------------------
 Candidate Structure: Conf:669 Charge calc in gas phase
 ------------------------------------------------------
 Structure from the checkpoint file:  "conf-669.chk"
 Charge =  1 Multiplicity = 1

                          Input orientation:
 ---------------------------------------------------------------------
 Center     Atomic      Atomic             Coordinates (Angstroms)
 Number     Number       Type             X           Y           Z
 ---------------------------------------------------------------------
      1          7           0       -1.121540   -0.794027    2.354011
      2          1           0       -0.785197   -0.852790    3.317295
      3          1           0       -0.953015   -1.675435    1.847933
      4          1           0       -0.599440   -0.042100    1.807689
      5          6           0       -2.607608   -0.513283    2.265988
      6          1           0       -3.108569   -1.311450    2.821430
      7          6           0       -2.869614   -0.718857    0.752063
      8          6           0       -2.933282    0.864160    2.843507
      9          1           0       -2.496802    1.635555    2.197253
     10          1           0       -4.021522    0.996994    2.788217
     11          8           0       -2.241277   -1.611756    0.177816
     12          6           0       -2.494630    1.099841    4.304599
     13          1           0       -1.394186    1.049694    4.352526
     14          6           0       -2.898553    2.518564    4.731327
     15          1           0       -3.987351    2.639435    4.693871
     16          1           0       -2.461287    3.273774    4.069731
     17          1           0       -2.564940    2.725064    5.753317
     18          6           0       -3.073956    0.052414    5.267090
     19          1           0       -4.169878    0.048232    5.220626
     20          1           0       -2.729205   -0.967957    5.052624
     21          1           0       -2.786068    0.276989    6.298832
     22          7           0       -3.697893    0.147668    0.147041
     23          1           0       -4.107126    0.900035    0.689841
     24          6           0       -3.580443    0.421778   -1.296163
     25          1           0       -3.663980   -0.530417   -1.824474
     26          6           0       -2.159866    1.005433   -1.415597
     27          6           0       -4.672027    1.433577   -1.785859
     28          1           0       -4.162227    2.357251   -2.076679
     29          1           0       -5.131376    1.020470   -2.688051
     30          8           0       -1.907554    2.124390   -0.932954
     31          6           0       -5.727039    1.757284   -0.770783
     32          6           0       -6.992826    1.232799   -0.678010
     33          1           0       -7.501223    0.542172   -1.337031
     34          6           0       -5.561490    2.630759    0.368781
     35          6           0       -6.770893    2.577311    1.116816
     36          6           0       -4.503543    3.442304    0.825185
     37          1           0       -3.574933    3.492588    0.263978
     38          7           0       -7.621298    1.717929    0.451150
     39          1           0       -8.581568    1.537720    0.702414
     40          6           0       -5.884450    4.092462    2.730145
     41          1           0       -5.991348    4.675423    3.640348
     42          6           0       -6.945476    3.301408    2.300923
     43          1           0       -7.875578    3.254913    2.860293
     44          6           0       -4.678948    4.164571    1.999526
     45          1           0       -3.879569    4.805705    2.359736
     46          7           0       -1.212816    0.198898   -1.912406
     47          1           0       -1.415127   -0.761126   -2.177397
     48          6           0        0.201983    0.524077   -1.830289
     49          1           0        0.334770    1.575791   -2.105668
     50          6           0        0.942216   -0.418250   -2.793597
     51          6           0        0.765265    0.275648   -0.410697
     52          1           0        1.814651    0.581069   -0.366538
     53          1           0        0.730807   -0.797831   -0.201035
     54          8           0        0.441074   -1.489296   -3.112195
     55          8           0        0.015546    0.953592    0.616654
     56          1           0       -0.540507    1.653077    0.202327
     57          7           0        2.168249    0.004644   -3.205500
     58          1           0        2.553485    0.806249   -2.719749
     59          6           0        3.149908   -0.993667   -3.611126
     60          1           0        2.668839   -1.639289   -4.351446
     61          6           0        3.520404   -1.853982   -2.372704
     62          6           0        4.380166   -0.311940   -4.219195
     63          1           0        5.108255   -1.053250   -4.559442
     64          1           0        4.878521    0.325249   -3.478552
     65          1           0        4.089836    0.304926   -5.074604
     66          8           0        3.181750   -1.524199   -1.234169
     67          7           0        4.237646   -2.959144   -2.648069
     68          1           0        4.543489   -3.177196   -3.591015
     69          6           0        4.750820   -3.853647   -1.621839
     70          1           0        5.198129   -3.260100   -0.816989
     71          6           0        5.807031   -4.731444   -2.276986
     72          6           0        3.643096   -4.748209   -1.005637
     73          1           0        4.048393   -5.200355   -0.094061
     74          1           0        2.846292   -4.062598   -0.699755
     75          8           0        6.373461   -5.562255   -1.419281
     76          6           0        3.058890   -5.849726   -1.921051
     77          1           0        2.029594   -6.022198   -1.587221
     78          1           0        2.967561   -5.465120   -2.945864
     79          6           0        3.790855   -7.227146   -1.923162
     80          1           0        3.029768   -8.010480   -1.839683
     81          1           0        4.402138   -7.307862   -1.016523
     82          6           0        4.679619   -7.558080   -3.153575
     83          1           0        4.278515   -8.435592   -3.678156
     84          1           0        4.678696   -6.729983   -3.864871
     85          7           0        6.102514   -7.779675   -2.775374
     86          1           0        6.670099   -7.893501   -3.614375
     87          1           0        6.556991   -6.439741   -1.939176
     88          1           0        6.194165   -8.642048   -2.238445
     89          8           0        5.990559   -4.731403   -3.486851
 ---------------------------------------------------------------------

 SCF Done:  E(RB3LYP) =  -2042.62655638     A.U. after    1 cycles

 Alpha  occ. eigenvalues --  -19.26998 -19.24589 -19.22759 -19.22386 -19.21386
 Alpha  occ. eigenvalues --  -19.19654 -19.19219 -14.56591 -14.48031 -14.46890
 Alpha  occ. eigenvalues --  -14.46565 -14.45056 -14.43058 -14.41364 -10.41744
 Alpha  occ. eigenvalues --  -10.39765 -10.38476 -10.38358 -10.37419 -10.36154
 Alpha  occ. eigenvalues --  -10.34571 -10.34231 -10.34016 -10.31655 -10.31305
 Alpha  occ. eigenvalues --  -10.30753 -10.30642 -10.30444 -10.29969 -10.29080
 Alpha  occ. eigenvalues --  -10.28177 -10.28028 -10.27237 -10.27073 -10.26951
 Alpha  occ. eigenvalues --  -10.26813 -10.26732 -10.26683 -10.26613 -10.26288
 Alpha  occ. eigenvalues --  -10.25206 -10.25040 -10.25012  -1.17175  -1.15127
 Alpha  occ. eigenvalues --   -1.14953  -1.13421  -1.13080  -1.10935  -1.10813
 Alpha  occ. eigenvalues --   -1.06476  -1.06369  -1.04869  -1.03219  -1.01775
 Alpha  occ. eigenvalues --   -0.99697  -0.96642  -0.93396  -0.92207  -0.90103
 Alpha  occ. eigenvalues --   -0.88251  -0.87407  -0.86485  -0.84897  -0.83876
 Alpha  occ. eigenvalues --   -0.81795  -0.81338  -0.80438  -0.79029  -0.77743
 Alpha  occ. eigenvalues --   -0.77197  -0.76147  -0.74964  -0.72990  -0.71851
 Alpha  occ. eigenvalues --   -0.71475  -0.70520  -0.69824  -0.69521  -0.68923
 Alpha  occ. eigenvalues --   -0.68289  -0.67742  -0.67324  -0.66508  -0.65915
 Alpha  occ. eigenvalues --   -0.65111  -0.64160  -0.63231  -0.62884  -0.62098
 Alpha  occ. eigenvalues --   -0.61469  -0.61018  -0.60285  -0.59463  -0.58106
 Alpha  occ. eigenvalues --   -0.57930  -0.57027  -0.56967  -0.56851  -0.56464
 Alpha  occ. eigenvalues --   -0.55840  -0.55544  -0.54822  -0.54493  -0.54114
 Alpha  occ. eigenvalues --   -0.53490  -0.53329  -0.53193  -0.52923  -0.52905
 Alpha  occ. eigenvalues --   -0.52501  -0.52059  -0.51503  -0.51059  -0.50855
 Alpha  occ. eigenvalues --   -0.50761  -0.50647  -0.50011  -0.49568  -0.49387
 Alpha  occ. eigenvalues --   -0.48994  -0.48799  -0.48617  -0.48513  -0.48131
 Alpha  occ. eigenvalues --   -0.47935  -0.47595  -0.47272  -0.46949  -0.46786
 Alpha  occ. eigenvalues --   -0.46456  -0.46061  -0.45648  -0.44960  -0.44551
 Alpha  occ. eigenvalues --   -0.44362  -0.43904  -0.43668  -0.43580  -0.43315
 Alpha  occ. eigenvalues --   -0.43309  -0.42206  -0.41659  -0.41457  -0.39875
 Alpha  occ. eigenvalues --   -0.39770  -0.39607  -0.39146  -0.38995  -0.38580
 Alpha  occ. eigenvalues --   -0.37129  -0.36386  -0.35957  -0.35819  -0.35174
 Alpha  occ. eigenvalues --   -0.34784  -0.33743  -0.33256  -0.32711  -0.32406
 Alpha  occ. eigenvalues --   -0.30766  -0.28880
 Alpha virt. eigenvalues --   -0.12277  -0.09827  -0.09053  -0.07829  -0.07437
 Alpha virt. eigenvalues --   -0.06170  -0.05555  -0.04812  -0.02789  -0.02333
 Alpha virt. eigenvalues --   -0.01981  -0.01544  -0.00715  -0.00057   0.00196

 Mulliken charges:
               1
     1  N   -0.775934
     2  H    0.401795
     3  H    0.414477
     4  H    0.459428
     5  C   -0.123956
     6  H    0.220448
     7  C    0.639587
     8  C   -0.305619
     9  H    0.177911
    10  H    0.189461
    11  O   -0.536211
    12  C   -0.104821
    13  H    0.118936
    14  C   -0.447334
    15  H    0.165006
    16  H    0.157101
    17  H    0.164279
    18  C   -0.456376
    19  H    0.165879
    20  H    0.125550
    21  H    0.179052
    22  N   -0.614168
    23  H    0.387379
    24  C   -0.020573
    25  H    0.185618
    26  C    0.595679
    27  C   -0.393453
    28  H    0.197980
    29  H    0.174995
    30  O   -0.564925
    31  C    0.049508
    32  C    0.015117
    33  H    0.169542
    34  C    0.010437
    35  C    0.324205
    36  C   -0.236603
    37  H    0.174115
    38  N   -0.684513
    39  H    0.343372
    40  C   -0.156225
    41  H    0.144658
    42  C   -0.164996
    43  H    0.144223
    44  C   -0.145474
    45  H    0.137698
    46  N   -0.563987
    47  H    0.375590
    48  C   -0.135317
    49  H    0.194778
    50  C    0.636835
    51  C   -0.001802
    52  H    0.178494
    53  H    0.168429
    54  O   -0.517342
    55  O   -0.701137
    56  H    0.452938
    57  N   -0.576296
    58  H    0.334441
    59  C   -0.079106
    60  H    0.197898
    61  C    0.641528
    62  C   -0.471171
    63  H    0.179195
    64  H    0.161741
    65  H    0.181836
    66  O   -0.557566
    67  N   -0.614162
    68  H    0.355996
    69  C   -0.031798
    70  H    0.184783
    71  C    0.605580
    72  C   -0.267083
    73  H    0.158333
    74  H    0.161575
    75  O   -0.606315
    76  C   -0.285306
    77  H    0.145124
    78  H    0.147551
    79  C   -0.283775
    80  H    0.148379
    81  H    0.158230
    82  C   -0.160469
    83  H    0.149493
    84  H    0.185631
    85  N   -0.775261
    86  H    0.340077
    87  H    0.458902
    88  H    0.329444
    89  O   -0.507167
 Sum of Mulliken charges =   1.00000

 Dipole moment (field-independent basis, Debye):
    X=             -7.0878    Y=             -5.7614    Z=              3.8053  Tot=              9.8950
 Quadrupole moment (field-independent basis, Debye-Ang):
   XX=           -145.0045   YY=           -182.9322   ZZ=           -198.2750
   XY=            -42.9578   XZ=            -41.8947   YZ=             19.9003

 Normal termination of Gaussian 16 at Thu Jun 23 19:22:13 2022.
