 Gaussian 16, Revision C.01,
 Gaussian 16:  ES64L-G16RevC.01  3-Jul-2019

 ----------------------------------------------------------------------
 # B3LYP/6-31G* empiricaldispersion=gd3 guess=read geom=check nosymm in
 tegral(ultrafinegrid)
 ----------------------------------------------------------------------

 ------------------------------------------------------
 Candidate Structure: Conf:684 Charge calc in gas phase
 ------------------------------------------------------
 Structure from the checkpoint file:  "conf-684.chk"
 Charge =  1 Multiplicity = 1

                          Input orientation:
 ---------------------------------------------------------------------
 Center     Atomic      Atomic             Coordinates (Angstroms)
 Number     Number       Type             X           Y           Z
 ---------------------------------------------------------------------
      1          7           0       -2.146919   -2.722254   -0.202656
      2          1           0       -3.056235   -2.841545   -0.647842
      3          1           0       -0.833460   -3.234241   -1.221772
      4          1           0       -2.085954   -3.403413    0.554273
      5          6           0       -2.008702   -1.346892    0.336949
      6          1           0       -2.968625   -0.985750    0.730114
      7          6           0       -1.542842   -0.414035   -0.795114
      8          6           0       -0.966264   -1.327746    1.471609
      9          1           0       -1.287278   -2.040991    2.243241
     10          1           0       -0.028431   -1.713920    1.065645
     11          8           0       -0.540550   -0.644753   -1.473097
     12          6           0       -0.706829    0.041442    2.121956
     13          1           0       -0.394085    0.741607    1.337728
     14          6           0       -1.943683    0.613238    2.827825
     15          1           0       -2.263681   -0.049177    3.642056
     16          1           0       -2.796117    0.743705    2.152660
     17          1           0       -1.717487    1.592213    3.264528
     18          6           0        0.475512   -0.059161    3.095322
     19          1           0        0.256490   -0.754876    3.914952
     20          1           0        1.375046   -0.419524    2.581894
     21          1           0        0.704166    0.920875    3.524839
     22          7           0       -2.251278    0.737380   -0.949383
     23          1           0       -3.151728    0.819426   -0.488752
     24          6           0       -2.037261    1.591441   -2.119524
     25          1           0       -2.253989    1.026200   -3.032733
     26          6           0       -0.582862    2.043113   -2.260453
     27          6           0       -2.962742    2.835636   -2.059336
     28          1           0       -2.623969    3.482021   -1.239372
     29          1           0       -2.808238    3.393452   -2.988140
     30          8           0       -0.103159    2.224863   -3.384242
     31          6           0       -4.406832    2.479728   -1.867795
     32          6           0       -5.333053    2.185096   -2.839805
     33          1           0       -5.237192    2.222300   -3.916647
     34          6           0       -5.066034    2.274759   -0.600221
     35          6           0       -6.393621    1.847212   -0.880432
     36          6           0       -4.663237    2.412237    0.742597
     37          1           0       -3.665572    2.769705    0.985981
     38          7           0       -6.522365    1.803653   -2.253831
     39          1           0       -7.372728    1.590646   -2.753169
     40          6           0       -6.878549    1.679075    1.448477
     41          1           0       -7.566369    1.454628    2.258256
     42          6           0       -7.310078    1.548537    0.133107
     43          1           0       -8.321834    1.226897   -0.097368
     44          6           0       -5.569173    2.108588    1.751961
     45          1           0       -5.271030    2.215166    2.790897
     46          7           0        0.123050    2.271915   -1.128650
     47          1           0       -0.268548    1.973403   -0.243397
     48          6           0        1.519824    2.687913   -1.124173
     49          1           0        1.642966    3.437109   -1.917484
     50          6           0        2.490422    1.521450   -1.453779
     51          6           0        1.857179    3.299802    0.236709
     52          1           0        1.195567    4.150679    0.418806
     53          1           0        2.893512    3.658160    0.231056
     54          8           0        3.470929    1.284573   -0.714711
     55          8           0        1.624421    2.368051    1.283275
     56          1           0        2.332117    1.706193    1.218410
     57          7           0        2.185524    0.815518   -2.551228
     58          1           0        1.403890    1.129367   -3.131052
     59          6           0        3.036656   -0.267567   -3.055350
     60          1           0        2.450845   -0.724483   -3.862878
     61          6           0        3.278232   -1.426523   -2.073694
     62          6           0        4.325857    0.276812   -3.683368
     63          1           0        4.960588   -0.542786   -4.024964
     64          1           0        4.883978    0.895521   -2.975223
     65          1           0        4.069954    0.908282   -4.538476
     66          8           0        4.398267   -1.971232   -2.007087
     67          7           0        2.228944   -1.829235   -1.347832
     68          1           0        1.309862   -1.409045   -1.507250
     69          6           0        2.274483   -3.030350   -0.503731
     70          1           0        2.922624   -3.752261   -1.013742
     71          6           0        0.854623   -3.624266   -0.422206
     72          6           0        2.818080   -2.785129    0.937734
     73          1           0        1.965483   -2.629878    1.601031
     74          1           0        3.268868   -3.726980    1.272501
     75          8           0        0.442629   -4.189897    0.572356
     76          6           0        3.810565   -1.626268    1.121366
     77          1           0        3.560495   -0.816998    0.432684
     78          1           0        3.654714   -1.205884    2.125385
     79          6           0        5.288098   -2.035604    0.991017
     80          1           0        5.409571   -2.728918    0.151275
     81          1           0        5.611111   -2.570856    1.891427
     82          6           0        6.244332   -0.860421    0.790670
     83          1           0        6.154042   -0.111015    1.582562
     84          1           0        7.283036   -1.197534    0.746188
     85          7           0        5.961010   -0.159814   -0.520740
     86          1           0        6.752645    0.409305   -0.829071
     87          1           0        5.717145   -0.860222   -1.260642
     88          1           0        5.110414    0.450991   -0.489328
     89          8           0        0.131303   -3.368963   -1.507221
 ---------------------------------------------------------------------

 SCF Done:  E(RB3LYP) =  -2042.66769951     A.U. after    1 cycles

 Alpha  occ. eigenvalues --  -19.25070 -19.24552 -19.24054 -19.22727 -19.22358
 Alpha  occ. eigenvalues --  -19.21513 -19.20856 -14.56135 -14.47300 -14.46396
 Alpha  occ. eigenvalues --  -14.46236 -14.46072 -14.45748 -14.43612 -10.41056
 Alpha  occ. eigenvalues --  -10.39602 -10.39153 -10.38981 -10.38813 -10.36700
 Alpha  occ. eigenvalues --  -10.34528 -10.34087 -10.33425 -10.33099 -10.32732
 Alpha  occ. eigenvalues --  -10.32510 -10.30149 -10.29977 -10.29843 -10.28905
 Alpha  occ. eigenvalues --  -10.28433 -10.28331 -10.27622 -10.27506 -10.27474
 Alpha  occ. eigenvalues --  -10.26646 -10.26623 -10.26618 -10.26579 -10.26017
 Alpha  occ. eigenvalues --  -10.25883 -10.25277 -10.25263  -1.16532  -1.16009
 Alpha  occ. eigenvalues --   -1.14418  -1.13982  -1.13301  -1.11861  -1.10890
 Alpha  occ. eigenvalues --   -1.07834  -1.05950  -1.04316  -1.03273  -1.02106
 Alpha  occ. eigenvalues --   -1.01811  -0.99642  -0.91732  -0.91136  -0.89895
 Alpha  occ. eigenvalues --   -0.89200  -0.88663  -0.86707  -0.85882  -0.84329
 Alpha  occ. eigenvalues --   -0.81921  -0.81586  -0.81287  -0.79671  -0.77115
 Alpha  occ. eigenvalues --   -0.76425  -0.75999  -0.75387  -0.73890  -0.73112
 Alpha  occ. eigenvalues --   -0.70770  -0.70111  -0.70003  -0.69788  -0.69205
 Alpha  occ. eigenvalues --   -0.68943  -0.68547  -0.67043  -0.66805  -0.66330
 Alpha  occ. eigenvalues --   -0.65275  -0.64756  -0.64058  -0.62754  -0.61843
 Alpha  occ. eigenvalues --   -0.61432  -0.60562  -0.60410  -0.60263  -0.59286
 Alpha  occ. eigenvalues --   -0.59016  -0.58293  -0.58027  -0.57257  -0.56468
 Alpha  occ. eigenvalues --   -0.56364  -0.56034  -0.55832  -0.55502  -0.54926
 Alpha  occ. eigenvalues --   -0.54498  -0.54385  -0.54130  -0.52946  -0.52679
 Alpha  occ. eigenvalues --   -0.52192  -0.52125  -0.51799  -0.51405  -0.51334
 Alpha  occ. eigenvalues --   -0.51222  -0.50916  -0.50707  -0.50450  -0.50282
 Alpha  occ. eigenvalues --   -0.50035  -0.49537  -0.49375  -0.49052  -0.48856
 Alpha  occ. eigenvalues --   -0.48468  -0.47783  -0.47382  -0.47110  -0.47026
 Alpha  occ. eigenvalues --   -0.46436  -0.46288  -0.46114  -0.45541  -0.44868
 Alpha  occ. eigenvalues --   -0.44690  -0.44393  -0.43895  -0.43588  -0.43478
 Alpha  occ. eigenvalues --   -0.43041  -0.42337  -0.41394  -0.41254  -0.41061
 Alpha  occ. eigenvalues --   -0.40961  -0.40575  -0.39655  -0.38614  -0.38273
 Alpha  occ. eigenvalues --   -0.37719  -0.37391  -0.36687  -0.36219  -0.36001
 Alpha  occ. eigenvalues --   -0.35472  -0.35359  -0.34732  -0.34648  -0.34040
 Alpha  occ. eigenvalues --   -0.30186  -0.28318
 Alpha virt. eigenvalues --   -0.10821  -0.09393  -0.09224  -0.08864  -0.07747
 Alpha virt. eigenvalues --   -0.07435  -0.07074  -0.05544  -0.03753  -0.02145
 Alpha virt. eigenvalues --   -0.01695  -0.01206  -0.00925  -0.00146   0.00182

 Mulliken charges:
               1
     1  N   -0.782803
     2  H    0.333971
     3  H    0.465694
     4  H    0.354792
     5  C   -0.061515
     6  H    0.151439
     7  C    0.620164
     8  C   -0.274316
     9  H    0.153447
    10  H    0.157994
    11  O   -0.539716
    12  C   -0.104189
    13  H    0.133629
    14  C   -0.463597
    15  H    0.153539
    16  H    0.142847
    17  H    0.157960
    18  C   -0.452612
    19  H    0.152563
    20  H    0.129611
    21  H    0.167111
    22  N   -0.648140
    23  H    0.367606
    24  C   -0.007185
    25  H    0.186024
    26  C    0.638498
    27  C   -0.393302
    28  H    0.165246
    29  H    0.188844
    30  O   -0.561723
    31  C    0.053709
    32  C    0.010218
    33  H    0.169636
    34  C    0.046539
    35  C    0.319323
    36  C   -0.232021
    37  H    0.132152
    38  N   -0.685531
    39  H    0.343074
    40  C   -0.152596
    41  H    0.145951
    42  C   -0.156980
    43  H    0.144409
    44  C   -0.138548
    45  H    0.140524
    46  N   -0.611474
    47  H    0.387210
    48  C   -0.084213
    49  H    0.203671
    50  C    0.644874
    51  C   -0.060959
    52  H    0.175590
    53  H    0.156015
    54  O   -0.598359
    55  O   -0.622972
    56  H    0.410198
    57  N   -0.600146
    58  H    0.406610
    59  C   -0.075685
    60  H    0.203604
    61  C    0.629240
    62  C   -0.453001
    63  H    0.187322
    64  H    0.132368
    65  H    0.178107
    66  O   -0.585115
    67  N   -0.625301
    68  H    0.425643
    69  C   -0.040961
    70  H    0.203048
    71  C    0.576040
    72  C   -0.284847
    73  H    0.179265
    74  H    0.167549
    75  O   -0.480202
    76  C   -0.303658
    77  H    0.157434
    78  H    0.153129
    79  C   -0.291412
    80  H    0.190662
    81  H    0.179732
    82  C   -0.188461
    83  H    0.200229
    84  H    0.202893
    85  N   -0.797287
    86  H    0.397656
    87  H    0.434880
    88  H    0.446697
    89  O   -0.597356
 Sum of Mulliken charges =   1.00000

 Dipole moment (field-independent basis, Debye):
    X=              6.7154    Y=              2.4026    Z=             -2.8246  Tot=              7.6713
 Quadrupole moment (field-independent basis, Debye-Ang):
   XX=            -81.3293   YY=           -249.6928   ZZ=           -233.8802
   XY=              0.8192   XZ=             11.4130   YZ=             -8.1566

 Normal termination of Gaussian 16 at Thu Jun 23 19:22:19 2022.
