 Gaussian 16, Revision C.01,
 Gaussian 16:  ES64L-G16RevC.01  3-Jul-2019

 ----------------------------------------------------------------------
 # B3LYP/6-31G* empiricaldispersion=gd3 guess=read geom=check nosymm in
 tegral(ultrafinegrid)
 ----------------------------------------------------------------------

 ------------------------------------------------------
 Candidate Structure: Conf:474 Charge calc in gas phase
 ------------------------------------------------------
 Structure from the checkpoint file:  "conf-474.chk"
 Charge =  1 Multiplicity = 1

                          Input orientation:
 ---------------------------------------------------------------------
 Center     Atomic      Atomic             Coordinates (Angstroms)
 Number     Number       Type             X           Y           Z
 ---------------------------------------------------------------------
      1          7           0       -5.954384    1.885296    1.844990
      2          1           0       -6.512363    2.318404    1.103727
      3          1           0       -5.743828    0.876563    1.568175
      4          1           0       -6.477523    1.933230    2.723460
      5          6           0       -4.551131    2.457464    1.952441
      6          1           0       -4.539051    3.430890    1.459774
      7          6           0       -3.716298    1.403158    1.178135
      8          6           0       -4.158730    2.568833    3.437010
      9          1           0       -4.907378    3.203120    3.934771
     10          1           0       -4.226782    1.566952    3.882946
     11          8           0       -4.238927    0.290675    0.986637
     12          6           0       -2.760056    3.161928    3.721364
     13          1           0       -2.002126    2.511062    3.270109
     14          6           0       -2.593100    4.573811    3.140062
     15          1           0       -3.343848    5.260239    3.552069
     16          1           0       -2.672986    4.605228    2.046203
     17          1           0       -1.603524    4.967483    3.388437
     18          6           0       -2.524740    3.168621    5.239379
     19          1           0       -3.244692    3.821474    5.748637
     20          1           0       -2.615466    2.163360    5.666484
     21          1           0       -1.520398    3.539391    5.465892
     22          7           0       -2.502826    1.769641    0.804991
     23          1           0       -2.091397    2.665317    1.080971
     24          6           0       -1.494971    0.874243    0.242462
     25          1           0       -1.591590   -0.103423    0.725321
     26          6           0       -0.154624    1.542970    0.626116
     27          6           0       -1.674220    0.725961   -1.291467
     28          1           0       -2.743957    0.552570   -1.466411
     29          1           0       -1.412189    1.681173   -1.755134
     30          8           0       -0.159255    2.656598    1.159732
     31          6           0       -0.858036   -0.372819   -1.914387
     32          6           0       -0.711856   -1.668290   -1.467777
     33          1           0       -1.110377   -2.149933   -0.584848
     34          6           0       -0.138069   -0.289011   -3.162823
     35          6           0        0.417789   -1.571726   -3.414011
     36          6           0        0.081547    0.741820   -4.093190
     37          1           0       -0.314531    1.735296   -3.915223
     38          7           0        0.047812   -2.389414   -2.366830
     39          1           0        0.356585   -3.339705   -2.232071
     40          6           0        1.382310   -0.809440   -5.457457
     41          1           0        1.983368   -0.971628   -6.345955
     42          6           0        1.177043   -1.848172   -4.557630
     43          1           0        1.588463   -2.837897   -4.736184
     44          6           0        0.839444    0.473468   -5.225423
     45          1           0        1.011152    1.258839   -5.957164
     46          7           0        0.955072    0.828160    0.358208
     47          1           0        0.841036    0.016145   -0.245477
     48          6           0        2.237670    1.494862    0.185798
     49          1           0        2.322907    2.280927    0.942926
     50          6           0        2.218699    2.134944   -1.235095
     51          6           0        3.345955    0.440777    0.361534
     52          1           0        3.214047   -0.027301    1.343272
     53          1           0        4.338209    0.912292    0.363139
     54          8           0        1.159998    2.344066   -1.813820
     55          8           0        3.236201   -0.567653   -0.626632
     56          1           0        3.853621   -0.341473   -1.350923
     57          7           0        3.434779    2.405472   -1.790063
     58          1           0        4.251769    2.071843   -1.291923
     59          6           0        3.620554    2.315274   -3.235215
     60          1           0        2.630353    2.199189   -3.685509
     61          6           0        4.459071    1.042746   -3.491109
     62          6           0        4.319390    3.556728   -3.806506
     63          1           0        4.446381    3.470753   -4.890393
     64          1           0        5.309384    3.685673   -3.355631
     65          1           0        3.720803    4.445929   -3.590385
     66          8           0        5.083591    0.499453   -2.563651
     67          7           0        4.515299    0.608934   -4.757153
     68          1           0        3.869711    0.966623   -5.453351
     69          6           0        5.342943   -0.515844   -5.182388
     70          1           0        6.385232   -0.311664   -4.922580
     71          6           0        5.226596   -0.637748   -6.693155
     72          6           0        4.911056   -1.864266   -4.512458
     73          1           0        5.355568   -1.867182   -3.514778
     74          1           0        3.826682   -1.822380   -4.372890
     75          8           0        6.290843   -1.218164   -7.220145
     76          6           0        5.289515   -3.153223   -5.275531
     77          1           0        6.285111   -3.040351   -5.714012
     78          1           0        5.370724   -3.967293   -4.546157
     79          6           0        4.261049   -3.571249   -6.365280
     80          1           0        3.622150   -2.722509   -6.635351
     81          1           0        3.582830   -4.318424   -5.935362
     82          6           0        4.847749   -4.157089   -7.664762
     83          1           0        5.772854   -4.703850   -7.451012
     84          1           0        4.139936   -4.878537   -8.096412
     85          7           0        5.174943   -3.097089   -8.655245
     86          1           0        5.618462   -3.504272   -9.477590
     87          1           0        4.316084   -2.647776   -8.974886
     88          1           0        5.971089   -1.841861   -7.982403
     89          8           0        4.208969   -0.333569   -7.302483
 ---------------------------------------------------------------------

 SCF Done:  E(RB3LYP) =  -2042.61862677     A.U. after    2 cycles

 Alpha  occ. eigenvalues --  -19.26265 -19.22163 -19.21020 -19.20352 -19.19477
 Alpha  occ. eigenvalues --  -19.19470 -19.18979 -14.59730 -14.48502 -14.44946
 Alpha  occ. eigenvalues --  -14.43662 -14.43311 -14.42385 -14.41459 -10.42861
 Alpha  occ. eigenvalues --  -10.40216 -10.37824 -10.37283 -10.36210 -10.35872
 Alpha  occ. eigenvalues --  -10.33619 -10.33073 -10.30650 -10.30522 -10.30412
 Alpha  occ. eigenvalues --  -10.30224 -10.29756 -10.29278 -10.28602 -10.28517
 Alpha  occ. eigenvalues --  -10.27951 -10.27698 -10.27061 -10.25867 -10.25220
 Alpha  occ. eigenvalues --  -10.25053 -10.24943 -10.24867 -10.24785 -10.24652
 Alpha  occ. eigenvalues --  -10.24537 -10.24349 -10.24241  -1.18708  -1.14670
 Alpha  occ. eigenvalues --   -1.13567  -1.12888  -1.11434  -1.10461  -1.07930
 Alpha  occ. eigenvalues --   -1.06128  -1.05390  -1.04828  -1.00707  -0.99762
 Alpha  occ. eigenvalues --   -0.99296  -0.96902  -0.94373  -0.90338  -0.89521
 Alpha  occ. eigenvalues --   -0.87630  -0.86559  -0.85122  -0.84062  -0.82102
 Alpha  occ. eigenvalues --   -0.80669  -0.80048  -0.79832  -0.78630  -0.78088
 Alpha  occ. eigenvalues --   -0.76198  -0.75770  -0.73522  -0.72734  -0.72577
 Alpha  occ. eigenvalues --   -0.71547  -0.70150  -0.69227  -0.68840  -0.68005
 Alpha  occ. eigenvalues --   -0.67002  -0.66411  -0.65845  -0.65608  -0.65074
 Alpha  occ. eigenvalues --   -0.64630  -0.63551  -0.63246  -0.62611  -0.61488
 Alpha  occ. eigenvalues --   -0.60637  -0.59455  -0.58669  -0.57981  -0.57636
 Alpha  occ. eigenvalues --   -0.57347  -0.56518  -0.56045  -0.55588  -0.54988
 Alpha  occ. eigenvalues --   -0.54658  -0.54281  -0.54209  -0.53807  -0.53476
 Alpha  occ. eigenvalues --   -0.53342  -0.52989  -0.52664  -0.52334  -0.51838
 Alpha  occ. eigenvalues --   -0.51441  -0.50985  -0.50237  -0.50103  -0.49870
 Alpha  occ. eigenvalues --   -0.49477  -0.49327  -0.49124  -0.49045  -0.48647
 Alpha  occ. eigenvalues --   -0.48309  -0.47800  -0.47767  -0.47411  -0.47378
 Alpha  occ. eigenvalues --   -0.47182  -0.46975  -0.46377  -0.45921  -0.45533
 Alpha  occ. eigenvalues --   -0.44738  -0.44353  -0.44224  -0.43905  -0.43790
 Alpha  occ. eigenvalues --   -0.43578  -0.43388  -0.42857  -0.42329  -0.41857
 Alpha  occ. eigenvalues --   -0.41756  -0.40910  -0.40416  -0.40043  -0.39954
 Alpha  occ. eigenvalues --   -0.39536  -0.39178  -0.39003  -0.38245  -0.35727
 Alpha  occ. eigenvalues --   -0.35658  -0.35051  -0.33997  -0.33793  -0.33710
 Alpha  occ. eigenvalues --   -0.33436  -0.33014  -0.32981  -0.32142  -0.31497
 Alpha  occ. eigenvalues --   -0.28837  -0.27036
 Alpha virt. eigenvalues --   -0.11762  -0.10770  -0.08052  -0.06793  -0.06110
 Alpha virt. eigenvalues --   -0.06036  -0.05215  -0.04739  -0.04185  -0.03858
 Alpha virt. eigenvalues --   -0.01570  -0.01159  -0.00177   0.00514   0.00615

 Mulliken charges:
               1
     1  N   -0.756956
     2  H    0.415533
     3  H    0.431438
     4  H    0.411706
     5  C   -0.117991
     6  H    0.215003
     7  C    0.647541
     8  C   -0.285523
     9  H    0.161247
    10  H    0.171231
    11  O   -0.550029
    12  C   -0.105336
    13  H    0.165807
    14  C   -0.459880
    15  H    0.152059
    16  H    0.139695
    17  H    0.191113
    18  C   -0.451665
    19  H    0.153578
    20  H    0.155669
    21  H    0.176197
    22  N   -0.611297
    23  H    0.393756
    24  C   -0.090220
    25  H    0.190416
    26  C    0.647024
    27  C   -0.330958
    28  H    0.169466
    29  H    0.190511
    30  O   -0.550795
    31  C    0.025797
    32  C   -0.010289
    33  H    0.157010
    34  C    0.088894
    35  C    0.318578
    36  C   -0.178415
    37  H    0.144120
    38  N   -0.684285
    39  H    0.337258
    40  C   -0.167108
    41  H    0.167724
    42  C   -0.172605
    43  H    0.131909
    44  C   -0.178425
    45  H    0.132423
    46  N   -0.592490
    47  H    0.370428
    48  C   -0.091767
    49  H    0.197771
    50  C    0.614382
    51  C   -0.080462
    52  H    0.164525
    53  H    0.150110
    54  O   -0.511321
    55  O   -0.654488
    56  H    0.440318
    57  N   -0.582707
    58  H    0.342471
    59  C   -0.093417
    60  H    0.200593
    61  C    0.636193
    62  C   -0.439349
    63  H    0.158626
    64  H    0.163957
    65  H    0.176827
    66  O   -0.572069
    67  N   -0.614350
    68  H    0.358483
    69  C    0.014642
    70  H    0.188220
    71  C    0.566611
    72  C   -0.305782
    73  H    0.177923
    74  H    0.163515
    75  O   -0.596215
    76  C   -0.286872
    77  H    0.172784
    78  H    0.145240
    79  C   -0.299312
    80  H    0.165937
    81  H    0.145985
    82  C   -0.142249
    83  H    0.166849
    84  H    0.148413
    85  N   -0.779753
    86  H    0.336422
    87  H    0.342026
    88  H    0.459292
    89  O   -0.506861
 Sum of Mulliken charges =   1.00000

 Dipole moment (field-independent basis, Debye):
    X=            -12.8141    Y=              3.3557    Z=             -0.2091  Tot=             13.2479
 Quadrupole moment (field-independent basis, Debye-Ang):
   XX=           -113.2347   YY=           -199.7526   ZZ=           -157.9699
   XY=            -62.0696   XZ=            -83.4657   YZ=             56.9637

 Normal termination of Gaussian 16 at Thu Jun 23 19:22:33 2022.
