 Gaussian 16, Revision C.01,
 Gaussian 16:  ES64L-G16RevC.01  3-Jul-2019

 ----------------------------------------------------------------------
 # B3LYP/6-31G* empiricaldispersion=gd3 guess=read geom=check nosymm in
 tegral(ultrafinegrid)
 ----------------------------------------------------------------------

 ------------------------------------------------------
 Candidate Structure: Conf:962 Charge calc in gas phase
 ------------------------------------------------------
 Structure from the checkpoint file:  "conf-962.chk"
 Charge =  1 Multiplicity = 1

                          Input orientation:
 ---------------------------------------------------------------------
 Center     Atomic      Atomic             Coordinates (Angstroms)
 Number     Number       Type             X           Y           Z
 ---------------------------------------------------------------------
      1          7           0       -5.855988    0.866858    3.466605
      2          1           0       -5.784556   -0.064262    2.939986
      3          1           0       -5.970038    0.717412    4.472656
      4          1           0       -6.662324    1.394543    3.123792
      5          6           0       -4.522960    1.498760    3.113055
      6          1           0       -4.720971    2.474358    2.664952
      7          6           0       -3.959895    0.511891    2.053114
      8          6           0       -3.620184    1.621289    4.346752
      9          1           0       -3.431118    0.612012    4.738639
     10          1           0       -2.650015    1.995826    3.998809
     11          8           0       -4.585697   -0.547082    1.864366
     12          6           0       -4.140241    2.543870    5.469234
     13          1           0       -5.105984    2.153332    5.835957
     14          6           0       -3.158644    2.503546    6.650329
     15          1           0       -2.180334    2.899442    6.352615
     16          1           0       -3.011995    1.482303    7.019474
     17          1           0       -3.527844    3.113396    7.480603
     18          6           0       -4.360317    3.984257    4.985186
     19          1           0       -3.430602    4.404075    4.582141
     20          1           0       -5.129756    4.061480    4.206803
     21          1           0       -4.680020    4.622367    5.814668
     22          7           0       -2.837912    0.871529    1.456746
     23          1           0       -2.369736    1.764175    1.633321
     24          6           0       -2.123360    0.081087    0.454677
     25          1           0       -2.097071   -0.963852    0.776455
     26          6           0       -0.711742    0.698966    0.433362
     27          6           0       -2.826636    0.185525   -0.930121
     28          1           0       -3.802213   -0.302477   -0.829883
     29          1           0       -3.012198    1.249555   -1.120629
     30          8           0       -0.572952    1.882453    0.755826
     31          6           0       -2.040740   -0.397076   -2.064120
     32          6           0       -2.067732   -1.692142   -2.527966
     33          1           0       -2.657218   -2.534307   -2.190894
     34          6           0       -1.092632    0.313423   -2.887091
     35          6           0       -0.594666   -0.611020   -3.842823
     36          6           0       -0.609592    1.633893   -2.895460
     37          1           0       -0.950004    2.350724   -2.152612
     38          7           0       -1.212183   -1.820064   -3.600568
     39          1           0       -1.001049   -2.684825   -4.074040
     40          6           0        0.792532    1.068034   -4.807908
     41          1           0        1.512318    1.387425   -5.556225
     42          6           0        0.346620   -0.248564   -4.811403
     43          1           0        0.709718   -0.966478   -5.541559
     44          6           0        0.325375    1.998805   -3.855661
     45          1           0        0.704663    3.016456   -3.877633
     46          7           0        0.267061   -0.127943    0.039847
     47          1           0        0.028956   -1.022518   -0.382178
     48          6           0        1.619400    0.313845   -0.254661
     49          1           0        1.607530    1.400286   -0.379231
     50          6           0        2.064707   -0.416654   -1.527590
     51          6           0        2.596844   -0.058552    0.871338
     52          1           0        3.617993    0.200809    0.554975
     53          1           0        2.565233   -1.150934    1.007388
     54          8           0        1.614187   -1.527806   -1.797726
     55          8           0        2.191904    0.638893    2.038176
     56          1           0        2.819734    0.420892    2.743545
     57          7           0        2.997867    0.222043   -2.273958
     58          1           0        3.443471    1.032766   -1.863884
     59          6           0        3.789321   -0.527394   -3.233067
     60          1           0        3.091626   -1.140950   -3.810031
     61          6           0        4.769655   -1.445671   -2.467420
     62          6           0        4.545342    0.427594   -4.161982
     63          1           0        5.118498   -0.132452   -4.906181
     64          1           0        5.250290    1.045265   -3.592574
     65          1           0        3.840036    1.083785   -4.679840
     66          8           0        5.085641   -1.220251   -1.297536
     67          7           0        5.272486   -2.467239   -3.189608
     68          1           0        4.989815   -2.650715   -4.146445
     69          6           0        6.263018   -3.381949   -2.647523
     70          1           0        6.975497   -2.789645   -2.072429
     71          6           0        6.977449   -4.037478   -3.838148
     72          6           0        5.575951   -4.436018   -1.737323
     73          1           0        5.014682   -3.874021   -0.981674
     74          1           0        4.840084   -4.951281   -2.366516
     75          8           0        8.187514   -4.526927   -3.594903
     76          6           0        6.475645   -5.482440   -1.055899
     77          1           0        5.835978   -6.322042   -0.757199
     78          1           0        7.182929   -5.899405   -1.780636
     79          6           0        7.220972   -5.015110    0.207509
     80          1           0        7.794350   -5.865677    0.603673
     81          1           0        6.490556   -4.752850    0.984401
     82          6           0        8.163636   -3.818750    0.045505
     83          1           0        7.589343   -2.913431   -0.177670
     84          1           0        8.680460   -3.638262    0.999646
     85          7           0        9.124025   -4.033167   -1.063088
     86          1           0        9.775010   -3.249875   -1.117637
     87          1           0        9.694314   -4.856580   -0.864325
     88          1           0        8.498112   -4.314445   -2.653583
     89          8           0        6.437501   -4.122198   -4.924202
 ---------------------------------------------------------------------

 SCF Done:  E(RB3LYP) =  -2042.61016308     A.U. after    1 cycles

 Alpha  occ. eigenvalues --  -19.26621 -19.21654 -19.21285 -19.20512 -19.19042
 Alpha  occ. eigenvalues --  -19.17550 -19.17372 -14.59614 -14.48968 -14.44612
 Alpha  occ. eigenvalues --  -14.44048 -14.42957 -14.41695 -14.41271 -10.43178
 Alpha  occ. eigenvalues --  -10.40435 -10.37545 -10.35932 -10.35797 -10.34519
 Alpha  occ. eigenvalues --  -10.33561 -10.33356 -10.32216 -10.30511 -10.30306
 Alpha  occ. eigenvalues --  -10.29880 -10.29099 -10.29054 -10.28870 -10.28402
 Alpha  occ. eigenvalues --  -10.28244 -10.28185 -10.28086 -10.25463 -10.25292
 Alpha  occ. eigenvalues --  -10.25186 -10.24898 -10.24841 -10.24764 -10.24745
 Alpha  occ. eigenvalues --  -10.24404 -10.24334 -10.24096  -1.18985  -1.13538
 Alpha  occ. eigenvalues --   -1.13200  -1.12525  -1.11087  -1.09172  -1.08628
 Alpha  occ. eigenvalues --   -1.05648  -1.05190  -1.04575  -1.00814  -0.99720
 Alpha  occ. eigenvalues --   -0.98296  -0.96810  -0.95055  -0.90558  -0.89982
 Alpha  occ. eigenvalues --   -0.88095  -0.86278  -0.85362  -0.84000  -0.82215
 Alpha  occ. eigenvalues --   -0.80422  -0.80324  -0.79856  -0.79349  -0.78580
 Alpha  occ. eigenvalues --   -0.75925  -0.75628  -0.73764  -0.72771  -0.72418
 Alpha  occ. eigenvalues --   -0.71626  -0.70029  -0.69338  -0.69044  -0.68705
 Alpha  occ. eigenvalues --   -0.67409  -0.65907  -0.65707  -0.65058  -0.64834
 Alpha  occ. eigenvalues --   -0.64399  -0.63457  -0.62975  -0.62671  -0.61633
 Alpha  occ. eigenvalues --   -0.60543  -0.59609  -0.59350  -0.58355  -0.57658
 Alpha  occ. eigenvalues --   -0.57629  -0.56803  -0.56048  -0.55559  -0.55171
 Alpha  occ. eigenvalues --   -0.54883  -0.54773  -0.54272  -0.53662  -0.53405
 Alpha  occ. eigenvalues --   -0.53193  -0.52831  -0.52588  -0.52433  -0.51516
 Alpha  occ. eigenvalues --   -0.51336  -0.51082  -0.50320  -0.50134  -0.49628
 Alpha  occ. eigenvalues --   -0.49442  -0.49340  -0.49021  -0.48931  -0.48569
 Alpha  occ. eigenvalues --   -0.48060  -0.47800  -0.47472  -0.47301  -0.46555
 Alpha  occ. eigenvalues --   -0.46469  -0.46105  -0.45786  -0.45671  -0.45583
 Alpha  occ. eigenvalues --   -0.45101  -0.44982  -0.44896  -0.44666  -0.44389
 Alpha  occ. eigenvalues --   -0.44072  -0.43376  -0.43104  -0.42215  -0.41724
 Alpha  occ. eigenvalues --   -0.41217  -0.41081  -0.40650  -0.39957  -0.39568
 Alpha  occ. eigenvalues --   -0.39471  -0.38982  -0.38862  -0.38202  -0.35129
 Alpha  occ. eigenvalues --   -0.34594  -0.34400  -0.34194  -0.33796  -0.33665
 Alpha  occ. eigenvalues --   -0.33073  -0.32280  -0.31746  -0.30945  -0.30615
 Alpha  occ. eigenvalues --   -0.28438  -0.27060
 Alpha virt. eigenvalues --   -0.11786  -0.11271  -0.07753  -0.06738  -0.06301
 Alpha virt. eigenvalues --   -0.05163  -0.04115  -0.03840  -0.03465  -0.02536
 Alpha virt. eigenvalues --   -0.02077  -0.01215  -0.00924  -0.00728   0.00054

 Mulliken charges:
               1
     1  N   -0.761015
     2  H    0.434074
     3  H    0.411226
     4  H    0.414579
     5  C   -0.115442
     6  H    0.217492
     7  C    0.658935
     8  C   -0.295737
     9  H    0.172272
    10  H    0.197397
    11  O   -0.551608
    12  C   -0.097309
    13  H    0.112449
    14  C   -0.447830
    15  H    0.167643
    16  H    0.158357
    17  H    0.174190
    18  C   -0.454610
    19  H    0.170532
    20  H    0.130358
    21  H    0.183383
    22  N   -0.607375
    23  H    0.372519
    24  C   -0.053464
    25  H    0.184468
    26  C    0.642473
    27  C   -0.352201
    28  H    0.174539
    29  H    0.161836
    30  O   -0.552427
    31  C    0.031702
    32  C    0.002877
    33  H    0.159412
    34  C    0.083056
    35  C    0.340861
    36  C   -0.220501
    37  H    0.134790
    38  N   -0.682873
    39  H    0.339679
    40  C   -0.149004
    41  H    0.134723
    42  C   -0.162797
    43  H    0.135685
    44  C   -0.143335
    45  H    0.130158
    46  N   -0.592330
    47  H    0.361827
    48  C   -0.085087
    49  H    0.190397
    50  C    0.652092
    51  C   -0.024182
    52  H    0.157540
    53  H    0.139993
    54  O   -0.549656
    55  O   -0.615760
    56  H    0.400504
    57  N   -0.572055
    58  H    0.335902
    59  C   -0.065477
    60  H    0.182259
    61  C    0.640054
    62  C   -0.472958
    63  H    0.174669
    64  H    0.160388
    65  H    0.173649
    66  O   -0.557767
    67  N   -0.612822
    68  H    0.351592
    69  C   -0.062015
    70  H    0.167354
    71  C    0.600988
    72  C   -0.266581
    73  H    0.167276
    74  H    0.153425
    75  O   -0.610624
    76  C   -0.284021
    77  H    0.149090
    78  H    0.154950
    79  C   -0.269175
    80  H    0.141426
    81  H    0.147440
    82  C   -0.155099
    83  H    0.179006
    84  H    0.144109
    85  N   -0.775796
    86  H    0.333898
    87  H    0.331841
    88  H    0.476561
    89  O   -0.480965
 Sum of Mulliken charges =   1.00000

 Dipole moment (field-independent basis, Debye):
    X=            -11.2884    Y=              2.4176    Z=             14.2551  Tot=             18.3433
 Quadrupole moment (field-independent basis, Debye-Ang):
   XX=            -67.3678   YY=           -228.5352   ZZ=           -192.2601
   XY=            -41.4961   XZ=            -53.9768   YZ=              7.7923

 Normal termination of Gaussian 16 at Thu Jun 23 19:23:25 2022.
