 Gaussian 16, Revision C.01,
 Gaussian 16:  ES64L-G16RevC.01  3-Jul-2019

 ----------------------------------------------------------------------
 # B3LYP/6-31G* empiricaldispersion=gd3 guess=read geom=check nosymm in
 tegral(ultrafinegrid)
 ----------------------------------------------------------------------

 ------------------------------------------------------
 Candidate Structure: Conf:549 Charge calc in gas phase
 ------------------------------------------------------
 Structure from the checkpoint file:  "conf-549.chk"
 Charge =  1 Multiplicity = 1

                          Input orientation:
 ---------------------------------------------------------------------
 Center     Atomic      Atomic             Coordinates (Angstroms)
 Number     Number       Type             X           Y           Z
 ---------------------------------------------------------------------
      1          7           0       -4.062311    0.056753    3.927574
      2          1           0       -5.077679    0.174172    3.997779
      3          1           0       -3.864494   -0.746093    3.265743
      4          1           0       -3.683703   -0.125420    4.861070
      5          6           0       -3.372120    1.214767    3.226331
      6          1           0       -3.993604    2.103970    3.342877
      7          6           0       -3.289995    0.709653    1.767985
      8          6           0       -1.964365    1.402069    3.829380
      9          1           0       -2.077696    1.481988    4.921842
     10          1           0       -1.373849    0.503825    3.606354
     11          8           0       -3.359254   -0.513926    1.590263
     12          6           0       -1.186680    2.643750    3.338146
     13          1           0       -1.007396    2.547557    2.262888
     14          6           0       -1.941581    3.953492    3.607738
     15          1           0       -2.162875    4.072697    4.676334
     16          1           0       -2.892739    4.027957    3.062026
     17          1           0       -1.335273    4.809797    3.297491
     18          6           0        0.195061    2.652819    4.009099
     19          1           0        0.109850    2.716433    5.101827
     20          1           0        0.753590    1.749457    3.745495
     21          1           0        0.773257    3.517232    3.668044
     22          7           0       -3.098771    1.620273    0.806877
     23          1           0       -2.925007    2.580782    1.085035
     24          6           0       -2.493268    1.231953   -0.486312
     25          1           0       -2.872931    0.238177   -0.729562
     26          6           0       -0.980833    1.222771   -0.183356
     27          6           0       -2.851710    2.227492   -1.585667
     28          1           0       -3.941837    2.359554   -1.586296
     29          1           0       -2.409984    3.199203   -1.321318
     30          8           0       -0.397340    2.279115    0.040825
     31          6           0       -2.394070    1.794256   -2.949911
     32          6           0       -1.507621    0.799641   -3.296946
     33          1           0       -0.933633    0.108182   -2.695620
     34          6           0       -2.832911    2.403230   -4.180181
     35          6           0       -2.175285    1.727231   -5.242222
     36          6           0       -3.719406    3.450592   -4.482736
     37          1           0       -4.232082    3.987794   -3.688523
     38          7           0       -1.374624    0.759737   -4.670687
     39          1           0       -0.795507    0.104387   -5.171773
     40          6           0       -3.264771    3.104763   -6.852216
     41          1           0       -3.447588    3.394451   -7.882946
     42          6           0       -2.381620    2.065550   -6.583410
     43          1           0       -1.871140    1.537534   -7.384153
     44          6           0       -3.927622    3.791243   -5.812995
     45          1           0       -4.609443    4.599402   -6.061718
     46          7           0       -0.432283   -0.007949   -0.037344
     47          1           0       -0.921752   -0.804038   -0.429287
     48          6           0        0.989256   -0.195441    0.166271
     49          1           0        1.420844    0.793842    0.340052
     50          6           0        1.580006   -0.835787   -1.111502
     51          6           0        1.261008   -1.082320    1.386617
     52          1           0        2.346434   -1.210263    1.495673
     53          1           0        0.818244   -2.076912    1.221269
     54          8           0        0.845357   -1.388349   -1.933768
     55          8           0        0.694972   -0.456318    2.539589
     56          1           0        1.081533   -0.880032    3.320959
     57          7           0        2.916605   -0.763753   -1.222393
     58          1           0        3.502726   -0.307553   -0.527029
     59          6           0        3.659838   -1.336715   -2.333767
     60          1           0        3.304898   -2.361615   -2.498761
     61          6           0        5.134192   -1.359223   -1.882795
     62          6           0        3.471053   -0.522473   -3.625686
     63          1           0        4.007541   -0.980179   -4.462908
     64          1           0        3.844735    0.497292   -3.490393
     65          1           0        2.406870   -0.483955   -3.871317
     66          8           0        5.489987   -0.777125   -0.857335
     67          7           0        5.975772   -2.023209   -2.702990
     68          1           0        5.621087   -2.518796   -3.511343
     69          6           0        7.416836   -2.089359   -2.484215
     70          1           0        7.710310   -1.226423   -1.886209
     71          6           0        8.161436   -2.051763   -3.809265
     72          6           0        7.808562   -3.415691   -1.764643
     73          1           0        7.410069   -3.350157   -0.746789
     74          1           0        7.258482   -4.221154   -2.263966
     75          8           0        9.214690   -1.467993   -3.959722
     76          6           0        9.329071   -3.729752   -1.746406
     77          1           0        9.887792   -2.910131   -2.209082
     78          1           0        9.678371   -3.762170   -0.708421
     79          6           0        9.737279   -5.070477   -2.400868
     80          1           0        9.319622   -5.893597   -1.804863
     81          1           0       10.829483   -5.165873   -2.329948
     82          6           0        9.312490   -5.333937   -3.855193
     83          1           0        9.660194   -6.337925   -4.125885
     84          1           0        8.218013   -5.356471   -3.920169
     85          7           0        9.799654   -4.346662   -4.857446
     86          1           0       10.268277   -4.808899   -5.631861
     87          1           0        8.424596   -3.347320   -5.151668
     88          1           0       10.467180   -3.692904   -4.452282
     89          8           0        7.621941   -2.893078   -4.707482
 ---------------------------------------------------------------------

 SCF Done:  E(RB3LYP) =  -2042.58775890     A.U. after    1 cycles

 Alpha  occ. eigenvalues --  -19.27101 -19.25461 -19.22266 -19.21067 -19.20295
 Alpha  occ. eigenvalues --  -19.19291 -19.18797 -14.60461 -14.50069 -14.45669
 Alpha  occ. eigenvalues --  -14.44208 -14.43564 -14.43467 -14.39931 -10.43769
 Alpha  occ. eigenvalues --  -10.40667 -10.38318 -10.37476 -10.36667 -10.36441
 Alpha  occ. eigenvalues --  -10.33873 -10.33770 -10.32653 -10.32421 -10.31430
 Alpha  occ. eigenvalues --  -10.29819 -10.29601 -10.27969 -10.27852 -10.27674
 Alpha  occ. eigenvalues --  -10.27667 -10.27177 -10.26335 -10.25529 -10.25244
 Alpha  occ. eigenvalues --  -10.24888 -10.24704 -10.24342 -10.23995 -10.23816
 Alpha  occ. eigenvalues --  -10.23728 -10.23457 -10.23091  -1.19601  -1.14307
 Alpha  occ. eigenvalues --   -1.14273  -1.13433  -1.12337  -1.12057  -1.11021
 Alpha  occ. eigenvalues --   -1.06423  -1.05681  -1.03408  -1.02130  -1.00836
 Alpha  occ. eigenvalues --   -0.99971  -0.95491  -0.94408  -0.89970  -0.88914
 Alpha  occ. eigenvalues --   -0.87689  -0.87230  -0.86132  -0.84011  -0.83003
 Alpha  occ. eigenvalues --   -0.80888  -0.79917  -0.78710  -0.78053  -0.77323
 Alpha  occ. eigenvalues --   -0.75717  -0.75595  -0.74346  -0.74271  -0.73225
 Alpha  occ. eigenvalues --   -0.72951  -0.71390  -0.70026  -0.68536  -0.67588
 Alpha  occ. eigenvalues --   -0.67371  -0.67023  -0.66109  -0.65746  -0.65305
 Alpha  occ. eigenvalues --   -0.64366  -0.63693  -0.63212  -0.62925  -0.62165
 Alpha  occ. eigenvalues --   -0.60653  -0.59829  -0.59522  -0.59095  -0.58498
 Alpha  occ. eigenvalues --   -0.57651  -0.57400  -0.56497  -0.55890  -0.55486
 Alpha  occ. eigenvalues --   -0.55000  -0.54377  -0.53795  -0.53656  -0.53400
 Alpha  occ. eigenvalues --   -0.53145  -0.52937  -0.52600  -0.52427  -0.52067
 Alpha  occ. eigenvalues --   -0.51724  -0.51369  -0.50931  -0.50692  -0.50542
 Alpha  occ. eigenvalues --   -0.49709  -0.49185  -0.48841  -0.48533  -0.48384
 Alpha  occ. eigenvalues --   -0.48272  -0.48042  -0.47844  -0.47578  -0.47391
 Alpha  occ. eigenvalues --   -0.47207  -0.46900  -0.45841  -0.45705  -0.45655
 Alpha  occ. eigenvalues --   -0.45350  -0.44716  -0.44412  -0.43934  -0.43762
 Alpha  occ. eigenvalues --   -0.43574  -0.43323  -0.43069  -0.42862  -0.42524
 Alpha  occ. eigenvalues --   -0.42262  -0.41458  -0.40698  -0.40195  -0.40079
 Alpha  occ. eigenvalues --   -0.39236  -0.38726  -0.38652  -0.38448  -0.37865
 Alpha  occ. eigenvalues --   -0.36025  -0.35645  -0.34735  -0.34463  -0.33900
 Alpha  occ. eigenvalues --   -0.33592  -0.33279  -0.32666  -0.32288  -0.30552
 Alpha  occ. eigenvalues --   -0.27465  -0.25852
 Alpha virt. eigenvalues --   -0.13041  -0.11196  -0.07654  -0.06811  -0.06631
 Alpha virt. eigenvalues --   -0.06393  -0.05665  -0.05416  -0.04409  -0.03418
 Alpha virt. eigenvalues --   -0.02498  -0.01729  -0.01257  -0.00332   0.00484

 Mulliken charges:
               1
     1  N   -0.750071
     2  H    0.417123
     3  H    0.430914
     4  H    0.412254
     5  C   -0.126177
     6  H    0.210793
     7  C    0.661691
     8  C   -0.300155
     9  H    0.149571
    10  H    0.199229
    11  O   -0.535158
    12  C   -0.118197
    13  H    0.188917
    14  C   -0.464059
    15  H    0.154194
    16  H    0.123429
    17  H    0.187321
    18  C   -0.460773
    19  H    0.141627
    20  H    0.168806
    21  H    0.171670
    22  N   -0.591515
    23  H    0.365438
    24  C   -0.073714
    25  H    0.189384
    26  C    0.626435
    27  C   -0.354209
    28  H    0.162288
    29  H    0.177314
    30  O   -0.526374
    31  C    0.058682
    32  C   -0.015820
    33  H    0.172849
    34  C    0.078455
    35  C    0.319873
    36  C   -0.208002
    37  H    0.116616
    38  N   -0.708338
    39  H    0.334271
    40  C   -0.149551
    41  H    0.136012
    42  C   -0.160422
    43  H    0.131508
    44  C   -0.138784
    45  H    0.130797
    46  N   -0.563687
    47  H    0.351727
    48  C   -0.103100
    49  H    0.209060
    50  C    0.631728
    51  C   -0.034138
    52  H    0.156720
    53  H    0.146259
    54  O   -0.542551
    55  O   -0.613460
    56  H    0.407100
    57  N   -0.611755
    58  H    0.361281
    59  C   -0.043997
    60  H    0.178504
    61  C    0.621857
    62  C   -0.448909
    63  H    0.159040
    64  H    0.171969
    65  H    0.179322
    66  O   -0.537888
    67  N   -0.616781
    68  H    0.352638
    69  C   -0.033694
    70  H    0.199592
    71  C    0.590359
    72  C   -0.277289
    73  H    0.164986
    74  H    0.147791
    75  O   -0.469169
    76  C   -0.296301
    77  H    0.174852
    78  H    0.153141
    79  C   -0.288161
    80  H    0.148583
    81  H    0.147194
    82  C   -0.129143
    83  H    0.152173
    84  H    0.153133
    85  N   -0.792427
    86  H    0.332901
    87  H    0.454064
    88  H    0.345810
    89  O   -0.625475
 Sum of Mulliken charges =   1.00000

 Dipole moment (field-independent basis, Debye):
    X=             -5.1956    Y=             -5.0660    Z=             10.8748  Tot=             13.0736
 Quadrupole moment (field-independent basis, Debye-Ang):
   XX=           -125.6460   YY=           -214.3254   ZZ=           -155.2426
   XY=            -76.5046   XZ=            -84.0198   YZ=             30.8187

 Normal termination of Gaussian 16 at Thu Jun 23 19:22:08 2022.
