 Gaussian 16, Revision C.01,
 Gaussian 16:  ES64L-G16RevC.01  3-Jul-2019

 ----------------------------------------------------------------------
 # B3LYP/6-31G* empiricaldispersion=gd3 guess=read geom=check nosymm in
 tegral(ultrafinegrid)
 ----------------------------------------------------------------------

 ------------------------------------------------------
 Candidate Structure: Conf:288 Charge calc in gas phase
 ------------------------------------------------------
 Structure from the checkpoint file:  "conf-288.chk"
 Charge =  1 Multiplicity = 1

                          Input orientation:
 ---------------------------------------------------------------------
 Center     Atomic      Atomic             Coordinates (Angstroms)
 Number     Number       Type             X           Y           Z
 ---------------------------------------------------------------------
      1          7           0       -5.145822    1.665006    1.950861
      2          1           0       -5.155423    1.774881    0.912594
      3          1           0       -5.262748    0.645856    2.129856
      4          1           0       -5.899160    2.212457    2.374403
      5          6           0       -3.779991    1.995213    2.505693
      6          1           0       -3.385576    2.818372    1.907528
      7          6           0       -2.984685    0.693951    2.244626
      8          6           0       -3.889047    2.364135    3.992100
      9          1           0       -4.592056    3.205032    4.087952
     10          1           0       -4.325037    1.510387    4.528089
     11          8           0       -3.607967   -0.366338    2.117615
     12          6           0       -2.556013    2.765271    4.661328
     13          1           0       -1.866068    1.915273    4.583310
     14          6           0       -1.907893    3.985645    3.988876
     15          1           0       -2.584150    4.849602    4.011377
     16          1           0       -1.627139    3.809244    2.943005
     17          1           0       -0.990965    4.266649    4.515530
     18          6           0       -2.804111    3.036943    6.152440
     19          1           0       -3.484959    3.886222    6.289684
     20          1           0       -3.242546    2.166290    6.653096
     21          1           0       -1.864937    3.278637    6.659963
     22          7           0       -1.662836    0.832147    2.165770
     23          1           0       -1.223434    1.747151    2.239007
     24          6           0       -0.761867   -0.174742    1.627229
     25          1           0       -0.929206   -1.127099    2.139370
     26          6           0        0.648272    0.351536    1.929070
     27          6           0       -0.973756   -0.364272    0.079172
     28          1           0       -0.064332   -0.801152   -0.345226
     29          1           0       -1.788307   -1.082111   -0.055339
     30          8           0        0.832509    1.529745    2.220625
     31          6           0       -1.309396    0.923071   -0.614713
     32          6           0       -0.439188    1.927955   -0.966794
     33          1           0        0.639966    1.936559   -0.917784
     34          6           0       -2.633664    1.404552   -0.921431
     35          6           0       -2.493258    2.727695   -1.436374
     36          6           0       -3.921056    0.842502   -0.852769
     37          1           0       -4.056561   -0.177138   -0.504018
     38          7           0       -1.147191    3.012245   -1.445378
     39          1           0       -0.729842    3.842088   -1.840514
     40          6           0       -4.856505    2.937158   -1.709658
     41          1           0       -5.727359    3.506775   -2.019698
     42          6           0       -3.592335    3.505399   -1.819026
     43          1           0       -3.462351    4.512894   -2.203621
     44          6           0       -5.021497    1.611154   -1.243092
     45          1           0       -6.013268    1.163200   -1.255655
     46          7           0        1.654845   -0.565887    1.852347
     47          1           0        1.455097   -1.400639    1.311724
     48          6           0        3.014712   -0.084085    1.666062
     49          1           0        3.247481    0.626797    2.464510
     50          6           0        3.119966    0.593096    0.278511
     51          6           0        3.989344   -1.277898    1.723687
     52          1           0        3.796663   -1.858299    2.631115
     53          1           0        5.023737   -0.917408    1.750668
     54          8           0        2.247820    0.401254   -0.567392
     55          8           0        3.800467   -2.127702    0.591025
     56          1           0        4.323634   -1.688914   -0.167080
     57          7           0        4.244152    1.306014    0.025414
     58          1           0        4.983536    1.264993    0.716700
     59          6           0        4.696017    1.404926   -1.369524
     60          1           0        3.919504    1.921550   -1.938313
     61          6           0        4.867808   -0.028171   -1.919139
     62          6           0        6.017500    2.170019   -1.447835
     63          1           0        6.326487    2.266825   -2.492268
     64          1           0        6.806049    1.629360   -0.911151
     65          1           0        5.914096    3.172085   -1.019311
     66          8           0        5.276724   -0.928499   -1.128874
     67          7           0        4.594812   -0.200411   -3.190347
     68          1           0        4.433225    0.576330   -3.883993
     69          6           0        4.875643   -1.370505   -4.019436
     70          1           0        5.854007   -1.782523   -3.746138
     71          6           0        4.921020   -0.805904   -5.508156
     72          6           0        3.813407   -2.471681   -3.931506
     73          1           0        2.859146   -2.091044   -4.318884
     74          1           0        4.142965   -3.254800   -4.623211
     75          8           0        5.152309   -1.657814   -6.373950
     76          6           0        3.608885   -3.016925   -2.514475
     77          1           0        4.597167   -3.126711   -2.049882
     78          1           0        3.071543   -2.270251   -1.916239
     79          6           0        2.856589   -4.350676   -2.458386
     80          1           0        3.443428   -5.139955   -2.948424
     81          1           0        1.911397   -4.286242   -3.011637
     82          6           0        2.508068   -4.781801   -1.034627
     83          1           0        1.780896   -4.107540   -0.575003
     84          1           0        2.126907   -5.805091   -0.990139
     85          7           0        3.732085   -4.716862   -0.125653
     86          1           0        3.627667   -5.326201    0.690082
     87          1           0        4.576477   -5.010337   -0.627504
     88          1           0        3.878280   -3.720097    0.229646
     89          8           0        4.673507    0.433670   -5.581655
 ---------------------------------------------------------------------

 SCF Done:  E(RB3LYP) =  -2042.57366840     A.U. after    2 cycles

 Alpha  occ. eigenvalues --  -19.26292 -19.25653 -19.23532 -19.21696 -19.18516
 Alpha  occ. eigenvalues --  -19.08271 -19.06874 -14.58379 -14.57084 -14.48694
 Alpha  occ. eigenvalues --  -14.47752 -14.46922 -14.45087 -14.40128 -10.42633
 Alpha  occ. eigenvalues --  -10.40181 -10.39338 -10.38371 -10.36884 -10.35259
 Alpha  occ. eigenvalues --  -10.35218 -10.34873 -10.33939 -10.32763 -10.32212
 Alpha  occ. eigenvalues --  -10.31043 -10.30851 -10.30791 -10.30009 -10.29505
 Alpha  occ. eigenvalues --  -10.29386 -10.29275 -10.29131 -10.29000 -10.28816
 Alpha  occ. eigenvalues --  -10.28243 -10.27907 -10.27425 -10.26032 -10.25960
 Alpha  occ. eigenvalues --  -10.25576 -10.24084 -10.22913  -1.18075  -1.15660
 Alpha  occ. eigenvalues --   -1.14029  -1.12908  -1.12677  -1.11351  -1.09133
 Alpha  occ. eigenvalues --   -1.07732  -1.05763  -1.03589  -1.01545  -1.01332
 Alpha  occ. eigenvalues --   -0.96767  -0.94513  -0.94179  -0.92604  -0.91062
 Alpha  occ. eigenvalues --   -0.90180  -0.88514  -0.87602  -0.85731  -0.84392
 Alpha  occ. eigenvalues --   -0.83902  -0.82864  -0.81991  -0.79760  -0.78633
 Alpha  occ. eigenvalues --   -0.77528  -0.77439  -0.75535  -0.73104  -0.72947
 Alpha  occ. eigenvalues --   -0.72454  -0.71993  -0.71318  -0.70632  -0.70355
 Alpha  occ. eigenvalues --   -0.69798  -0.69290  -0.69109  -0.67829  -0.67485
 Alpha  occ. eigenvalues --   -0.66046  -0.65909  -0.65123  -0.63799  -0.63174
 Alpha  occ. eigenvalues --   -0.62574  -0.61977  -0.61004  -0.60710  -0.60075
 Alpha  occ. eigenvalues --   -0.59280  -0.58634  -0.58574  -0.57946  -0.57387
 Alpha  occ. eigenvalues --   -0.57121  -0.56744  -0.56351  -0.55558  -0.55306
 Alpha  occ. eigenvalues --   -0.54572  -0.54447  -0.53980  -0.53355  -0.53294
 Alpha  occ. eigenvalues --   -0.53113  -0.52648  -0.52119  -0.51742  -0.51685
 Alpha  occ. eigenvalues --   -0.51149  -0.50912  -0.50722  -0.50253  -0.50064
 Alpha  occ. eigenvalues --   -0.49832  -0.49464  -0.48935  -0.48495  -0.48301
 Alpha  occ. eigenvalues --   -0.47826  -0.47526  -0.47335  -0.46803  -0.45997
 Alpha  occ. eigenvalues --   -0.45630  -0.45489  -0.45095  -0.44691  -0.44561
 Alpha  occ. eigenvalues --   -0.44164  -0.44031  -0.44016  -0.43784  -0.43609
 Alpha  occ. eigenvalues --   -0.43533  -0.41985  -0.40743  -0.40201  -0.40049
 Alpha  occ. eigenvalues --   -0.39402  -0.38683  -0.38469  -0.38022  -0.37486
 Alpha  occ. eigenvalues --   -0.37404  -0.36877  -0.35853  -0.35543  -0.34834
 Alpha  occ. eigenvalues --   -0.32918  -0.32683  -0.31336  -0.30314  -0.23359
 Alpha  occ. eigenvalues --   -0.23147  -0.21181
 Alpha virt. eigenvalues --   -0.12032  -0.11575  -0.09529  -0.09385  -0.09074
 Alpha virt. eigenvalues --   -0.08186  -0.07966  -0.05068  -0.04590  -0.04143
 Alpha virt. eigenvalues --   -0.03552  -0.03220  -0.02964  -0.02021  -0.01844

 Mulliken charges:
               1
     1  N   -0.757101
     2  H    0.408997
     3  H    0.414439
     4  H    0.401345
     5  C   -0.127096
     6  H    0.216206
     7  C    0.667460
     8  C   -0.277636
     9  H    0.157521
    10  H    0.170349
    11  O   -0.549173
    12  C   -0.099320
    13  H    0.156021
    14  C   -0.463671
    15  H    0.156330
    16  H    0.141154
    17  H    0.182422
    18  C   -0.449939
    19  H    0.155669
    20  H    0.156800
    21  H    0.170608
    22  N   -0.614973
    23  H    0.384464
    24  C   -0.049302
    25  H    0.185872
    26  C    0.639989
    27  C   -0.388877
    28  H    0.190010
    29  H    0.175280
    30  O   -0.531756
    31  C    0.043741
    32  C    0.025991
    33  H    0.211279
    34  C    0.078109
    35  C    0.313895
    36  C   -0.254294
    37  H    0.161174
    38  N   -0.684306
    39  H    0.349652
    40  C   -0.148646
    41  H    0.154336
    42  C   -0.160020
    43  H    0.156148
    44  C   -0.227173
    45  H    0.151566
    46  N   -0.589705
    47  H    0.334833
    48  C   -0.077908
    49  H    0.196330
    50  C    0.621252
    51  C   -0.077519
    52  H    0.166438
    53  H    0.172350
    54  O   -0.534037
    55  O   -0.717527
    56  H    0.498387
    57  N   -0.574306
    58  H    0.334172
    59  C   -0.041164
    60  H    0.183981
    61  C    0.641149
    62  C   -0.483012
    63  H    0.203821
    64  H    0.163333
    65  H    0.168960
    66  O   -0.656218
    67  N   -0.576278
    68  H    0.369505
    69  C   -0.090004
    70  H    0.148610
    71  C    0.597822
    72  C   -0.256789
    73  H    0.146927
    74  H    0.174977
    75  O   -0.572940
    76  C   -0.296374
    77  H    0.130396
    78  H    0.152530
    79  C   -0.292337
    80  H    0.167184
    81  H    0.185318
    82  C   -0.182889
    83  H    0.193442
    84  H    0.199437
    85  N   -0.768336
    86  H    0.397791
    87  H    0.407576
    88  H    0.451780
    89  O   -0.614498
 Sum of Mulliken charges =   1.00000

 Dipole moment (field-independent basis, Debye):
    X=            -12.5031    Y=             -2.0435    Z=             22.3987  Tot=             25.7334
 Quadrupole moment (field-independent basis, Debye-Ang):
   XX=           -168.0324   YY=           -141.8993   ZZ=           -324.9787
   XY=            -72.5008   XZ=             51.9738   YZ=              1.5582

 Normal termination of Gaussian 16 at Thu Jun 23 19:22:44 2022.
