 Gaussian 16, Revision C.01,
 Gaussian 16:  ES64L-G16RevC.01  3-Jul-2019

 ----------------------------------------------------------------------
 # B3LYP/6-31G* empiricaldispersion=gd3 guess=read geom=check nosymm in
 tegral(ultrafinegrid)
 ----------------------------------------------------------------------

 ------------------------------------------------------
 Candidate Structure: Conf:727 Charge calc in gas phase
 ------------------------------------------------------
 Structure from the checkpoint file:  "conf-727.chk"
 Charge =  1 Multiplicity = 1

                          Input orientation:
 ---------------------------------------------------------------------
 Center     Atomic      Atomic             Coordinates (Angstroms)
 Number     Number       Type             X           Y           Z
 ---------------------------------------------------------------------
      1          7           0       -5.545548    1.707034    2.398284
      2          1           0       -5.527287    2.098976    1.424745
      3          1           0       -5.817360    0.707660    2.297249
      4          1           0       -6.213751    2.217118    2.980749
      5          6           0       -4.154808    1.657995    2.997729
      6          1           0       -3.657120    2.593436    2.736696
      7          6           0       -3.543166    0.448726    2.258593
      8          6           0       -4.218395    1.435876    4.511805
      9          1           0       -4.690447    0.461460    4.693113
     10          1           0       -3.180600    1.344082    4.857635
     11          8           0       -4.295033   -0.501054    2.020606
     12          6           0       -4.924197    2.535905    5.332300
     13          1           0       -5.981148    2.595499    5.016922
     14          6           0       -4.926250    2.138004    6.816051
     15          1           0       -3.900892    2.080702    7.200804
     16          1           0       -5.400117    1.162383    6.970800
     17          1           0       -5.467796    2.876662    7.415298
     18          6           0       -4.284061    3.917606    5.134168
     19          1           0       -3.222452    3.894928    5.409267
     20          1           0       -4.354555    4.276438    4.099594
     21          1           0       -4.774667    4.663469    5.767294
     22          7           0       -2.263006    0.537188    1.886583
     23          1           0       -1.671962    1.322689    2.144511
     24          6           0       -1.711496   -0.298756    0.831052
     25          1           0       -2.154818   -1.293251    0.913959
     26          6           0       -0.191349   -0.304076    1.021863
     27          6           0       -2.013398    0.329407   -0.581611
     28          1           0       -1.291707    1.134007   -0.748408
     29          1           0       -1.794946   -0.425240   -1.343192
     30          8           0        0.354052    0.646369    1.576809
     31          6           0       -3.409874    0.855652   -0.708470
     32          6           0       -3.789072    2.148190   -0.499969
     33          1           0       -3.176831    3.021540   -0.316735
     34          6           0       -4.624929    0.095778   -0.945188
     35          6           0       -5.710667    0.993164   -0.858480
     36          6           0       -4.874602   -1.258344   -1.203182
     37          1           0       -4.056589   -1.970434   -1.258012
     38          7           0       -5.201728    2.262674   -0.488918
     39          1           0       -5.629021    3.094999   -0.885618
     40          6           0       -7.256629   -0.755468   -1.315945
     41          1           0       -8.271989   -1.104740   -1.477181
     42          6           0       -7.033558    0.592583   -1.038722
     43          1           0       -7.856963    1.299787   -0.981445
     44          6           0       -6.189573   -1.670217   -1.391158
     45          1           0       -6.400700   -2.714480   -1.600231
     46          7           0        0.466288   -1.372464    0.509031
     47          1           0       -0.049981   -1.995352   -0.102480
     48          6           0        1.865228   -1.237552    0.141537
     49          1           0        2.394842   -0.761599    0.972102
     50          6           0        1.969937   -0.316937   -1.109486
     51          6           0        2.448238   -2.627925   -0.107888
     52          1           0        2.409556   -3.205151    0.827564
     53          1           0        3.499753   -2.543170   -0.416438
     54          8           0        0.967129    0.120027   -1.671080
     55          8           0        1.647396   -3.222119   -1.124254
     56          1           0        1.960463   -4.125485   -1.280655
     57          7           0        3.228504   -0.039541   -1.497942
     58          1           0        4.046898   -0.434498   -1.042515
     59          6           0        3.540507    0.743078   -2.681515
     60          1           0        2.909000    0.393157   -3.507921
     61          6           0        5.019457    0.452845   -3.001593
     62          6           0        3.287932    2.244148   -2.459458
     63          1           0        3.496534    2.818446   -3.367993
     64          1           0        3.927020    2.621661   -1.654815
     65          1           0        2.240591    2.389979   -2.183878
     66          8           0        5.734451   -0.161272   -2.206052
     67          7           0        5.463692    0.940270   -4.176308
     68          1           0        4.841576    1.401301   -4.830886
     69          6           0        6.844679    0.808459   -4.614031
     70          1           0        7.506426    0.983318   -3.762829
     71          6           0        7.110271    1.849925   -5.688206
     72          6           0        7.125945   -0.614811   -5.196806
     73          1           0        7.223533   -1.283196   -4.336010
     74          1           0        6.225658   -0.928018   -5.740063
     75          8           0        8.391247    2.181886   -5.742896
     76          6           0        8.353659   -0.729541   -6.128325
     77          1           0        9.151134   -0.077598   -5.759679
     78          1           0        8.741974   -1.752434   -6.066139
     79          6           0        8.035750   -0.410761   -7.617917
     80          1           0        7.094740    0.147336   -7.695337
     81          1           0        7.854643   -1.355981   -8.142829
     82          6           0        9.116086    0.367942   -8.394780
     83          1           0       10.112146    0.134080   -8.002572
     84          1           0        9.105822    0.060023   -9.449768
     85          7           0        8.927551    1.839151   -8.283165
     86          1           0        9.680537    2.330878   -8.762786
     87          1           0        8.058060    2.109165   -8.744367
     88          1           0        8.652490    2.302657   -6.734903
     89          8           0        6.243994    2.217964   -6.468883
 ---------------------------------------------------------------------

 SCF Done:  E(RB3LYP) =  -2042.60873128     A.U. after    2 cycles

 Alpha  occ. eigenvalues --  -19.24157 -19.23118 -19.21035 -19.20511 -19.18175
 Alpha  occ. eigenvalues --  -19.18129 -19.17861 -14.57392 -14.48846 -14.47603
 Alpha  occ. eigenvalues --  -14.44098 -14.42059 -14.41906 -14.40456 -10.41378
 Alpha  occ. eigenvalues --  -10.38589 -10.37558 -10.36002 -10.35322 -10.34912
 Alpha  occ. eigenvalues --  -10.33461 -10.32155 -10.31969 -10.31927 -10.31774
 Alpha  occ. eigenvalues --  -10.31255 -10.30986 -10.29747 -10.29056 -10.28676
 Alpha  occ. eigenvalues --  -10.28597 -10.28494 -10.28344 -10.28333 -10.27818
 Alpha  occ. eigenvalues --  -10.27813 -10.27568 -10.27353 -10.27264 -10.24097
 Alpha  occ. eigenvalues --  -10.24078 -10.23865 -10.23405  -1.16888  -1.13414
 Alpha  occ. eigenvalues --   -1.12734  -1.11638  -1.10615  -1.10019  -1.09312
 Alpha  occ. eigenvalues --   -1.07686  -1.04937  -1.04327  -1.00821  -0.98865
 Alpha  occ. eigenvalues --   -0.98387  -0.95886  -0.93707  -0.93502  -0.90564
 Alpha  occ. eigenvalues --   -0.88289  -0.86294  -0.85463  -0.84168  -0.82987
 Alpha  occ. eigenvalues --   -0.82300  -0.81453  -0.79768  -0.79234  -0.78163
 Alpha  occ. eigenvalues --   -0.75988  -0.75062  -0.72990  -0.72039  -0.71542
 Alpha  occ. eigenvalues --   -0.71316  -0.70383  -0.69807  -0.68813  -0.68204
 Alpha  occ. eigenvalues --   -0.68123  -0.67632  -0.66136  -0.65985  -0.64754
 Alpha  occ. eigenvalues --   -0.63979  -0.63878  -0.62869  -0.62492  -0.61378
 Alpha  occ. eigenvalues --   -0.61070  -0.59634  -0.58371  -0.58217  -0.57653
 Alpha  occ. eigenvalues --   -0.57126  -0.56747  -0.56358  -0.56216  -0.55972
 Alpha  occ. eigenvalues --   -0.54770  -0.54488  -0.54408  -0.54265  -0.53425
 Alpha  occ. eigenvalues --   -0.53194  -0.52690  -0.52574  -0.51879  -0.51723
 Alpha  occ. eigenvalues --   -0.51380  -0.51040  -0.50887  -0.50661  -0.50504
 Alpha  occ. eigenvalues --   -0.49934  -0.49631  -0.49205  -0.49009  -0.48705
 Alpha  occ. eigenvalues --   -0.48544  -0.48268  -0.48171  -0.47620  -0.47191
 Alpha  occ. eigenvalues --   -0.46680  -0.46616  -0.46330  -0.46013  -0.45420
 Alpha  occ. eigenvalues --   -0.45311  -0.44287  -0.44254  -0.44129  -0.44079
 Alpha  occ. eigenvalues --   -0.43932  -0.43293  -0.42969  -0.42880  -0.42621
 Alpha  occ. eigenvalues --   -0.42190  -0.41731  -0.41200  -0.40883  -0.38965
 Alpha  occ. eigenvalues --   -0.38796  -0.38527  -0.38240  -0.38213  -0.36394
 Alpha  occ. eigenvalues --   -0.35760  -0.34942  -0.34596  -0.34086  -0.32768
 Alpha  occ. eigenvalues --   -0.32521  -0.32422  -0.32205  -0.31868  -0.31349
 Alpha  occ. eigenvalues --   -0.30970  -0.30428
 Alpha virt. eigenvalues --   -0.11288  -0.11079  -0.08515  -0.07836  -0.06911
 Alpha virt. eigenvalues --   -0.04611  -0.04192  -0.04046  -0.03520  -0.02965
 Alpha virt. eigenvalues --   -0.02281  -0.01229  -0.00897  -0.00550  -0.00289

 Mulliken charges:
               1
     1  N   -0.772478
     2  H    0.438554
     3  H    0.421060
     4  H    0.399482
     5  C   -0.118550
     6  H    0.192275
     7  C    0.660354
     8  C   -0.276621
     9  H    0.178758
    10  H    0.185526
    11  O   -0.533356
    12  C   -0.102995
    13  H    0.112516
    14  C   -0.447089
    15  H    0.163974
    16  H    0.160436
    17  H    0.170319
    18  C   -0.453271
    19  H    0.166866
    20  H    0.128780
    21  H    0.179424
    22  N   -0.597527
    23  H    0.356897
    24  C   -0.082049
    25  H    0.193827
    26  C    0.648543
    27  C   -0.366210
    28  H    0.198305
    29  H    0.188659
    30  O   -0.535972
    31  C    0.111538
    32  C   -0.078156
    33  H    0.165392
    34  C    0.143388
    35  C    0.218128
    36  C   -0.185756
    37  H    0.141288
    38  N   -0.721549
    39  H    0.354236
    40  C   -0.143082
    41  H    0.153338
    42  C   -0.189179
    43  H    0.139953
    44  C   -0.133861
    45  H    0.152095
    46  N   -0.587771
    47  H    0.353315
    48  C   -0.100027
    49  H    0.201505
    50  C    0.652415
    51  C   -0.052227
    52  H    0.154304
    53  H    0.155212
    54  O   -0.545295
    55  O   -0.624682
    56  H    0.413432
    57  N   -0.620801
    58  H    0.357776
    59  C   -0.036564
    60  H    0.177095
    61  C    0.621382
    62  C   -0.447735
    63  H    0.154246
    64  H    0.163248
    65  H    0.181766
    66  O   -0.545590
    67  N   -0.622529
    68  H    0.349114
    69  C   -0.001234
    70  H    0.189502
    71  C    0.572814
    72  C   -0.281961
    73  H    0.172699
    74  H    0.144678
    75  O   -0.599999
    76  C   -0.285579
    77  H    0.170839
    78  H    0.145643
    79  C   -0.292231
    80  H    0.162318
    81  H    0.150015
    82  C   -0.141858
    83  H    0.164415
    84  H    0.147478
    85  N   -0.778275
    86  H    0.333150
    87  H    0.340908
    88  H    0.457504
    89  O   -0.508622
 Sum of Mulliken charges =   1.00000

 Dipole moment (field-independent basis, Debye):
    X=            -11.7972    Y=              5.1375    Z=              0.9850  Tot=             12.9049
 Quadrupole moment (field-independent basis, Debye-Ang):
   XX=            -65.0109   YY=           -209.2851   ZZ=           -140.8520
   XY=            -51.5043   XZ=           -118.1315   YZ=             20.9784

 Normal termination of Gaussian 16 at Thu Jun 23 19:22:21 2022.
