 Gaussian 16, Revision C.01,
 Gaussian 16:  ES64L-G16RevC.01  3-Jul-2019

 ----------------------------------------------------------------------
 # B3LYP/6-31G* empiricaldispersion=gd3 guess=read geom=check nosymm in
 tegral(ultrafinegrid)
 ----------------------------------------------------------------------

 ------------------------------------------------------
 Candidate Structure: Conf:771 Charge calc in gas phase
 ------------------------------------------------------
 Structure from the checkpoint file:  "conf-771.chk"
 Charge =  1 Multiplicity = 1

                          Input orientation:
 ---------------------------------------------------------------------
 Center     Atomic      Atomic             Coordinates (Angstroms)
 Number     Number       Type             X           Y           Z
 ---------------------------------------------------------------------
      1          7           0       -5.433086   -0.858309    1.784668
      2          1           0       -5.734132   -0.292111    0.962063
      3          1           0       -5.261213   -1.819035    1.433882
      4          1           0       -6.166733   -0.857379    2.498873
      5          6           0       -4.093270   -0.384968    2.313735
      6          1           0       -4.137550    0.704941    2.351650
      7          6           0       -3.116810   -0.899441    1.241919
      8          6           0       -3.815966   -1.014916    3.683184
      9          1           0       -4.590813   -0.686286    4.391269
     10          1           0       -3.901485   -2.103990    3.573174
     11          8           0       -3.342391   -2.007658    0.741156
     12          6           0       -2.420423   -0.676558    4.251931
     13          1           0       -1.667099   -1.027922    3.537148
     14          6           0       -2.235776    0.830317    4.483943
     15          1           0       -2.991452    1.219925    5.177980
     16          1           0       -2.299934    1.419833    3.559754
     17          1           0       -1.251347    1.030849    4.917801
     18          6           0       -2.202934   -1.456216    5.555946
     19          1           0       -2.909329   -1.141399    6.334220
     20          1           0       -2.332253   -2.533957    5.401532
     21          1           0       -1.189485   -1.291031    5.934247
     22          7           0       -2.108982   -0.092370    0.906008
     23          1           0       -2.051639    0.825438    1.329302
     24          6           0       -1.325067   -0.295562   -0.320357
     25          1           0       -1.853239   -1.071049   -0.880747
     26          6           0        0.058893   -0.837716    0.098455
     27          6           0       -1.247625    1.018224   -1.139434
     28          1           0       -0.307502    1.519242   -0.888771
     29          1           0       -1.179121    0.743736   -2.198594
     30          8           0        1.069518   -0.143376    0.071983
     31          6           0       -2.407799    1.941605   -0.880338
     32          6           0       -2.311591    3.239151   -0.438594
     33          1           0       -1.427495    3.843587   -0.286597
     34          6           0       -3.820029    1.632567   -0.905339
     35          6           0       -4.515846    2.791809   -0.449048
     36          6           0       -4.564120    0.485384   -1.229359
     37          1           0       -4.071681   -0.408438   -1.600210
     38          7           0       -3.568782    3.753882   -0.181572
     39          1           0       -3.762419    4.708707    0.081833
     40          6           0       -6.615753    1.665146   -0.601731
     41          1           0       -7.698247    1.662809   -0.512910
     42          6           0       -5.905773    2.819924   -0.287794
     43          1           0       -6.414845    3.714007    0.060469
     44          6           0       -5.952275    0.506487   -1.073161
     45          1           0       -6.539105   -0.357000   -1.378658
     46          7           0        0.019036   -2.110021    0.557966
     47          1           0       -0.881393   -2.570013    0.634054
     48          6           0        1.132953   -2.688490    1.314459
     49          1           0        1.626143   -1.862958    1.840359
     50          6           0        2.151536   -3.379168    0.375893
     51          6           0        0.596418   -3.696916    2.321516
     52          1           0        1.433277   -4.059724    2.929891
     53          1           0        0.179247   -4.561179    1.788060
     54          8           0        2.287608   -4.601878    0.378648
     55          8           0       -0.398939   -3.038556    3.115596
     56          1           0       -0.678379   -3.661637    3.802525
     57          7           0        2.844916   -2.538387   -0.417872
     58          1           0        2.698392   -1.530020   -0.387608
     59          6           0        3.808804   -3.028387   -1.389122
     60          1           0        4.438622   -3.780737   -0.898739
     61          6           0        4.664673   -1.827332   -1.821446
     62          6           0        3.119588   -3.676804   -2.603998
     63          1           0        3.857950   -4.064041   -3.313546
     64          1           0        2.495260   -2.939702   -3.120045
     65          1           0        2.494211   -4.504910   -2.261222
     66          8           0        4.302218   -0.669753   -1.614480
     67          7           0        5.802281   -2.145239   -2.478323
     68          1           0        6.098981   -3.107669   -2.593433
     69          6           0        6.700458   -1.141164   -3.023070
     70          1           0        6.107851   -0.332764   -3.456949
     71          6           0        7.552182   -1.783955   -4.103899
     72          6           0        7.635678   -0.550832   -1.916774
     73          1           0        7.025729    0.158602   -1.349275
     74          1           0        7.885307   -1.370429   -1.231611
     75          8           0        7.903837   -2.953673   -4.051711
     76          6           0        8.938472    0.113741   -2.416426
     77          1           0        8.741973    0.638541   -3.356086
     78          1           0        9.235482    0.882139   -1.693529
     79          6           0       10.118810   -0.885795   -2.588569
     80          1           0        9.741670   -1.914424   -2.637065
     81          1           0       10.738952   -0.847788   -1.685320
     82          6           0       11.036421   -0.657863   -3.805964
     83          1           0       11.089447    0.409222   -4.050076
     84          1           0       12.057814   -0.982661   -3.561724
     85          7           0       10.542246   -1.367791   -5.015457
     86          1           0       11.147711   -1.174862   -5.812234
     87          1           0       10.573239   -2.375702   -4.857544
     88          1           0        8.929868   -1.132969   -5.261768
     89          8           0        7.961193   -0.896126   -5.000263
 ---------------------------------------------------------------------

 SCF Done:  E(RB3LYP) =  -2042.60741948     A.U. after    3 cycles

 Alpha  occ. eigenvalues --  -19.26191 -19.23739 -19.20954 -19.20541 -19.17604
 Alpha  occ. eigenvalues --  -19.17082 -19.16560 -14.59754 -14.49817 -14.48999
 Alpha  occ. eigenvalues --  -14.44882 -14.40867 -14.40762 -14.39917 -10.43166
 Alpha  occ. eigenvalues --  -10.40140 -10.37905 -10.35416 -10.34453 -10.34424
 Alpha  occ. eigenvalues --  -10.33743 -10.33502 -10.32876 -10.32807 -10.31327
 Alpha  occ. eigenvalues --  -10.30771 -10.30480 -10.30474 -10.30303 -10.30269
 Alpha  occ. eigenvalues --  -10.30102 -10.29935 -10.29411 -10.29327 -10.28589
 Alpha  occ. eigenvalues --  -10.28433 -10.27786 -10.27410 -10.27116 -10.23458
 Alpha  occ. eigenvalues --  -10.23376 -10.23231 -10.22922  -1.18696  -1.13832
 Alpha  occ. eigenvalues --   -1.12870  -1.12842  -1.10631  -1.09117  -1.09029
 Alpha  occ. eigenvalues --   -1.08287  -1.06499  -1.04365  -1.01128  -0.97561
 Alpha  occ. eigenvalues --   -0.97343  -0.95514  -0.95376  -0.94595  -0.91454
 Alpha  occ. eigenvalues --   -0.88829  -0.86774  -0.85223  -0.84943  -0.84420
 Alpha  occ. eigenvalues --   -0.83006  -0.81876  -0.80012  -0.79163  -0.78667
 Alpha  occ. eigenvalues --   -0.76611  -0.74463  -0.73941  -0.73646  -0.73221
 Alpha  occ. eigenvalues --   -0.72423  -0.71961  -0.70554  -0.69690  -0.68376
 Alpha  occ. eigenvalues --   -0.67705  -0.67479  -0.66812  -0.65260  -0.65119
 Alpha  occ. eigenvalues --   -0.64132  -0.63924  -0.62951  -0.62772  -0.62143
 Alpha  occ. eigenvalues --   -0.61467  -0.60858  -0.60059  -0.59313  -0.58750
 Alpha  occ. eigenvalues --   -0.58141  -0.57826  -0.56905  -0.55995  -0.55479
 Alpha  occ. eigenvalues --   -0.54993  -0.54700  -0.54599  -0.54490  -0.54311
 Alpha  occ. eigenvalues --   -0.53699  -0.53432  -0.52960  -0.52218  -0.52135
 Alpha  occ. eigenvalues --   -0.51859  -0.51337  -0.51010  -0.50454  -0.50247
 Alpha  occ. eigenvalues --   -0.50081  -0.49918  -0.49831  -0.49126  -0.48832
 Alpha  occ. eigenvalues --   -0.48446  -0.47994  -0.47920  -0.47850  -0.47386
 Alpha  occ. eigenvalues --   -0.47290  -0.46585  -0.46072  -0.45896  -0.45780
 Alpha  occ. eigenvalues --   -0.45258  -0.45233  -0.44792  -0.44435  -0.44141
 Alpha  occ. eigenvalues --   -0.43909  -0.43833  -0.43070  -0.42605  -0.41907
 Alpha  occ. eigenvalues --   -0.41806  -0.41185  -0.40657  -0.40495  -0.40172
 Alpha  occ. eigenvalues --   -0.40044  -0.38599  -0.38403  -0.38016  -0.37653
 Alpha  occ. eigenvalues --   -0.35989  -0.35533  -0.34384  -0.34080  -0.34028
 Alpha  occ. eigenvalues --   -0.32201  -0.31704  -0.31584  -0.31079  -0.30554
 Alpha  occ. eigenvalues --   -0.30004  -0.29455
 Alpha virt. eigenvalues --   -0.13397  -0.12243  -0.10424  -0.08907  -0.07727
 Alpha virt. eigenvalues --   -0.05885  -0.04713  -0.04044  -0.03678  -0.03529
 Alpha virt. eigenvalues --   -0.03393  -0.02038  -0.01897  -0.01749  -0.00916

 Mulliken charges:
               1
     1  N   -0.753696
     2  H    0.414107
     3  H    0.417715
     4  H    0.405995
     5  C   -0.124800
     6  H    0.205334
     7  C    0.663956
     8  C   -0.274192
     9  H    0.155747
    10  H    0.170658
    11  O   -0.557575
    12  C   -0.112694
    13  H    0.195013
    14  C   -0.458975
    15  H    0.156364
    16  H    0.118588
    17  H    0.183558
    18  C   -0.448072
    19  H    0.153846
    20  H    0.141665
    21  H    0.174255
    22  N   -0.573113
    23  H    0.356954
    24  C   -0.092440
    25  H    0.200728
    26  C    0.637233
    27  C   -0.384210
    28  H    0.207062
    29  H    0.189966
    30  O   -0.508942
    31  C    0.037296
    32  C    0.002916
    33  H    0.187541
    34  C    0.083407
    35  C    0.314907
    36  C   -0.224780
    37  H    0.161423
    38  N   -0.680472
    39  H    0.350040
    40  C   -0.160431
    41  H    0.157565
    42  C   -0.161213
    43  H    0.157676
    44  C   -0.239750
    45  H    0.157655
    46  N   -0.594553
    47  H    0.356335
    48  C   -0.075450
    49  H    0.188519
    50  C    0.638292
    51  C   -0.068493
    52  H    0.168417
    53  H    0.163931
    54  O   -0.537148
    55  O   -0.640213
    56  H    0.406662
    57  N   -0.634116
    58  H    0.387169
    59  C   -0.035639
    60  H    0.174220
    61  C    0.615185
    62  C   -0.449094
    63  H    0.156268
    64  H    0.152785
    65  H    0.184671
    66  O   -0.537064
    67  N   -0.622245
    68  H    0.347359
    69  C    0.000363
    70  H    0.185703
    71  C    0.572032
    72  C   -0.281488
    73  H    0.171953
    74  H    0.145671
    75  O   -0.507582
    76  C   -0.285532
    77  H    0.168820
    78  H    0.143289
    79  C   -0.291592
    80  H    0.163677
    81  H    0.148990
    82  C   -0.140828
    83  H    0.161737
    84  H    0.145953
    85  N   -0.777732
    86  H    0.331205
    87  H    0.341471
    88  H    0.455880
    89  O   -0.601605
 Sum of Mulliken charges =   1.00000

 Dipole moment (field-independent basis, Debye):
    X=            -13.7969    Y=              2.1027    Z=              7.4118  Tot=             15.8022
 Quadrupole moment (field-independent basis, Debye-Ang):
   XX=            -31.5754   YY=           -229.3209   ZZ=           -206.4906
   XY=            -10.5399   XZ=            -74.3982   YZ=             -7.0863

 Normal termination of Gaussian 16 at Thu Jun 23 19:22:41 2022.
