 Gaussian 16, Revision C.01,
 Gaussian 16:  ES64L-G16RevC.01  3-Jul-2019

 ----------------------------------------------------------------------
 # B3LYP/6-31G* empiricaldispersion=gd3 guess=read geom=check nosymm in
 tegral(ultrafinegrid)
 ----------------------------------------------------------------------

 ------------------------------------------------------
 Candidate Structure: Conf:459 Charge calc in gas phase
 ------------------------------------------------------
 Structure from the checkpoint file:  "conf-459.chk"
 Charge =  1 Multiplicity = 1

                          Input orientation:
 ---------------------------------------------------------------------
 Center     Atomic      Atomic             Coordinates (Angstroms)
 Number     Number       Type             X           Y           Z
 ---------------------------------------------------------------------
      1          7           0       -1.049666    1.354132    5.248606
      2          1           0       -1.660696    1.524644    6.048056
      3          1           0       -1.250426    0.405370    4.867343
      4          1           0       -0.009953    1.363748    5.568850
      5          6           0       -1.312916    2.293657    4.099082
      6          1           0       -2.076503    3.010584    4.412234
      7          6           0       -1.857527    1.386439    2.971722
      8          6           0        0.002998    3.013209    3.726861
      9          1           0        0.447151    3.352461    4.668505
     10          1           0        0.681147    2.267455    3.296999
     11          8           0       -1.903291    0.169874    3.134871
     12          6           0       -0.066348    4.233672    2.787203
     13          1           0       -0.309491    3.894980    1.774595
     14          6           0       -1.081405    5.289689    3.247193
     15          1           0       -0.881510    5.603345    4.280582
     16          1           0       -2.118020    4.930868    3.208589
     17          1           0       -1.030521    6.180942    2.612806
     18          6           0        1.344763    4.837352    2.698711
     19          1           0        1.668974    5.199620    3.684877
     20          1           0        2.068107    4.089776    2.354110
     21          1           0        1.368788    5.681627    2.001781
     22          7           0       -2.232395    2.008601    1.827910
     23          1           0       -1.996202    2.989746    1.754149
     24          6           0       -2.141194    1.283391    0.554326
     25          1           0       -2.647189    0.324341    0.682363
     26          6           0       -0.633517    1.093031    0.264448
     27          6           0       -2.829421    2.096196   -0.558872
     28          1           0       -3.879278    2.231798   -0.275623
     29          1           0       -2.370269    3.093400   -0.588491
     30          8           0        0.128202    2.055712    0.358398
     31          6           0       -2.710347    1.454806   -1.908783
     32          6           0       -3.570804    0.544597   -2.474504
     33          1           0       -4.498571    0.141561   -2.090867
     34          6           0       -1.645919    1.658480   -2.859186
     35          6           0       -1.927485    0.838412   -3.985913
     36          6           0       -0.488973    2.460712   -2.870302
     37          1           0       -0.236642    3.072219   -2.009449
     38          7           0       -3.101269    0.164897   -3.715096
     39          1           0       -3.577604   -0.454952   -4.352252
     40          6           0        0.035822    1.607513   -5.097981
     41          1           0        0.705901    1.599218   -5.951998
     42          6           0       -1.095810    0.801196   -5.110454
     43          1           0       -1.323989    0.164748   -5.960601
     44          6           0        0.337035    2.429502   -3.989620
     45          1           0        1.236682    3.037319   -4.009906
     46          7           0       -0.250089   -0.154545   -0.093503
     47          1           0       -0.944577   -0.881679    0.003792
     48          6           0        1.137368   -0.595819   -0.121846
     49          1           0        1.114748   -1.628330   -0.488538
     50          6           0        1.720115   -0.644112    1.313524
     51          6           0        1.993156    0.183030   -1.152620
     52          1           0        3.036538   -0.140461   -1.065127
     53          1           0        1.953521    1.252213   -0.925258
     54          8           0        1.068647   -0.305272    2.302842
     55          8           0        1.582046   -0.117211   -2.464923
     56          1           0        0.864033    0.490917   -2.706013
     57          7           0        2.972147   -1.161868    1.394529
     58          1           0        3.432521   -1.451228    0.541769
     59          6           0        3.576288   -1.641124    2.648056
     60          1           0        2.757581   -2.052620    3.252252
     61          6           0        4.222059   -0.495564    3.467897
     62          6           0        4.602763   -2.725518    2.339747
     63          1           0        5.026115   -3.113530    3.268462
     64          1           0        5.432895   -2.315863    1.755852
     65          1           0        4.136643   -3.550617    1.791389
     66          8           0        5.429356   -0.440567    3.683276
     67          7           0        3.332582    0.405648    3.952678
     68          1           0        2.341675    0.219438    3.824864
     69          6           0        3.727133    1.392232    4.945412
     70          1           0        4.312437    0.877529    5.723699
     71          6           0        2.435482    1.921350    5.613752
     72          6           0        4.606904    2.502726    4.347076
     73          1           0        5.254132    2.054016    3.590783
     74          1           0        3.953065    3.214507    3.828962
     75          8           0        2.356270    3.129473    6.001742
     76          6           0        5.477432    3.181745    5.420316
     77          1           0        4.963210    3.147871    6.390019
     78          1           0        6.391309    2.594572    5.560471
     79          6           0        5.868342    4.635107    5.108635
     80          1           0        6.490031    4.682765    4.206680
     81          1           0        6.481137    5.034438    5.927616
     82          6           0        4.670934    5.560922    4.877811
     83          1           0        4.967015    6.613319    4.889905
     84          1           0        4.171834    5.356095    3.928666
     85          7           0        3.624211    5.349736    5.941054
     86          1           0        2.853094    6.014491    5.841168
     87          1           0        3.174865    4.322787    5.905912
     88          1           0        4.018920    5.480549    6.876885
     89          8           0        1.496358    1.091905    5.711549
 ---------------------------------------------------------------------

 SCF Done:  E(RB3LYP) =  -2042.63900082     A.U. after    2 cycles

 Alpha  occ. eigenvalues --  -19.23640 -19.21497 -19.20716 -19.20587 -19.20517
 Alpha  occ. eigenvalues --  -19.20361 -19.18112 -14.54412 -14.52259 -14.46537
 Alpha  occ. eigenvalues --  -14.45271 -14.45157 -14.44868 -14.41771 -10.40194
 Alpha  occ. eigenvalues --  -10.38598 -10.37650 -10.37601 -10.36221 -10.35852
 Alpha  occ. eigenvalues --  -10.35008 -10.32784 -10.31855 -10.31047 -10.30758
 Alpha  occ. eigenvalues --  -10.30676 -10.30103 -10.29468 -10.28983 -10.28899
 Alpha  occ. eigenvalues --  -10.28848 -10.28356 -10.28104 -10.27454 -10.27400
 Alpha  occ. eigenvalues --  -10.26779 -10.25873 -10.25788 -10.25616 -10.25498
 Alpha  occ. eigenvalues --  -10.25211 -10.25140 -10.25049  -1.15776  -1.14335
 Alpha  occ. eigenvalues --   -1.12912  -1.11891  -1.09869  -1.09558  -1.08230
 Alpha  occ. eigenvalues --   -1.07589  -1.05158  -1.05111  -1.03405  -1.01306
 Alpha  occ. eigenvalues --   -1.01050  -0.98729  -0.91698  -0.90950  -0.90757
 Alpha  occ. eigenvalues --   -0.89135  -0.86572  -0.85801  -0.84998  -0.83509
 Alpha  occ. eigenvalues --   -0.82038  -0.80501  -0.79903  -0.78984  -0.78423
 Alpha  occ. eigenvalues --   -0.76374  -0.74756  -0.74535  -0.72625  -0.71636
 Alpha  occ. eigenvalues --   -0.69582  -0.69201  -0.68974  -0.68832  -0.68383
 Alpha  occ. eigenvalues --   -0.68197  -0.67989  -0.67565  -0.66331  -0.65731
 Alpha  occ. eigenvalues --   -0.64692  -0.64038  -0.63606  -0.62881  -0.62367
 Alpha  occ. eigenvalues --   -0.60891  -0.60657  -0.59825  -0.59522  -0.58781
 Alpha  occ. eigenvalues --   -0.58223  -0.57617  -0.57118  -0.56671  -0.56359
 Alpha  occ. eigenvalues --   -0.55826  -0.55467  -0.54859  -0.54434  -0.54321
 Alpha  occ. eigenvalues --   -0.54152  -0.53730  -0.52987  -0.52857  -0.52570
 Alpha  occ. eigenvalues --   -0.51844  -0.51287  -0.50941  -0.50577  -0.50299
 Alpha  occ. eigenvalues --   -0.49968  -0.49784  -0.49744  -0.49285  -0.49069
 Alpha  occ. eigenvalues --   -0.48674  -0.48609  -0.48147  -0.47993  -0.47991
 Alpha  occ. eigenvalues --   -0.47821  -0.47631  -0.47283  -0.46403  -0.46041
 Alpha  occ. eigenvalues --   -0.45933  -0.45543  -0.44986  -0.44903  -0.44616
 Alpha  occ. eigenvalues --   -0.44580  -0.43258  -0.43087  -0.43020  -0.42873
 Alpha  occ. eigenvalues --   -0.42569  -0.42336  -0.42201  -0.41657  -0.40901
 Alpha  occ. eigenvalues --   -0.40439  -0.39397  -0.37998  -0.37235  -0.36724
 Alpha  occ. eigenvalues --   -0.36177  -0.35845  -0.35492  -0.35223  -0.34901
 Alpha  occ. eigenvalues --   -0.34513  -0.33467  -0.32588  -0.31902  -0.30868
 Alpha  occ. eigenvalues --   -0.29326  -0.27594
 Alpha virt. eigenvalues --   -0.09695  -0.08303  -0.08208  -0.07190  -0.06650
 Alpha virt. eigenvalues --   -0.06252  -0.04847  -0.04723  -0.04454  -0.02893
 Alpha virt. eigenvalues --   -0.02549  -0.01623  -0.01300  -0.01025   0.00157

 Mulliken charges:
               1
     1  N   -0.791564
     2  H    0.385478
     3  H    0.416698
     4  H    0.453553
     5  C   -0.107037
     6  H    0.191833
     7  C    0.643948
     8  C   -0.313245
     9  H    0.179574
    10  H    0.196672
    11  O   -0.513591
    12  C   -0.110620
    13  H    0.174257
    14  C   -0.463945
    15  H    0.141239
    16  H    0.141609
    17  H    0.168568
    18  C   -0.454266
    19  H    0.101050
    20  H    0.174807
    21  H    0.161681
    22  N   -0.590845
    23  H    0.352771
    24  C   -0.062473
    25  H    0.175374
    26  C    0.659819
    27  C   -0.374344
    28  H    0.172082
    29  H    0.161623
    30  O   -0.550851
    31  C    0.053939
    32  C   -0.000931
    33  H    0.162149
    34  C    0.084204
    35  C    0.314510
    36  C   -0.254627
    37  H    0.147494
    38  N   -0.685737
    39  H    0.340628
    40  C   -0.141915
    41  H    0.146095
    42  C   -0.155896
    43  H    0.142629
    44  C   -0.163596
    45  H    0.139141
    46  N   -0.578381
    47  H    0.349873
    48  C   -0.091433
    49  H    0.181617
    50  C    0.638213
    51  C   -0.050551
    52  H    0.136039
    53  H    0.178698
    54  O   -0.543629
    55  O   -0.628078
    56  H    0.431473
    57  N   -0.604204
    58  H    0.345785
    59  C   -0.061409
    60  H    0.179506
    61  C    0.626605
    62  C   -0.471662
    63  H    0.186987
    64  H    0.174818
    65  H    0.152682
    66  O   -0.526701
    67  N   -0.641204
    68  H    0.382726
    69  C   -0.020559
    70  H    0.182659
    71  C    0.633811
    72  C   -0.274891
    73  H    0.191673
    74  H    0.123402
    75  O   -0.634895
    76  C   -0.300467
    77  H    0.135730
    78  H    0.185912
    79  C   -0.287546
    80  H    0.184699
    81  H    0.162026
    82  C   -0.188022
    83  H    0.195004
    84  H    0.208689
    85  N   -0.780507
    86  H    0.390212
    87  H    0.478295
    88  H    0.389359
    89  O   -0.590297
 Sum of Mulliken charges =   1.00000

 Dipole moment (field-independent basis, Debye):
    X=              2.3706    Y=             15.7601    Z=             15.8288  Tot=             22.4623
 Quadrupole moment (field-independent basis, Debye-Ang):
   XX=           -192.2829   YY=           -147.7102   ZZ=           -128.2707
   XY=             49.9169   XZ=             44.6116   YZ=            101.1153

 Normal termination of Gaussian 16 at Thu Jun 23 19:22:37 2022.
