 Gaussian 16, Revision C.01,
 Gaussian 16:  ES64L-G16RevC.01  3-Jul-2019

 ----------------------------------------------------------------------
 # B3LYP/6-31G* empiricaldispersion=gd3 guess=read geom=check nosymm in
 tegral(ultrafinegrid)
 ----------------------------------------------------------------------

 ------------------------------------------------------
 Candidate Structure: Conf:684 Charge calc in gas phase
 ------------------------------------------------------
 Structure from the checkpoint file:  "conf-684.chk"
 Charge =  1 Multiplicity = 1

                          Input orientation:
 ---------------------------------------------------------------------
 Center     Atomic      Atomic             Coordinates (Angstroms)
 Number     Number       Type             X           Y           Z
 ---------------------------------------------------------------------
      1          7           0       -4.917298    0.791544   -6.053025
      2          1           0       -5.141860    1.740122   -6.344914
      3          1           0       -4.393669    0.355152   -6.808226
      4          6           0       -4.138211    0.820567   -4.823846
      5          1           0       -3.259371    1.492470   -4.857711
      6          6           0       -3.649772   -0.585613   -4.466792
      7          6           0       -5.061247    1.293714   -3.660811
      8          1           0       -5.384618    2.317416   -3.888715
      9          1           0       -5.948572    0.654491   -3.693481
     10          8           0       -4.328855   -1.594041   -4.607839
     11          6           0       -4.407933    1.240962   -2.296780
     12          6           0       -4.573991    0.119765   -1.469574
     13          1           0       -5.209276   -0.695464   -1.807960
     14          6           0       -3.580711    2.280662   -1.850680
     15          1           0       -3.445646    3.160587   -2.476390
     16          6           0       -3.929134    0.034997   -0.233415
     17          1           0       -4.051722   -0.848786    0.387162
     18          6           0       -2.939276    2.205905   -0.613410
     19          1           0       -2.306850    3.025134   -0.282191
     20          6           0       -3.113205    1.083665    0.198365
     21          1           0       -2.623506    1.032182    1.167835
     22          7           0       -2.409481   -0.626710   -3.872832
     23          1           0       -1.990747    0.249900   -3.577550
     24          6           0       -2.140765   -1.731279   -2.976026
     25          1           0       -3.085520   -2.039994   -2.506823
     26          6           0       -1.217748   -1.241374   -1.863874
     27          6           0       -1.594511   -2.982066   -3.697135
     28          1           0       -0.545621   -2.848073   -3.978423
     29          1           0       -2.188353   -3.129802   -4.604009
     30          8           0       -0.756389   -0.091422   -1.853852
     31          8           0       -1.653516   -4.121730   -2.832946
     32          1           0       -2.555836   -4.475404   -2.883895
     33          7           0       -0.954936   -2.143760   -0.890875
     34          1           0       -1.370282   -3.064541   -1.002591
     35          6           0       -0.528973   -1.739489    0.445769
     36          1           0       -1.013174   -0.778188    0.666901
     37          6           0        0.984142   -1.501970    0.556453
     38          6           0       -0.995881   -2.776370    1.464749
     39          1           0       -0.732657   -2.421991    2.469682
     40          1           0       -0.462929   -3.724560    1.297168
     41          8           0        1.666943   -2.050752    1.448490
     42          8           0       -2.398047   -2.916037    1.285120
     43          1           0       -2.724752   -3.571422    1.919780
     44          7           0        1.496562   -0.655302   -0.348540
     45          1           0        0.816371   -0.155889   -0.937452
     46          6           0        2.847753   -0.170010   -0.201493
     47          1           0        3.472814   -1.013075    0.084127
     48          6           0        2.903872    0.864249    0.952444
     49          6           0        3.415224    0.375624   -1.520776
     50          1           0        2.999817   -0.193439   -2.361942
     51          1           0        3.151776    1.423724   -1.697376
     52          8           0        1.883294    1.316681    1.456354
     53          6           0        4.924928    0.220180   -1.577933
     54          8           0        5.592242   -0.411344   -0.772347
     55          8           0        5.446468    0.844612   -2.635269
     56          7           0        4.158046    1.189095    1.366300
     57          1           0        4.962436    0.824965    0.864940
     58          6           0        4.402489    2.299726    2.269781
     59          1           0        3.531714    2.962594    2.231780
     60          6           0        5.618029    3.061607    1.746763
     61          6           0        4.621403    1.879879    3.743337
     62          1           0        4.815868    2.794970    4.310491
     63          1           0        5.545616    1.289808    3.805444
     64          8           0        6.342617    2.667625    0.858364
     65          6           0        3.426671    1.122732    4.373248
     66          1           0        2.523391    1.292092    3.778483
     67          1           0        3.227143    1.538733    5.367572
     68          6           0        3.607764   -0.389397    4.584296
     69          1           0        4.514157   -0.602973    5.161715
     70          1           0        2.773106   -0.771091    5.180522
     71          7           0        3.631304   -1.189130    3.354631
     72          1           0        2.744021   -1.327119    2.861160
     73          7           0        5.955738   -1.377507    3.092137
     74          1           0        6.714127   -1.970453    2.786482
     75          1           0        6.145811   -0.744978    3.852906
     76          7           0        4.522905   -2.520419    1.686352
     77          1           0        3.554126   -2.673484    1.399493
     78          1           0        5.201527   -2.473705    0.934044
     79          6           0        4.694537   -1.672637    2.724457
     80          8           0        5.799584    4.211357    2.417624
     81          1           0        6.593654    4.647241    2.052179
     82          1           0        6.414392    0.711762   -2.619310
 ---------------------------------------------------------------------

 SCF Done:  E(RB3LYP) =  -2166.40940666     A.U. after    1 cycles

 Alpha  occ. eigenvalues --  -19.31221 -19.30491 -19.26242 -19.25086 -19.24240
 Alpha  occ. eigenvalues --  -19.24198 -19.23478 -19.22661 -19.21837 -19.17561
 Alpha  occ. eigenvalues --  -14.51487 -14.50582 -14.49419 -14.46752 -14.46436
 Alpha  occ. eigenvalues --  -14.44980 -14.41811 -14.36920 -10.47037 -10.44489
 Alpha  occ. eigenvalues --  -10.43075 -10.40449 -10.39756 -10.38139 -10.35704
 Alpha  occ. eigenvalues --  -10.34917 -10.34903 -10.34274 -10.33358 -10.33240
 Alpha  occ. eigenvalues --  -10.32298 -10.31110 -10.30916 -10.30565 -10.30217
 Alpha  occ. eigenvalues --  -10.28397 -10.25385 -10.24827 -10.24752 -10.24674
 Alpha  occ. eigenvalues --  -10.24602 -10.24569 -10.24428  -1.22514  -1.21534
 Alpha  occ. eigenvalues --   -1.15951  -1.15350  -1.14411  -1.13468  -1.13412
 Alpha  occ. eigenvalues --   -1.12688  -1.11532  -1.10352  -1.09460  -1.05195
 Alpha  occ. eigenvalues --   -1.03892  -1.03694  -1.03504  -1.01705  -0.98687
 Alpha  occ. eigenvalues --   -0.94437  -0.92180  -0.91103  -0.90657  -0.87210
 Alpha  occ. eigenvalues --   -0.86915  -0.83832  -0.82295  -0.81572  -0.80478
 Alpha  occ. eigenvalues --   -0.80042  -0.77489  -0.77001  -0.74707  -0.73565
 Alpha  occ. eigenvalues --   -0.73281  -0.72779  -0.72391  -0.70973  -0.70209
 Alpha  occ. eigenvalues --   -0.69465  -0.68788  -0.68300  -0.67284  -0.66245
 Alpha  occ. eigenvalues --   -0.64833  -0.64576  -0.64507  -0.63974  -0.63569
 Alpha  occ. eigenvalues --   -0.62932  -0.61795  -0.61189  -0.60653  -0.60518
 Alpha  occ. eigenvalues --   -0.60045  -0.59069  -0.58718  -0.58524  -0.58309
 Alpha  occ. eigenvalues --   -0.57792  -0.57627  -0.57309  -0.57085  -0.56699
 Alpha  occ. eigenvalues --   -0.56243  -0.55620  -0.55451  -0.53956  -0.53847
 Alpha  occ. eigenvalues --   -0.53729  -0.53280  -0.52651  -0.52606  -0.51920
 Alpha  occ. eigenvalues --   -0.51883  -0.51403  -0.51147  -0.50961  -0.50864
 Alpha  occ. eigenvalues --   -0.50336  -0.50169  -0.49484  -0.49350  -0.48916
 Alpha  occ. eigenvalues --   -0.48360  -0.48207  -0.47746  -0.47443  -0.47154
 Alpha  occ. eigenvalues --   -0.46642  -0.46148  -0.46004  -0.45772  -0.45304
 Alpha  occ. eigenvalues --   -0.44742  -0.43662  -0.43268  -0.42691  -0.42658
 Alpha  occ. eigenvalues --   -0.42330  -0.42099  -0.41279  -0.40441  -0.40162
 Alpha  occ. eigenvalues --   -0.39677  -0.39408  -0.39375  -0.39111  -0.38741
 Alpha  occ. eigenvalues --   -0.37841  -0.36684  -0.36666  -0.36485  -0.35990
 Alpha  occ. eigenvalues --   -0.35497  -0.34738  -0.32088  -0.30985  -0.30687
 Alpha  occ. eigenvalues --   -0.29918  -0.28867
 Alpha virt. eigenvalues --   -0.11756  -0.11275  -0.10305  -0.10064  -0.08728
 Alpha virt. eigenvalues --   -0.07740  -0.07194  -0.06205  -0.05911  -0.04044
 Alpha virt. eigenvalues --   -0.03424  -0.02483  -0.02271  -0.01690  -0.01370

 Mulliken charges:
               1
     1  N   -0.706695
     2  H    0.304919
     3  H    0.309478
     4  C   -0.041561
     5  H    0.114427
     6  C    0.589145
     7  C   -0.351092
     8  H    0.151664
     9  H    0.188816
    10  O   -0.515350
    11  C    0.151025
    12  C   -0.195924
    13  H    0.149201
    14  C   -0.189253
    15  H    0.127921
    16  C   -0.147855
    17  H    0.148279
    18  C   -0.112239
    19  H    0.132534
    20  C   -0.135937
    21  H    0.124888
    22  N   -0.610155
    23  H    0.355947
    24  C   -0.051113
    25  H    0.179260
    26  C    0.627638
    27  C   -0.056758
    28  H    0.156100
    29  H    0.190784
    30  O   -0.565004
    31  O   -0.620884
    32  H    0.414563
    33  N   -0.599343
    34  H    0.371533
    35  C   -0.083994
    36  H    0.216065
    37  C    0.658041
    38  C   -0.054785
    39  H    0.152096
    40  H    0.149845
    41  O   -0.605255
    42  O   -0.617512
    43  H    0.413557
    44  N   -0.601921
    45  H    0.403676
    46  C   -0.055387
    47  H    0.168359
    48  C    0.603696
    49  C   -0.390469
    50  H    0.223516
    51  H    0.217324
    52  O   -0.515053
    53  C    0.610503
    54  O   -0.497837
    55  O   -0.537343
    56  N   -0.629269
    57  H    0.374731
    58  C   -0.049244
    59  H    0.215807
    60  C    0.584033
    61  C   -0.282068
    62  H    0.195086
    63  H    0.118287
    64  O   -0.463451
    65  C   -0.283997
    66  H    0.205222
    67  H    0.174265
    68  C   -0.184759
    69  H    0.164337
    70  H    0.198041
    71  N   -0.591846
    72  H    0.409980
    73  N   -0.756685
    74  H    0.382932
    75  H    0.379069
    76  N   -0.769696
    77  H    0.401887
    78  H    0.374363
    79  C    0.775755
    80  O   -0.553977
    81  H    0.431306
    82  H    0.433809
 Sum of Mulliken charges =   1.00000

 Dipole moment (field-independent basis, Debye):
    X=             19.4033    Y=             -2.0189    Z=              7.8491  Tot=             21.0279
 Quadrupole moment (field-independent basis, Debye-Ang):
   XX=           -134.0317   YY=           -209.5098   ZZ=           -182.5661
   XY=              3.0680   XZ=             40.2370   YZ=            -17.1657

 Normal termination of Gaussian 16 at Sun May 15 23:40:57 2022.
