 Gaussian 16, Revision C.01,
 Gaussian 16:  ES64L-G16RevC.01  3-Jul-2019

 ----------------------------------------------------------------------
 # B3LYP/6-31G* empiricaldispersion=gd3 guess=read geom=check nosymm in
 tegral(ultrafinegrid)
 ----------------------------------------------------------------------

 ------------------------------------------------------
 Candidate Structure: Conf:879 Charge calc in gas phase
 ------------------------------------------------------
 Structure from the checkpoint file:  "conf-879.chk"
 Charge =  1 Multiplicity = 1

                          Input orientation:
 ---------------------------------------------------------------------
 Center     Atomic      Atomic             Coordinates (Angstroms)
 Number     Number       Type             X           Y           Z
 ---------------------------------------------------------------------
      1          7           0       -4.293607   -1.769236   -4.961392
      2          1           0       -3.905111   -2.502593   -4.371634
      3          1           0       -5.305220   -1.781905   -4.852140
      4          6           0       -3.768333   -0.481769   -4.549319
      5          1           0       -4.025124    0.256482   -5.321565
      6          6           0       -2.252870   -0.588537   -4.431317
      7          6           0       -4.286007    0.076542   -3.172849
      8          1           0       -3.925294   -0.577352   -2.371087
      9          1           0       -3.841454    1.067374   -3.002543
     10          8           0       -1.701508   -1.626354   -4.043962
     11          6           0       -5.790860    0.172194   -3.147513
     12          6           0       -6.448573    1.279635   -3.700690
     13          1           0       -5.862772    2.102830   -4.105627
     14          6           0       -6.562762   -0.876791   -2.628970
     15          1           0       -6.064175   -1.736874   -2.187935
     16          6           0       -7.841397    1.341101   -3.732573
     17          1           0       -8.334940    2.209418   -4.160540
     18          6           0       -7.957883   -0.819670   -2.660796
     19          1           0       -8.541034   -1.639689   -2.250735
     20          6           0       -8.600437    0.289156   -3.213373
     21          1           0       -9.685490    0.335949   -3.237252
     22          7           0       -1.550647    0.555723   -4.681702
     23          1           0       -2.091797    1.406856   -4.788428
     24          6           0       -0.153213    0.723995   -4.250957
     25          1           0        0.391619   -0.170969   -4.562315
     26          6           0       -0.139755    0.852649   -2.722504
     27          6           0        0.473766    1.934793   -4.940094
     28          1           0        1.475879    2.072418   -4.526715
     29          1           0       -0.108134    2.839603   -4.700569
     30          8           0       -0.175180    1.948125   -2.147069
     31          8           0        0.629086    1.735684   -6.330036
     32          1           0       -0.236782    1.506452   -6.704054
     33          7           0       -0.161286   -0.334618   -2.080226
     34          1           0       -0.222722   -1.157880   -2.670109
     35          6           0       -0.519455   -0.487882   -0.671051
     36          1           0       -1.259222    0.285054   -0.426673
     37          6           0        0.738520   -0.269240    0.181651
     38          6           0       -1.148469   -1.872425   -0.457175
     39          1           0       -1.394347   -1.985898    0.601549
     40          1           0       -0.410027   -2.649294   -0.701291
     41          8           0        1.286100   -1.178837    0.809422
     42          8           0       -2.352150   -2.023295   -1.187065
     43          1           0       -2.148365   -2.138026   -2.133994
     44          7           0        1.208263    1.007820    0.150030
     45          1           0        0.734855    1.630179   -0.512167
     46          6           0        2.614460    1.292874    0.443382
     47          1           0        3.203447    0.414133    0.152260
     48          6           0        2.799887    1.516450    1.956704
     49          6           0        3.079667    2.508872   -0.352202
     50          1           0        2.437574    3.374768   -0.158028
     51          1           0        4.081434    2.810530   -0.030157
     52          8           0        3.090575    2.637757    2.412107
     53          6           0        3.115959    2.244118   -1.845554
     54          8           0        2.883620    1.183031   -2.384261
     55          8           0        3.460616    3.362012   -2.514699
     56          7           0        2.606086    0.416910    2.702678
     57          1           0        2.315739   -0.439749    2.212998
     58          6           0        2.684861    0.391063    4.148754
     59          1           0        3.367800    1.180683    4.466296
     60          6           0        3.284321   -0.937922    4.591912
     61          6           0        1.295949    0.592238    4.811263
     62          1           0        1.344547    0.278376    5.861112
     63          1           0        0.598916   -0.089155    4.312058
     64          8           0        3.388807   -1.923480    3.906882
     65          6           0        0.788692    2.039982    4.702840
     66          1           0       -0.307362    2.050311    4.704443
     67          1           0        1.094352    2.474427    3.748287
     68          6           0        1.221978    2.948527    5.866005
     69          1           0        1.067271    4.000465    5.609095
     70          1           0        0.611274    2.732849    6.747619
     71          7           0        2.619383    2.807359    6.334548
     72          1           0        2.785385    2.182421    7.112660
     73          7           0        3.670414    4.042175    4.677948
     74          1           0        4.384774    4.716986    4.436578
     75          1           0        3.269526    3.510582    3.879588
     76          7           0        4.714020    3.706534    6.734543
     77          1           0        4.613067    3.611906    7.735433
     78          1           0        5.616117    3.995194    6.382942
     79          6           0        3.670193    3.519776    5.904135
     80          8           0        3.658312   -0.870207    5.895049
     81          1           0        3.993302   -1.754572    6.140193
     82          1           0        3.497741    3.135636   -3.463469
 ---------------------------------------------------------------------

 SCF Done:  E(RB3LYP) =  -2166.39895637     A.U. after    1 cycles

 Alpha  occ. eigenvalues --  -19.30513 -19.27869 -19.24742 -19.23885 -19.22528
 Alpha  occ. eigenvalues --  -19.21475 -19.21458 -19.21034 -19.21001 -19.20836
 Alpha  occ. eigenvalues --  -14.53102 -14.52746 -14.50870 -14.46447 -14.45492
 Alpha  occ. eigenvalues --  -14.44437 -14.44411 -14.36887 -10.48672 -10.42759
 Alpha  occ. eigenvalues --  -10.40852 -10.40214 -10.37812 -10.37455 -10.37453
 Alpha  occ. eigenvalues --  -10.36322 -10.35304 -10.33474 -10.31475 -10.31415
 Alpha  occ. eigenvalues --  -10.30930 -10.30925 -10.30750 -10.30696 -10.29608
 Alpha  occ. eigenvalues --  -10.29368 -10.25311 -10.25135 -10.24283 -10.24175
 Alpha  occ. eigenvalues --  -10.24153 -10.24100 -10.23968  -1.21202  -1.18909
 Alpha  occ. eigenvalues --   -1.17140  -1.15082  -1.13277  -1.12720  -1.12523
 Alpha  occ. eigenvalues --   -1.11875  -1.10017  -1.09065  -1.08487  -1.06533
 Alpha  occ. eigenvalues --   -1.04951  -1.03814  -1.01814  -1.01466  -1.00588
 Alpha  occ. eigenvalues --   -0.95051  -0.92365  -0.90578  -0.88991  -0.87444
 Alpha  occ. eigenvalues --   -0.85841  -0.83501  -0.82505  -0.82154  -0.79564
 Alpha  occ. eigenvalues --   -0.79029  -0.78387  -0.77619  -0.74408  -0.73559
 Alpha  occ. eigenvalues --   -0.73459  -0.72930  -0.71988  -0.70695  -0.70457
 Alpha  occ. eigenvalues --   -0.69144  -0.67978  -0.67408  -0.66720  -0.66421
 Alpha  occ. eigenvalues --   -0.66138  -0.65702  -0.65460  -0.63322  -0.63066
 Alpha  occ. eigenvalues --   -0.61880  -0.61493  -0.60582  -0.60469  -0.59566
 Alpha  occ. eigenvalues --   -0.59065  -0.58736  -0.58329  -0.57953  -0.57813
 Alpha  occ. eigenvalues --   -0.57452  -0.57165  -0.56655  -0.56392  -0.56110
 Alpha  occ. eigenvalues --   -0.55618  -0.55413  -0.54794  -0.54205  -0.53684
 Alpha  occ. eigenvalues --   -0.52422  -0.52318  -0.52044  -0.51589  -0.51499
 Alpha  occ. eigenvalues --   -0.51162  -0.51014  -0.50452  -0.50216  -0.49679
 Alpha  occ. eigenvalues --   -0.49541  -0.49094  -0.48324  -0.48062  -0.47885
 Alpha  occ. eigenvalues --   -0.47313  -0.47273  -0.47189  -0.47060  -0.46945
 Alpha  occ. eigenvalues --   -0.46656  -0.46315  -0.46174  -0.45888  -0.45636
 Alpha  occ. eigenvalues --   -0.45328  -0.44940  -0.43844  -0.42540  -0.42428
 Alpha  occ. eigenvalues --   -0.41294  -0.40820  -0.40556  -0.40112  -0.40079
 Alpha  occ. eigenvalues --   -0.39254  -0.39118  -0.38973  -0.38187  -0.37487
 Alpha  occ. eigenvalues --   -0.36735  -0.36454  -0.36075  -0.35035  -0.34847
 Alpha  occ. eigenvalues --   -0.34464  -0.34190  -0.32950  -0.32270  -0.30430
 Alpha  occ. eigenvalues --   -0.29992  -0.28697
 Alpha virt. eigenvalues --   -0.14036  -0.10160  -0.09207  -0.08810  -0.08497
 Alpha virt. eigenvalues --   -0.07681  -0.07469  -0.05707  -0.05368  -0.05237
 Alpha virt. eigenvalues --   -0.04861  -0.03788  -0.02418  -0.01665  -0.01283

 Mulliken charges:
               1
     1  N   -0.710478
     2  H    0.313211
     3  H    0.318021
     4  C   -0.065845
     5  H    0.149632
     6  C    0.652165
     7  C   -0.403621
     8  H    0.185700
     9  H    0.133397
    10  O   -0.557321
    11  C    0.173328
    12  C   -0.176743
    13  H    0.117369
    14  C   -0.198623
    15  H    0.137845
    16  C   -0.127134
    17  H    0.139838
    18  C   -0.127480
    19  H    0.141440
    20  C   -0.128546
    21  H    0.141990
    22  N   -0.609034
    23  H    0.342740
    24  C   -0.092346
    25  H    0.203902
    26  C    0.659556
    27  C   -0.041346
    28  H    0.158513
    29  H    0.142314
    30  O   -0.574141
    31  O   -0.605103
    32  H    0.400995
    33  N   -0.599095
    34  H    0.368911
    35  C   -0.086861
    36  H    0.186564
    37  C    0.644419
    38  C   -0.061367
    39  H    0.166668
    40  H    0.161401
    41  O   -0.539059
    42  O   -0.635595
    43  H    0.425691
    44  N   -0.628465
    45  H    0.390689
    46  C   -0.057880
    47  H    0.206008
    48  C    0.654597
    49  C   -0.390549
    50  H    0.204670
    51  H    0.203323
    52  O   -0.589798
    53  C    0.606496
    54  O   -0.466630
    55  O   -0.565681
    56  N   -0.602322
    57  H    0.408994
    58  C   -0.051215
    59  H    0.161371
    60  C    0.583705
    61  C   -0.275856
    62  H    0.156418
    63  H    0.185707
    64  O   -0.421851
    65  C   -0.295237
    66  H    0.178341
    67  H    0.184779
    68  C   -0.163144
    69  H    0.199197
    70  H    0.188468
    71  N   -0.588965
    72  H    0.366999
    73  N   -0.758791
    74  H    0.365897
    75  H    0.441551
    76  N   -0.751307
    77  H    0.381221
    78  H    0.381771
    79  C    0.758728
    80  O   -0.586122
    81  H    0.430353
    82  H    0.428655
 Sum of Mulliken charges =   1.00000

 Dipole moment (field-independent basis, Debye):
    X=             11.0391    Y=             14.7907    Z=             21.8003  Tot=             28.5636
 Quadrupole moment (field-independent basis, Debye-Ang):
   XX=           -152.3264   YY=           -204.6713   ZZ=            -68.9706
   XY=             48.5367   XZ=            106.5368   YZ=             55.8452

 Normal termination of Gaussian 16 at Sun May 15 23:40:56 2022.
