 Gaussian 16, Revision C.01,
 Gaussian 16:  ES64L-G16RevC.01  3-Jul-2019

 ----------------------------------------------------------------------
 # B3LYP/6-31G* empiricaldispersion=gd3 guess=read geom=check nosymm in
 tegral(ultrafinegrid)
 ----------------------------------------------------------------------

 ------------------------------------------------------
 Candidate Structure: Conf:876 Charge calc in gas phase
 ------------------------------------------------------
 Structure from the checkpoint file:  "conf-876.chk"
 Charge =  1 Multiplicity = 1

                          Input orientation:
 ---------------------------------------------------------------------
 Center     Atomic      Atomic             Coordinates (Angstroms)
 Number     Number       Type             X           Y           Z
 ---------------------------------------------------------------------
      1          7           0       -5.350354   -4.129703   -2.478042
      2          1           0       -5.012817   -5.053285   -2.209598
      3          1           0       -6.356657   -4.121103   -2.322494
      4          6           0       -4.701892   -3.110690   -1.649734
      5          1           0       -5.145358   -2.146687   -1.925752
      6          6           0       -3.222917   -3.111732   -2.053943
      7          6           0       -4.851842   -3.324727   -0.129877
      8          1           0       -5.924065   -3.268519    0.102846
      9          1           0       -4.545003   -4.355074    0.087751
     10          8           0       -2.450365   -3.977036   -1.603511
     11          6           0       -4.082350   -2.384653    0.784113
     12          6           0       -3.826696   -2.790454    2.104508
     13          1           0       -4.191689   -3.757500    2.442929
     14          6           0       -3.604009   -1.130939    0.374458
     15          1           0       -3.770768   -0.769090   -0.634698
     16          6           0       -3.111860   -1.978830    2.986898
     17          1           0       -2.933925   -2.314865    4.004773
     18          6           0       -2.884926   -0.315424    1.252896
     19          1           0       -2.534138    0.653328    0.913050
     20          6           0       -2.629826   -0.735523    2.560357
     21          1           0       -2.081603   -0.094281    3.245015
     22          7           0       -2.850876   -2.157120   -2.929508
     23          1           0       -3.513426   -1.418832   -3.135926
     24          6           0       -1.474612   -1.850299   -3.273889
     25          1           0       -0.844440   -2.666539   -2.931227
     26          6           0       -1.098779   -0.523394   -2.588457
     27          6           0       -1.289611   -1.718489   -4.789387
     28          1           0       -1.891402   -0.874930   -5.160026
     29          1           0       -1.644500   -2.640342   -5.272248
     30          8           0       -1.924892    0.383911   -2.532588
     31          8           0        0.102951   -1.507531   -4.980025
     32          1           0        0.266206   -1.331145   -5.918703
     33          7           0        0.155168   -0.457293   -2.074378
     34          1           0        0.801927   -1.201470   -2.304707
     35          6           0        0.746741    0.787958   -1.608243
     36          1           0        0.687328    1.556694   -2.388852
     37          6           0        2.194132    0.533340   -1.214535
     38          6           0       -0.006370    1.350592   -0.353123
     39          1           0       -0.007608    0.568094    0.420541
     40          1           0       -1.035124    1.530721   -0.666539
     41          8           0        2.630400   -0.596741   -0.934279
     42          8           0        0.534550    2.564658    0.097620
     43          1           0        1.269009    2.363433    0.714044
     44          7           0        2.946970    1.643992   -1.092524
     45          1           0        2.518219    2.541806   -1.292943
     46          6           0        4.152528    1.644233   -0.281174
     47          1           0        4.859287    0.917187   -0.693975
     48          6           0        3.773253    1.265681    1.172113
     49          6           0        4.782869    3.054231   -0.250221
     50          1           0        4.114478    3.723422    0.302143
     51          1           0        5.742720    3.007986    0.268069
     52          8           0        2.709538    1.656135    1.663303
     53          6           0        4.945376    3.631071   -1.644138
     54          8           0        4.015375    4.003200   -2.327559
     55          8           0        6.230509    3.662314   -2.039364
     56          7           0        4.678103    0.537409    1.849706
     57          1           0        5.488133    0.154092    1.371742
     58          6           0        4.464745    0.021630    3.199724
     59          1           0        4.484265    0.846760    3.921022
     60          6           0        5.648813   -0.893782    3.494443
     61          6           0        3.116067   -0.731492    3.369707
     62          1           0        2.332061    0.027107    3.337109
     63          1           0        3.105925   -1.177936    4.368246
     64          8           0        6.477653   -1.223544    2.672687
     65          6           0        2.884681   -1.780490    2.271394
     66          1           0        3.328420   -2.745450    2.540657
     67          1           0        3.388232   -1.449910    1.357620
     68          6           0        1.402398   -1.968850    1.920400
     69          1           0        0.894794   -2.616583    2.642483
     70          1           0        0.891941   -0.995378    1.921799
     71          7           0        1.314768   -2.580266    0.591621
     72          1           0        1.912783   -2.128219   -0.106256
     73          7           0       -0.919692   -3.254076    0.775262
     74          1           0       -1.714312   -3.692319    0.316082
     75          1           0       -1.150294   -2.543587    1.460619
     76          7           0        0.318382   -3.791716   -1.101618
     77          1           0        1.216834   -4.100391   -1.443247
     78          1           0       -0.541448   -4.151815   -1.519083
     79          6           0        0.230991   -3.192915    0.101134
     80          8           0        5.644103   -1.303072    4.771634
     81          1           0        6.416946   -1.886506    4.898580
     82          1           0        6.250196    4.043764   -2.938785
 ---------------------------------------------------------------------

 SCF Done:  E(RB3LYP) =  -2166.43507314     A.U. after    1 cycles

 Alpha  occ. eigenvalues --  -19.30300 -19.28928 -19.24984 -19.24783 -19.23968
 Alpha  occ. eigenvalues --  -19.23698 -19.23490 -19.23206 -19.22032 -19.21787
 Alpha  occ. eigenvalues --  -14.48410 -14.48309 -14.48227 -14.47501 -14.47482
 Alpha  occ. eigenvalues --  -14.46843 -14.46450 -14.41005 -10.44949 -10.42937
 Alpha  occ. eigenvalues --  -10.41674 -10.40361 -10.40295 -10.40201 -10.38915
 Alpha  occ. eigenvalues --  -10.35464 -10.34923 -10.33942 -10.33685 -10.33634
 Alpha  occ. eigenvalues --  -10.33312 -10.32501 -10.32262 -10.30942 -10.29631
 Alpha  occ. eigenvalues --  -10.29280 -10.29243 -10.28720 -10.28577 -10.28554
 Alpha  occ. eigenvalues --  -10.28477 -10.28399 -10.28380  -1.21438  -1.19809
 Alpha  occ. eigenvalues --   -1.15929  -1.15141  -1.14738  -1.13755  -1.13532
 Alpha  occ. eigenvalues --   -1.12628  -1.11934  -1.10893  -1.09897  -1.04046
 Alpha  occ. eigenvalues --   -1.03970  -1.03913  -1.03065  -1.02708  -1.01639
 Alpha  occ. eigenvalues --   -0.98545  -0.95077  -0.91511  -0.89940  -0.88064
 Alpha  occ. eigenvalues --   -0.87207  -0.86366  -0.84635  -0.83930  -0.80842
 Alpha  occ. eigenvalues --   -0.80220  -0.78949  -0.76124  -0.75172  -0.74993
 Alpha  occ. eigenvalues --   -0.73769  -0.72837  -0.72102  -0.70708  -0.70379
 Alpha  occ. eigenvalues --   -0.70043  -0.69507  -0.69404  -0.67841  -0.67687
 Alpha  occ. eigenvalues --   -0.67377  -0.67224  -0.65077  -0.63872  -0.63328
 Alpha  occ. eigenvalues --   -0.62673  -0.61918  -0.61815  -0.61693  -0.60761
 Alpha  occ. eigenvalues --   -0.60716  -0.60014  -0.59678  -0.58849  -0.58678
 Alpha  occ. eigenvalues --   -0.58299  -0.57790  -0.57072  -0.56846  -0.56727
 Alpha  occ. eigenvalues --   -0.56307  -0.55551  -0.55001  -0.54975  -0.54923
 Alpha  occ. eigenvalues --   -0.54771  -0.54507  -0.53728  -0.53556  -0.53231
 Alpha  occ. eigenvalues --   -0.52912  -0.52438  -0.52161  -0.51999  -0.51596
 Alpha  occ. eigenvalues --   -0.51210  -0.51050  -0.50849  -0.50486  -0.49690
 Alpha  occ. eigenvalues --   -0.49219  -0.49162  -0.48894  -0.48604  -0.48368
 Alpha  occ. eigenvalues --   -0.47766  -0.47613  -0.47253  -0.46443  -0.46187
 Alpha  occ. eigenvalues --   -0.45956  -0.45348  -0.44966  -0.44601  -0.43986
 Alpha  occ. eigenvalues --   -0.43741  -0.43137  -0.42478  -0.41570  -0.41037
 Alpha  occ. eigenvalues --   -0.40360  -0.38844  -0.38560  -0.38358  -0.38006
 Alpha  occ. eigenvalues --   -0.37720  -0.37610  -0.37508  -0.37376  -0.37019
 Alpha  occ. eigenvalues --   -0.36666  -0.35662  -0.34979  -0.34713  -0.34349
 Alpha  occ. eigenvalues --   -0.34006  -0.32903
 Alpha virt. eigenvalues --   -0.10913  -0.10618  -0.10392  -0.09993  -0.09707
 Alpha virt. eigenvalues --   -0.09480  -0.09005  -0.07993  -0.07468  -0.03691
 Alpha virt. eigenvalues --   -0.02738  -0.02416  -0.01998  -0.01542  -0.01110

 Mulliken charges:
               1
     1  N   -0.710621
     2  H    0.317420
     3  H    0.321196
     4  C   -0.082212
     5  H    0.154372
     6  C    0.662004
     7  C   -0.353705
     8  H    0.175595
     9  H    0.160702
    10  O   -0.585346
    11  C    0.141547
    12  C   -0.192039
    13  H    0.147521
    14  C   -0.192257
    15  H    0.146791
    16  C   -0.148870
    17  H    0.154495
    18  C   -0.143462
    19  H    0.166614
    20  C   -0.166201
    21  H    0.152090
    22  N   -0.571139
    23  H    0.360248
    24  C   -0.096499
    25  H    0.170091
    26  C    0.657393
    27  C   -0.033495
    28  H    0.156553
    29  H    0.161078
    30  O   -0.534989
    31  O   -0.631526
    32  H    0.416816
    33  N   -0.628435
    34  H    0.349751
    35  C   -0.039370
    36  H    0.196828
    37  C    0.606912
    38  C   -0.063005
    39  H    0.125827
    40  H    0.205341
    41  O   -0.578797
    42  O   -0.643118
    43  H    0.438710
    44  N   -0.591975
    45  H    0.377211
    46  C   -0.048727
    47  H    0.189864
    48  C    0.651757
    49  C   -0.386101
    50  H    0.212177
    51  H    0.200486
    52  O   -0.554641
    53  C    0.591629
    54  O   -0.449111
    55  O   -0.550704
    56  N   -0.624927
    57  H    0.368988
    58  C   -0.021167
    59  H    0.209141
    60  C    0.586441
    61  C   -0.302855
    62  H    0.192847
    63  H    0.182015
    64  O   -0.459832
    65  C   -0.307572
    66  H    0.169180
    67  H    0.173781
    68  C   -0.159107
    69  H    0.179662
    70  H    0.179076
    71  N   -0.626284
    72  H    0.395296
    73  N   -0.778674
    74  H    0.401496
    75  H    0.383527
    76  N   -0.793375
    77  H    0.369869
    78  H    0.409996
    79  C    0.777256
    80  O   -0.557529
    81  H    0.433517
    82  H    0.426564
 Sum of Mulliken charges =   1.00000

 Dipole moment (field-independent basis, Debye):
    X=              4.7900    Y=             -9.4641    Z=             -0.1898  Tot=             10.6090
 Quadrupole moment (field-independent basis, Debye-Ang):
   XX=           -158.0520   YY=           -211.3411   ZZ=           -186.6980
   XY=             33.5491   XZ=             18.0426   YZ=             -4.0814

 Normal termination of Gaussian 16 at Sun May 15 23:40:57 2022.
