 Gaussian 16, Revision C.01,
 Gaussian 16:  ES64L-G16RevC.01  3-Jul-2019

 ----------------------------------------------------------------------
 # B3LYP/6-31G* empiricaldispersion=gd3 guess=read geom=check nosymm in
 tegral(ultrafinegrid)
 ----------------------------------------------------------------------

 ------------------------------------------------------
 Candidate Structure: Conf:797 Charge calc in gas phase
 ------------------------------------------------------
 Structure from the checkpoint file:  "conf-797.chk"
 Charge =  1 Multiplicity = 1

                          Input orientation:
 ---------------------------------------------------------------------
 Center     Atomic      Atomic             Coordinates (Angstroms)
 Number     Number       Type             X           Y           Z
 ---------------------------------------------------------------------
      1          7           0       -2.525326   -2.524295   -2.919368
      2          1           0       -1.518680   -2.675044   -2.955588
      3          1           0       -2.924371   -3.128840   -2.205680
      4          6           0       -2.793373   -1.129849   -2.640266
      5          1           0       -3.856289   -0.924052   -2.822828
      6          6           0       -1.900297   -0.261388   -3.531619
      7          6           0       -2.433385   -0.635706   -1.195150
      8          1           0       -1.353942   -0.787180   -1.081607
      9          1           0       -2.619715    0.445313   -1.148984
     10          8           0       -0.696313   -0.504083   -3.615140
     11          6           0       -3.164999   -1.326672   -0.077129
     12          6           0       -4.399712   -0.844749    0.388565
     13          1           0       -4.852261    0.018334   -0.097186
     14          6           0       -2.616121   -2.461553    0.544232
     15          1           0       -1.665828   -2.852691    0.187682
     16          6           0       -5.055526   -1.461860    1.457004
     17          1           0       -6.007284   -1.070766    1.804725
     18          6           0       -3.272469   -3.083804    1.611573
     19          1           0       -2.834364   -3.962728    2.076688
     20          6           0       -4.490366   -2.580038    2.075479
     21          1           0       -4.998501   -3.059041    2.906826
     22          7           0       -2.464073    0.868470   -4.033249
     23          1           0       -3.464216    0.910791   -4.180826
     24          6           0       -1.653565    1.905608   -4.676108
     25          1           0       -0.939973    1.428889   -5.355634
     26          6           0       -0.929929    2.642826   -3.530023
     27          6           0       -2.558568    2.865985   -5.444739
     28          1           0       -1.924541    3.549551   -6.027755
     29          1           0       -3.133520    3.467103   -4.727191
     30          8           0       -1.498310    3.550963   -2.904579
     31          8           0       -3.398550    2.068969   -6.268256
     32          1           0       -3.982747    2.658082   -6.769109
     33          7           0        0.291495    2.168657   -3.213528
     34          1           0        0.568692    1.264195   -3.597950
     35          6           0        0.951359    2.523935   -1.965804
     36          1           0        1.193694    3.593319   -1.949935
     37          6           0        2.220105    1.662118   -1.845674
     38          6           0        0.088350    2.185368   -0.722153
     39          1           0        0.744253    2.013117    0.129063
     40          1           0       -0.429487    1.242935   -0.941551
     41          8           0        2.353033    0.634596   -2.490988
     42          8           0       -0.821356    3.208594   -0.326712
     43          1           0       -1.214540    3.558551   -1.164316
     44          7           0        3.123683    2.086823   -0.899448
     45          1           0        2.831068    2.850605   -0.300614
     46          6           0        3.986205    1.110953   -0.250655
     47          1           0        4.015402    0.235030   -0.903000
     48          6           0        3.350040    0.710221    1.103772
     49          6           0        5.421835    1.645773   -0.085036
     50          1           0        5.689828    2.215757   -0.981416
     51          1           0        5.512049    2.339689    0.759458
     52          8           0        2.482419    1.431145    1.625578
     53          6           0        6.441136    0.534933    0.078387
     54          8           0        6.180143   -0.653713    0.104837
     55          8           0        7.685468    1.019561    0.169615
     56          7           0        3.784552   -0.436711    1.646958
     57          1           0        4.579300   -0.904287    1.206371
     58          6           0        3.351342   -0.906351    2.953809
     59          1           0        2.939144   -0.051791    3.499283
     60          6           0        4.578314   -1.393935    3.722176
     61          6           0        2.285258   -2.024300    2.841921
     62          1           0        2.103968   -2.437807    3.840384
     63          1           0        2.708941   -2.832478    2.234902
     64          8           0        5.690868   -1.483148    3.259747
     65          6           0        0.966789   -1.546763    2.213030
     66          1           0        0.412306   -2.412033    1.830014
     67          1           0        1.169800   -0.902430    1.350644
     68          6           0        0.066420   -0.795783    3.208792
     69          1           0       -0.320069   -1.484568    3.966810
     70          1           0        0.613128   -0.017527    3.746570
     71          7           0       -1.083409   -0.173850    2.546947
     72          1           0       -1.780309   -0.806946    2.164106
     73          7           0       -0.160200    1.970097    2.434554
     74          1           0       -0.291935    2.914257    2.088055
     75          1           0        0.810996    1.650912    2.417521
     76          7           0       -2.258264    1.574170    1.554126
     77          1           0       -3.029693    0.939116    1.384772
     78          1           0       -2.102184    2.325850    0.873425
     79          6           0       -1.155007    1.106644    2.162831
     80          8           0        4.247719   -1.722732    4.986405
     81          1           0        5.059315   -2.038431    5.428638
     82          1           0        8.292033    0.260219    0.270965
 ---------------------------------------------------------------------

 SCF Done:  E(RB3LYP) =  -2166.42770125     A.U. after    1 cycles

 Alpha  occ. eigenvalues --  -19.29981 -19.29398 -19.25181 -19.24443 -19.24431
 Alpha  occ. eigenvalues --  -19.24349 -19.23290 -19.22763 -19.22230 -19.20853
 Alpha  occ. eigenvalues --  -14.50385 -14.48391 -14.48354 -14.47364 -14.46583
 Alpha  occ. eigenvalues --  -14.45484 -14.45433 -14.39493 -10.45688 -10.42598
 Alpha  occ. eigenvalues --  -10.42570 -10.40962 -10.39760 -10.38925 -10.37675
 Alpha  occ. eigenvalues --  -10.35183 -10.35173 -10.34597 -10.34045 -10.33878
 Alpha  occ. eigenvalues --  -10.32549 -10.32205 -10.31747 -10.31060 -10.30916
 Alpha  occ. eigenvalues --  -10.30709 -10.30605 -10.30142 -10.30028 -10.29985
 Alpha  occ. eigenvalues --  -10.29928 -10.29610 -10.29257  -1.20959  -1.20672
 Alpha  occ. eigenvalues --   -1.16003  -1.14919  -1.14444  -1.14021  -1.12739
 Alpha  occ. eigenvalues --   -1.12205  -1.11740  -1.11661  -1.10608  -1.04462
 Alpha  occ. eigenvalues --   -1.04101  -1.03423  -1.02433  -1.01791  -1.01410
 Alpha  occ. eigenvalues --   -0.97831  -0.96101  -0.92250  -0.90094  -0.88214
 Alpha  occ. eigenvalues --   -0.87180  -0.86651  -0.85418  -0.84796  -0.81447
 Alpha  occ. eigenvalues --   -0.81120  -0.79360  -0.76491  -0.75976  -0.74912
 Alpha  occ. eigenvalues --   -0.73468  -0.72399  -0.71754  -0.71611  -0.71154
 Alpha  occ. eigenvalues --   -0.69958  -0.69484  -0.69124  -0.68660  -0.67719
 Alpha  occ. eigenvalues --   -0.67435  -0.67289  -0.65236  -0.63403  -0.62800
 Alpha  occ. eigenvalues --   -0.62464  -0.62200  -0.61603  -0.60980  -0.60904
 Alpha  occ. eigenvalues --   -0.60210  -0.59922  -0.59751  -0.59325  -0.58747
 Alpha  occ. eigenvalues --   -0.58294  -0.57951  -0.57695  -0.57348  -0.57256
 Alpha  occ. eigenvalues --   -0.56558  -0.56446  -0.56140  -0.55588  -0.55489
 Alpha  occ. eigenvalues --   -0.54968  -0.54356  -0.53995  -0.53458  -0.53121
 Alpha  occ. eigenvalues --   -0.52936  -0.52763  -0.52399  -0.52075  -0.51937
 Alpha  occ. eigenvalues --   -0.51605  -0.50862  -0.50646  -0.50404  -0.50187
 Alpha  occ. eigenvalues --   -0.49830  -0.49045  -0.48555  -0.48316  -0.48170
 Alpha  occ. eigenvalues --   -0.47853  -0.47686  -0.47117  -0.46900  -0.46637
 Alpha  occ. eigenvalues --   -0.46515  -0.46369  -0.45665  -0.45622  -0.45292
 Alpha  occ. eigenvalues --   -0.44390  -0.44159  -0.42376  -0.42103  -0.41845
 Alpha  occ. eigenvalues --   -0.40489  -0.39347  -0.38837  -0.38515  -0.38158
 Alpha  occ. eigenvalues --   -0.37940  -0.37425  -0.37254  -0.36811  -0.36419
 Alpha  occ. eigenvalues --   -0.36167  -0.35834  -0.35722  -0.35593  -0.34629
 Alpha  occ. eigenvalues --   -0.33701  -0.31347
 Alpha virt. eigenvalues --   -0.11912  -0.11592  -0.10872  -0.09936  -0.09571
 Alpha virt. eigenvalues --   -0.09294  -0.08989  -0.08442  -0.06674  -0.04250
 Alpha virt. eigenvalues --   -0.02583  -0.02221  -0.01680  -0.01480  -0.00971

 Mulliken charges:
               1
     1  N   -0.708247
     2  H    0.322393
     3  H    0.308791
     4  C   -0.044216
     5  H    0.145919
     6  C    0.635368
     7  C   -0.380499
     8  H    0.167087
     9  H    0.140851
    10  O   -0.535653
    11  C    0.155705
    12  C   -0.224443
    13  H    0.149091
    14  C   -0.236649
    15  H    0.148261
    16  C   -0.123547
    17  H    0.165521
    18  C   -0.137881
    19  H    0.158530
    20  C   -0.129059
    21  H    0.164546
    22  N   -0.603334
    23  H    0.355752
    24  C   -0.048762
    25  H    0.195826
    26  C    0.632115
    27  C   -0.067770
    28  H    0.158383
    29  H    0.164414
    30  O   -0.572264
    31  O   -0.622657
    32  H    0.413951
    33  N   -0.607200
    34  H    0.400999
    35  C   -0.069956
    36  H    0.192808
    37  C    0.581686
    38  C   -0.076299
    39  H    0.162700
    40  H    0.152332
    41  O   -0.482150
    42  O   -0.681144
    43  H    0.450856
    44  N   -0.586760
    45  H    0.341481
    46  C   -0.087787
    47  H    0.229390
    48  C    0.614326
    49  C   -0.376328
    50  H    0.224527
    51  H    0.201139
    52  O   -0.573161
    53  C    0.612878
    54  O   -0.471178
    55  O   -0.547093
    56  N   -0.595398
    57  H    0.406897
    58  C   -0.065883
    59  H    0.194301
    60  C    0.586985
    61  C   -0.277321
    62  H    0.180563
    63  H    0.173156
    64  O   -0.441623
    65  C   -0.275841
    66  H    0.158824
    67  H    0.162563
    68  C   -0.174415
    69  H    0.190111
    70  H    0.187670
    71  N   -0.603163
    72  H    0.371981
    73  N   -0.763903
    74  H    0.379760
    75  H    0.411361
    76  N   -0.775889
    77  H    0.366363
    78  H    0.396133
    79  C    0.750607
    80  O   -0.562633
    81  H    0.432331
    82  H    0.432872
 Sum of Mulliken charges =   1.00000

 Dipole moment (field-independent basis, Debye):
    X=             -0.0571    Y=              2.4213    Z=              6.2337  Tot=              6.6876
 Quadrupole moment (field-independent basis, Debye-Ang):
   XX=           -161.2243   YY=           -222.7489   ZZ=           -200.6211
   XY=              1.4152   XZ=             24.8086   YZ=            -38.8616

 Normal termination of Gaussian 16 at Sun May 15 23:40:56 2022.
