 Gaussian 16, Revision C.01,
 Gaussian 16:  ES64L-G16RevC.01  3-Jul-2019

 ----------------------------------------------------------------------
 # B3LYP/6-31G* empiricaldispersion=gd3 guess=read geom=check nosymm in
 tegral(ultrafinegrid)
 ----------------------------------------------------------------------

 ------------------------------------------------------
 Candidate Structure: Conf:549 Charge calc in gas phase
 ------------------------------------------------------
 Structure from the checkpoint file:  "conf-549.chk"
 Charge =  1 Multiplicity = 1

                          Input orientation:
 ---------------------------------------------------------------------
 Center     Atomic      Atomic             Coordinates (Angstroms)
 Number     Number       Type             X           Y           Z
 ---------------------------------------------------------------------
      1          7           0       -3.141700    1.075017   -5.413922
      2          1           0       -3.527568    1.918587   -5.836101
      3          1           0       -2.467040    1.377206   -4.713710
      4          6           0       -4.233029    0.317351   -4.779200
      5          1           0       -4.757458    0.892735   -3.990939
      6          6           0       -3.616905   -0.929922   -4.122316
      7          6           0       -5.269516   -0.099483   -5.836345
      8          1           0       -4.755243   -0.714538   -6.579860
      9          1           0       -6.013042   -0.741094   -5.351184
     10          8           0       -3.729562   -2.062746   -4.574589
     11          6           0       -5.938282    1.094347   -6.479100
     12          6           0       -7.043961    1.707895   -5.872827
     13          1           0       -7.445407    1.289384   -4.952001
     14          6           0       -5.441524    1.644212   -7.669765
     15          1           0       -4.585646    1.176747   -8.150461
     16          6           0       -7.638079    2.836548   -6.437892
     17          1           0       -8.499077    3.292910   -5.956129
     18          6           0       -6.032169    2.775008   -8.238189
     19          1           0       -5.635553    3.182865   -9.164452
     20          6           0       -7.132741    3.374844   -7.623882
     21          1           0       -7.597238    4.251203   -8.067967
     22          7           0       -2.900947   -0.666365   -2.989207
     23          1           0       -2.889878    0.252478   -2.562210
     24          6           0       -2.235924   -1.711226   -2.243409
     25          1           0       -2.880133   -2.596230   -2.192163
     26          6           0       -1.925141   -1.185932   -0.850836
     27          6           0       -0.908435   -2.138891   -2.945042
     28          1           0       -0.289645   -1.241440   -3.083753
     29          1           0       -1.186253   -2.529524   -3.927021
     30          8           0       -1.917710    0.014740   -0.579556
     31          8           0       -0.217453   -3.153429   -2.238681
     32          1           0        0.374609   -2.704425   -1.602536
     33          7           0       -1.589025   -2.149230    0.062782
     34          1           0       -1.320025   -3.048652   -0.331595
     35          6           0       -0.817199   -1.735693    1.214197
     36          1           0       -1.366160   -0.944217    1.735053
     37          6           0        0.541526   -1.160726    0.752887
     38          6           0       -0.627128   -2.917918    2.164342
     39          1           0       -1.619170   -3.262370    2.489361
     40          1           0       -0.066474   -2.586607    3.052739
     41          8           0        1.042452   -1.420950   -0.342330
     42          8           0        0.074756   -3.921102    1.444378
     43          1           0       -0.009481   -4.763666    1.914324
     44          7           0        1.157539   -0.338393    1.633824
     45          1           0        0.712862   -0.038879    2.494130
     46          6           0        2.387576    0.342642    1.285263
     47          1           0        3.085709   -0.381648    0.854741
     48          6           0        2.956058    0.947044    2.573147
     49          6           0        2.116654    1.453074    0.234458
     50          1           0        1.394775    1.069129   -0.492084
     51          1           0        1.664417    2.333662    0.704981
     52          8           0        2.255406    1.149776    3.559610
     53          6           0        3.338385    1.903968   -0.529248
     54          8           0        4.499483    1.617936   -0.276546
     55          8           0        3.004230    2.676230   -1.571895
     56          7           0        4.281678    1.277559    2.517727
     57          1           0        4.669810    1.316725    1.572159
     58          6           0        4.775988    2.251653    3.465898
     59          1           0        4.462816    1.948559    4.469570
     60          6           0        4.131896    3.619348    3.182973
     61          6           0        6.314867    2.305334    3.383805
     62          1           0        6.609672    2.717533    2.409172
     63          1           0        6.664382    1.265414    3.402168
     64          8           0        3.577860    3.924186    2.154167
     65          6           0        6.983475    3.097887    4.514195
     66          1           0        6.635041    2.717386    5.485121
     67          1           0        6.681849    4.148964    4.480257
     68          6           0        8.510736    2.998577    4.421068
     69          1           0        8.856335    1.960389    4.475624
     70          1           0        8.864131    3.392005    3.463800
     71          7           0        9.212049    3.765124    5.469360
     72          1           0        9.381821    4.746406    5.286578
     73          7           0        9.048836    2.143815    7.130854
     74          1           0        9.455178    1.685635    7.934700
     75          1           0        8.264074    1.690450    6.685890
     76          7           0       10.334768    4.035372    7.479526
     77          1           0       10.910291    4.778671    7.108476
     78          1           0       10.400812    3.851254    8.471029
     79          6           0        9.521990    3.316656    6.686974
     80          8           0        4.274404    4.464526    4.232493
     81          1           0        3.819164    5.294605    3.990361
     82          1           0        3.830875    2.933190   -2.023257
 ---------------------------------------------------------------------

 SCF Done:  E(RB3LYP) =  -2166.36398110     A.U. after    1 cycles

 Alpha  occ. eigenvalues --  -19.30103 -19.27587 -19.24240 -19.22714 -19.21433
 Alpha  occ. eigenvalues --  -19.20894 -19.18901 -19.16929 -19.16839 -19.13690
 Alpha  occ. eigenvalues --  -14.56148 -14.56074 -14.55882 -14.44127 -14.43213
 Alpha  occ. eigenvalues --  -14.40243 -14.38630 -14.34361 -10.52458 -10.42085
 Alpha  occ. eigenvalues --  -10.40761 -10.39217 -10.37534 -10.35674 -10.34398
 Alpha  occ. eigenvalues --  -10.33395 -10.33339 -10.32120 -10.31703 -10.30809
 Alpha  occ. eigenvalues --  -10.30675 -10.29543 -10.27788 -10.26315 -10.26094
 Alpha  occ. eigenvalues --  -10.24869 -10.21659 -10.21196 -10.21150 -10.21030
 Alpha  occ. eigenvalues --  -10.20964 -10.20808 -10.20408  -1.20778  -1.20769
 Alpha  occ. eigenvalues --   -1.18906  -1.13003  -1.11787  -1.10944  -1.09991
 Alpha  occ. eigenvalues --   -1.09809  -1.08899  -1.08817  -1.08466  -1.05650
 Alpha  occ. eigenvalues --   -1.04259  -1.01998  -0.99879  -0.97434  -0.95120
 Alpha  occ. eigenvalues --   -0.94496  -0.91484  -0.88947  -0.87342  -0.86634
 Alpha  occ. eigenvalues --   -0.83771  -0.82856  -0.80773  -0.79671  -0.78604
 Alpha  occ. eigenvalues --   -0.78282  -0.77348  -0.76402  -0.75770  -0.74327
 Alpha  occ. eigenvalues --   -0.73722  -0.71353  -0.70192  -0.69642  -0.69135
 Alpha  occ. eigenvalues --   -0.68695  -0.68127  -0.67177  -0.65632  -0.65197
 Alpha  occ. eigenvalues --   -0.64108  -0.63140  -0.62778  -0.62512  -0.61816
 Alpha  occ. eigenvalues --   -0.61515  -0.60928  -0.59924  -0.59591  -0.59302
 Alpha  occ. eigenvalues --   -0.58469  -0.57626  -0.57409  -0.56775  -0.56271
 Alpha  occ. eigenvalues --   -0.55531  -0.55109  -0.54835  -0.53909  -0.53535
 Alpha  occ. eigenvalues --   -0.53327  -0.53066  -0.52869  -0.52200  -0.51690
 Alpha  occ. eigenvalues --   -0.51475  -0.51107  -0.50571  -0.50231  -0.49794
 Alpha  occ. eigenvalues --   -0.49294  -0.48806  -0.48394  -0.48017  -0.47694
 Alpha  occ. eigenvalues --   -0.47399  -0.47356  -0.47249  -0.46858  -0.46768
 Alpha  occ. eigenvalues --   -0.46241  -0.46164  -0.45741  -0.45033  -0.44852
 Alpha  occ. eigenvalues --   -0.44208  -0.43975  -0.43647  -0.43007  -0.42802
 Alpha  occ. eigenvalues --   -0.41937  -0.41189  -0.40905  -0.40519  -0.40412
 Alpha  occ. eigenvalues --   -0.40140  -0.39088  -0.38415  -0.37952  -0.37198
 Alpha  occ. eigenvalues --   -0.36610  -0.36085  -0.35745  -0.35621  -0.35522
 Alpha  occ. eigenvalues --   -0.34515  -0.34128  -0.33080  -0.32577  -0.31868
 Alpha  occ. eigenvalues --   -0.30964  -0.29845  -0.28563  -0.27214  -0.27093
 Alpha  occ. eigenvalues --   -0.26167  -0.25833
 Alpha virt. eigenvalues --   -0.16384  -0.12069  -0.09889  -0.08347  -0.07650
 Alpha virt. eigenvalues --   -0.07378  -0.06680  -0.06546  -0.04852  -0.03230
 Alpha virt. eigenvalues --   -0.02811  -0.02403  -0.02359  -0.02188  -0.01233

 Mulliken charges:
               1
     1  N   -0.722177
     2  H    0.311981
     3  H    0.291850
     4  C   -0.074510
     5  H    0.118480
     6  C    0.648890
     7  C   -0.333329
     8  H    0.176672
     9  H    0.153673
    10  O   -0.523369
    11  C    0.142958
    12  C   -0.179619
    13  H    0.122683
    14  C   -0.190359
    15  H    0.141677
    16  C   -0.129112
    17  H    0.129308
    18  C   -0.129688
    19  H    0.130668
    20  C   -0.131577
    21  H    0.129513
    22  N   -0.639027
    23  H    0.340411
    24  C   -0.045773
    25  H    0.184868
    26  C    0.596092
    27  C   -0.044706
    28  H    0.131961
    29  H    0.189238
    30  O   -0.550169
    31  O   -0.649932
    32  H    0.434298
    33  N   -0.598080
    34  H    0.360357
    35  C   -0.081987
    36  H    0.183105
    37  C    0.673497
    38  C   -0.046033
    39  H    0.158429
    40  H    0.135119
    41  O   -0.553255
    42  O   -0.613125
    43  H    0.410563
    44  N   -0.626095
    45  H    0.354924
    46  C   -0.039723
    47  H    0.200544
    48  C    0.607719
    49  C   -0.379835
    50  H    0.238572
    51  H    0.214689
    52  O   -0.527896
    53  C    0.622779
    54  O   -0.503711
    55  O   -0.543261
    56  N   -0.626812
    57  H    0.383563
    58  C   -0.038752
    59  H    0.197330
    60  C    0.599254
    61  C   -0.303427
    62  H    0.175522
    63  H    0.173788
    64  O   -0.450118
    65  C   -0.279601
    66  H    0.144351
    67  H    0.185901
    68  C   -0.183889
    69  H    0.190072
    70  H    0.207252
    71  N   -0.588501
    72  H    0.373295
    73  N   -0.752478
    74  H    0.392124
    75  H    0.396658
    76  N   -0.757995
    77  H    0.391238
    78  H    0.391586
    79  C    0.828949
    80  O   -0.574613
    81  H    0.425010
    82  H    0.421124
 Sum of Mulliken charges =   1.00000

 Dipole moment (field-independent basis, Debye):
    X=             45.8451    Y=             19.3832    Z=             35.7679  Tot=             61.2929
 Quadrupole moment (field-independent basis, Debye-Ang):
   XX=            178.1119   YY=           -166.9330   ZZ=            -45.8284
   XY=            154.0344   XZ=            280.9062   YZ=             68.2287

 Normal termination of Gaussian 16 at Sun May 15 23:40:44 2022.
