 Gaussian 16, Revision C.01,
 Gaussian 16:  ES64L-G16RevC.01  3-Jul-2019

 ----------------------------------------------------------------------
 # B3LYP/6-31G* empiricaldispersion=gd3 guess=read geom=check nosymm in
 tegral(ultrafinegrid)
 ----------------------------------------------------------------------

 ------------------------------------------------------
 Candidate Structure: Conf:962 Charge calc in gas phase
 ------------------------------------------------------
 Structure from the checkpoint file:  "conf-962.chk"
 Charge =  1 Multiplicity = 1

                          Input orientation:
 ---------------------------------------------------------------------
 Center     Atomic      Atomic             Coordinates (Angstroms)
 Number     Number       Type             X           Y           Z
 ---------------------------------------------------------------------
      1          7           0       -0.467474   -4.981107    0.773338
      2          1           0        0.443604   -5.249938    0.402492
      3          1           0       -0.288294   -4.134209    1.310988
      4          6           0       -1.319389   -4.576359   -0.343376
      5          1           0       -1.348233   -5.401455   -1.065862
      6          6           0       -0.780246   -3.311740   -1.046926
      7          6           0       -2.770852   -4.343184    0.155766
      8          1           0       -3.396381   -4.044671   -0.692671
      9          1           0       -3.140840   -5.305662    0.521889
     10          8           0        0.083172   -2.600184   -0.523680
     11          6           0       -2.859890   -3.301083    1.246589
     12          6           0       -2.869410   -3.668832    2.597661
     13          1           0       -2.839127   -4.723189    2.859928
     14          6           0       -2.908745   -1.938159    0.915290
     15          1           0       -2.903884   -1.627991   -0.127707
     16          6           0       -2.934680   -2.697893    3.602521
     17          1           0       -2.990828   -2.996562    4.646725
     18          6           0       -2.965088   -0.965957    1.913731
     19          1           0       -3.023020    0.082396    1.633327
     20          6           0       -2.979598   -1.338546    3.260075
     21          1           0       -3.057355   -0.580222    4.034770
     22          7           0       -1.347667   -3.009231   -2.236166
     23          1           0       -1.936373   -3.678396   -2.721766
     24          6           0       -0.897916   -1.897041   -3.079249
     25          1           0        0.119712   -2.089142   -3.444381
     26          6           0       -0.926125   -0.576470   -2.282862
     27          6           0       -1.849123   -1.804791   -4.271009
     28          1           0       -1.451715   -1.070284   -4.985957
     29          1           0       -2.822344   -1.450296   -3.909458
     30          8           0       -1.989755   -0.080736   -1.912758
     31          8           0       -1.928477   -3.110295   -4.835209
     32          1           0       -2.603099   -3.104539   -5.530140
     33          7           0        0.283747   -0.024204   -2.043485
     34          1           0        1.089841   -0.637504   -2.069807
     35          6           0        0.410526    1.063718   -1.092730
     36          1           0       -0.024412    1.975652   -1.514663
     37          6           0        1.915308    1.280571   -0.864120
     38          6           0       -0.340919    0.762914    0.264326
     39          1           0       -0.922364   -0.148985    0.118200
     40          1           0       -1.035002    1.578477    0.479801
     41          8           0        2.738363    0.388153   -1.043138
     42          8           0        0.466893    0.480812    1.394685
     43          1           0        1.046434    1.211574    1.677384
     44          7           0        2.225907    2.497592   -0.352132
     45          1           0        1.510750    3.224619   -0.313154
     46          6           0        3.537966    2.784015    0.208823
     47          1           0        4.293589    2.680881   -0.579686
     48          6           0        3.819697    1.768614    1.342776
     49          6           0        3.599510    4.211115    0.793828
     50          1           0        2.946977    4.246555    1.670968
     51          1           0        4.624618    4.427893    1.099559
     52          8           0        3.018835    1.638163    2.273847
     53          6           0        3.098000    5.236943   -0.199058
     54          8           0        1.925880    5.333985   -0.516643
     55          8           0        4.071471    5.994983   -0.717635
     56          7           0        4.970838    1.078330    1.234092
     57          1           0        5.527613    1.175645    0.396933
     58          6           0        5.370738    0.077300    2.218407
     59          1           0        4.832791    0.342629    3.135477
     60          6           0        6.855594    0.117082    2.557158
     61          6           0        4.944171   -1.360347    1.823653
     62          1           0        5.121296   -1.989074    2.703202
     63          1           0        5.588516   -1.751560    1.024722
     64          8           0        7.384357   -0.701999    3.269730
     65          6           0        3.481788   -1.359692    1.374244
     66          1           0        3.402878   -0.878226    0.398446
     67          1           0        2.911857   -0.733170    2.058605
     68          6           0        2.777523   -2.707996    1.263276
     69          1           0        1.912455   -2.603330    0.599471
     70          1           0        3.433702   -3.474006    0.837541
     71          7           0        2.285543   -3.249285    2.550108
     72          1           0        2.852089   -3.924333    3.045582
     73          7           0        0.388961   -1.889256    2.724659
     74          1           0       -0.588869   -1.809153    2.999582
     75          1           0        0.765518   -1.085023    2.200606
     76          7           0        0.620339   -3.769839    4.070516
     77          1           0        0.835602   -4.756866    4.005335
     78          1           0       -0.296088   -3.559997    4.447019
     79          6           0        1.096469   -2.951769    3.096774
     80          8           0        7.508544    1.144616    1.971814
     81          1           0        8.442614    1.078915    2.249098
     82          1           0        3.660778    6.621939   -1.344748
 ---------------------------------------------------------------------

 SCF Done:  E(RB3LYP) =  -2166.41653756     A.U. after    1 cycles

 Alpha  occ. eigenvalues --  -19.29464 -19.29122 -19.25075 -19.24160 -19.23681
 Alpha  occ. eigenvalues --  -19.22941 -19.22816 -19.22537 -19.21562 -19.20540
 Alpha  occ. eigenvalues --  -14.49705 -14.49478 -14.47826 -14.47183 -14.46740
 Alpha  occ. eigenvalues --  -14.45427 -14.44563 -14.40766 -10.45443 -10.42155
 Alpha  occ. eigenvalues --  -10.41403 -10.39693 -10.39577 -10.37881 -10.37616
 Alpha  occ. eigenvalues --  -10.35248 -10.33822 -10.32996 -10.32698 -10.32608
 Alpha  occ. eigenvalues --  -10.32587 -10.32555 -10.31727 -10.30825 -10.28709
 Alpha  occ. eigenvalues --  -10.28624 -10.28616 -10.28305 -10.28176 -10.28027
 Alpha  occ. eigenvalues --  -10.27971 -10.27508 -10.26876  -1.20427  -1.19866
 Alpha  occ. eigenvalues --   -1.15234  -1.14009  -1.13930  -1.13454  -1.12239
 Alpha  occ. eigenvalues --   -1.11805  -1.11324  -1.11267  -1.10876  -1.03609
 Alpha  occ. eigenvalues --   -1.03449  -1.03350  -1.01671  -1.01567  -1.01471
 Alpha  occ. eigenvalues --   -0.98389  -0.94546  -0.90732  -0.89357  -0.87414
 Alpha  occ. eigenvalues --   -0.86290  -0.85552  -0.83888  -0.83524  -0.80526
 Alpha  occ. eigenvalues --   -0.80096  -0.78654  -0.76047  -0.75576  -0.74212
 Alpha  occ. eigenvalues --   -0.72482  -0.71579  -0.71358  -0.70859  -0.69725
 Alpha  occ. eigenvalues --   -0.69523  -0.69485  -0.68742  -0.68186  -0.67222
 Alpha  occ. eigenvalues --   -0.66840  -0.66471  -0.63430  -0.62848  -0.62499
 Alpha  occ. eigenvalues --   -0.62134  -0.61676  -0.61274  -0.60835  -0.60541
 Alpha  occ. eigenvalues --   -0.59968  -0.59339  -0.59204  -0.58806  -0.58012
 Alpha  occ. eigenvalues --   -0.57781  -0.57520  -0.57137  -0.56761  -0.56392
 Alpha  occ. eigenvalues --   -0.55862  -0.55306  -0.55004  -0.54632  -0.54325
 Alpha  occ. eigenvalues --   -0.54198  -0.53781  -0.53122  -0.52393  -0.52241
 Alpha  occ. eigenvalues --   -0.52233  -0.51763  -0.51456  -0.51103  -0.50651
 Alpha  occ. eigenvalues --   -0.50388  -0.50211  -0.49832  -0.49372  -0.49176
 Alpha  occ. eigenvalues --   -0.48681  -0.48242  -0.47974  -0.47815  -0.47511
 Alpha  occ. eigenvalues --   -0.47285  -0.46794  -0.46679  -0.46365  -0.45848
 Alpha  occ. eigenvalues --   -0.45708  -0.44392  -0.43706  -0.43204  -0.43116
 Alpha  occ. eigenvalues --   -0.42815  -0.42578  -0.42016  -0.41428  -0.40877
 Alpha  occ. eigenvalues --   -0.40544  -0.38896  -0.38160  -0.37994  -0.37628
 Alpha  occ. eigenvalues --   -0.37241  -0.36959  -0.36706  -0.36210  -0.35958
 Alpha  occ. eigenvalues --   -0.35696  -0.34770  -0.34485  -0.34240  -0.34112
 Alpha  occ. eigenvalues --   -0.33061  -0.32955
 Alpha virt. eigenvalues --   -0.10688  -0.10209  -0.10126  -0.09550  -0.09016
 Alpha virt. eigenvalues --   -0.08345  -0.07891  -0.07477  -0.07112  -0.05792
 Alpha virt. eigenvalues --   -0.02323  -0.02142  -0.01877  -0.01290  -0.00821

 Mulliken charges:
               1
     1  N   -0.719919
     2  H    0.303129
     3  H    0.318883
     4  C   -0.096158
     5  H    0.163612
     6  C    0.609632
     7  C   -0.338057
     8  H    0.162716
     9  H    0.174782
    10  O   -0.550924
    11  C    0.141747
    12  C   -0.179502
    13  H    0.149766
    14  C   -0.185020
    15  H    0.182979
    16  C   -0.182478
    17  H    0.147222
    18  C   -0.138159
    19  H    0.158046
    20  C   -0.166414
    21  H    0.154424
    22  N   -0.601305
    23  H    0.358914
    24  C   -0.033833
    25  H    0.165964
    26  C    0.629322
    27  C   -0.070143
    28  H    0.158490
    29  H    0.172849
    30  O   -0.537358
    31  O   -0.630528
    32  H    0.416827
    33  N   -0.595650
    34  H    0.358697
    35  C   -0.068123
    36  H    0.187209
    37  C    0.615715
    38  C   -0.041717
    39  H    0.206471
    40  H    0.151039
    41  O   -0.530375
    42  O   -0.669923
    43  H    0.433756
    44  N   -0.628535
    45  H    0.370779
    46  C   -0.032732
    47  H    0.176181
    48  C    0.649944
    49  C   -0.377605
    50  H    0.212267
    51  H    0.201750
    52  O   -0.556258
    53  C    0.587741
    54  O   -0.464479
    55  O   -0.544036
    56  N   -0.580397
    57  H    0.353190
    58  C   -0.074842
    59  H    0.220535
    60  C    0.596366
    61  C   -0.268121
    62  H    0.164968
    63  H    0.153193
    64  O   -0.445369
    65  C   -0.321477
    66  H    0.223511
    67  H    0.164211
    68  C   -0.217439
    69  H    0.242170
    70  H    0.166479
    71  N   -0.589984
    72  H    0.357298
    73  N   -0.786633
    74  H    0.381568
    75  H    0.454730
    76  N   -0.747050
    77  H    0.368862
    78  H    0.367453
    79  C    0.749558
    80  O   -0.571247
    81  H    0.428144
    82  H    0.428708
 Sum of Mulliken charges =   1.00000

 Dipole moment (field-independent basis, Debye):
    X=              7.3270    Y=             -5.8057    Z=              3.1639  Tot=              9.8692
 Quadrupole moment (field-independent basis, Debye-Ang):
   XX=           -184.7707   YY=           -169.0853   ZZ=           -194.7869
   XY=             30.1454   XZ=             10.4096   YZ=            -19.2791

 Normal termination of Gaussian 16 at Sun May 15 23:41:03 2022.
