 Gaussian 16, Revision C.01,
 Gaussian 16:  ES64L-G16RevC.01  3-Jul-2019

 ----------------------------------------------------------------------
 # B3LYP/6-31G* empiricaldispersion=gd3 guess=read geom=check nosymm in
 tegral(ultrafinegrid)
 ----------------------------------------------------------------------

 ------------------------------------------------------
 Candidate Structure: Conf:474 Charge calc in gas phase
 ------------------------------------------------------
 Structure from the checkpoint file:  "conf-474.chk"
 Charge =  1 Multiplicity = 1

                          Input orientation:
 ---------------------------------------------------------------------
 Center     Atomic      Atomic             Coordinates (Angstroms)
 Number     Number       Type             X           Y           Z
 ---------------------------------------------------------------------
      1          7           0       -5.893028   -0.977504   -4.360714
      2          1           0       -5.889516   -1.647820   -5.128820
      3          1           0       -5.963909   -1.557127   -3.523674
      4          6           0       -4.602561   -0.299237   -4.319684
      5          1           0       -4.361672    0.036037   -5.336731
      6          6           0       -3.478232   -1.231717   -3.820646
      7          6           0       -4.684343    0.977961   -3.427758
      8          1           0       -3.826826    1.628363   -3.641225
      9          1           0       -5.581911    1.512177   -3.755799
     10          8           0       -3.721677   -2.321548   -3.323402
     11          6           0       -4.736570    0.701460   -1.939918
     12          6           0       -5.881822    0.157058   -1.339316
     13          1           0       -6.763771   -0.026466   -1.946603
     14          6           0       -3.623296    0.972190   -1.132666
     15          1           0       -2.743423    1.427619   -1.577422
     16          6           0       -5.898723   -0.136284    0.024705
     17          1           0       -6.794145   -0.558445    0.473013
     18          6           0       -3.641508    0.687442    0.234389
     19          1           0       -2.777909    0.932191    0.851261
     20          6           0       -4.777316    0.123127    0.817071
     21          1           0       -4.798765   -0.095782    1.881442
     22          7           0       -2.187228   -0.754814   -3.944639
     23          1           0       -2.061442    0.226199   -4.164685
     24          6           0       -1.126397   -1.357293   -3.159593
     25          1           0       -1.552818   -2.258347   -2.714454
     26          6           0       -0.679619   -0.383217   -2.077634
     27          6           0        0.113872   -1.748285   -3.986005
     28          1           0        0.478139   -0.873864   -4.542377
     29          1           0       -0.174778   -2.520511   -4.708213
     30          8           0       -0.492208    0.817694   -2.319396
     31          8           0        1.108475   -2.259746   -3.108401
     32          1           0        1.805051   -1.585108   -3.053550
     33          7           0       -0.481343   -0.913926   -0.845206
     34          1           0       -0.412344   -1.920740   -0.774468
     35          6           0       -0.115948   -0.096466    0.301199
     36          1           0       -0.633404    0.861761    0.185528
     37          6           0        1.396327    0.187392    0.312211
     38          6           0       -0.588164   -0.749588    1.604959
     39          1           0       -0.117546   -1.741941    1.710557
     40          1           0       -1.669452   -0.897807    1.543655
     41          8           0        2.160244   -0.256354    1.201795
     42          8           0       -0.342952    0.072744    2.730305
     43          1           0        0.593153    0.326081    2.698548
     44          7           0        1.838848    0.926321   -0.698933
     45          1           0        1.143739    1.236527   -1.384235
     46          6           0        3.240804    1.283575   -0.851411
     47          1           0        3.829870    0.359864   -0.849538
     48          6           0        3.662621    2.206906    0.314477
     49          6           0        3.441600    2.028128   -2.173097
     50          1           0        2.806763    2.922357   -2.204467
     51          1           0        4.472503    2.392955   -2.248838
     52          8           0        2.989774    3.179511    0.628830
     53          6           0        3.156299    1.163868   -3.383412
     54          8           0        2.802803    0.000915   -3.346969
     55          8           0        3.351860    1.842731   -4.520059
     56          7           0        4.820671    1.845946    0.924800
     57          1           0        5.318212    1.030665    0.595305
     58          6           0        5.431203    2.614358    1.996727
     59          1           0        5.043215    3.637141    1.923778
     60          6           0        6.953711    2.713587    1.894040
     61          6           0        5.081546    2.055646    3.396428
     62          1           0        5.765525    2.499866    4.124742
     63          1           0        5.282874    0.974180    3.376909
     64          8           0        7.624877    3.062744    2.835761
     65          6           0        3.623408    2.323189    3.817512
     66          1           0        2.964996    2.416171    2.946130
     67          1           0        3.554455    3.285264    4.335353
     68          6           0        3.078709    1.224462    4.733425
     69          1           0        3.801787    1.005907    5.530417
     70          1           0        2.131351    1.533810    5.191675
     71          7           0        2.859984    0.011197    3.930748
     72          1           0        2.913053    0.107923    2.915886
     73          7           0        2.320826   -1.397862    5.704654
     74          1           0        1.770630   -2.170829    6.050933
     75          1           0        2.567662   -0.685874    6.375965
     76          7           0        2.035319   -2.100047    3.508111
     77          1           0        1.996816   -1.857499    2.518934
     78          1           0        1.865418   -3.051326    3.798037
     79          6           0        2.401095   -1.155248    4.383598
     80          8           0        7.462260    2.325466    0.705652
     81          1           0        8.434192    2.398410    0.777947
     82          1           0        3.159355    1.245238   -5.268815
 ---------------------------------------------------------------------

 SCF Done:  E(RB3LYP) =  -2166.40358447     A.U. after    1 cycles

 Alpha  occ. eigenvalues --  -19.30780 -19.30431 -19.25984 -19.25943 -19.25318
 Alpha  occ. eigenvalues --  -19.24073 -19.22755 -19.22689 -19.21577 -19.18402
 Alpha  occ. eigenvalues --  -14.52546 -14.51432 -14.51400 -14.48215 -14.47955
 Alpha  occ. eigenvalues --  -14.47314 -14.43105 -14.36595 -10.48362 -10.44156
 Alpha  occ. eigenvalues --  -10.42604 -10.41720 -10.40193 -10.39136 -10.36325
 Alpha  occ. eigenvalues --  -10.35875 -10.35049 -10.34959 -10.34702 -10.34409
 Alpha  occ. eigenvalues --  -10.32286 -10.30993 -10.30787 -10.30697 -10.30109
 Alpha  occ. eigenvalues --  -10.28583 -10.25408 -10.25178 -10.25137 -10.24823
 Alpha  occ. eigenvalues --  -10.24616 -10.24571 -10.24287  -1.22130  -1.21112
 Alpha  occ. eigenvalues --   -1.17308  -1.16730  -1.14797  -1.14422  -1.13271
 Alpha  occ. eigenvalues --   -1.12730  -1.12115  -1.10318  -1.09057  -1.06169
 Alpha  occ. eigenvalues --   -1.05404  -1.05040  -1.04374  -1.03525  -0.99500
 Alpha  occ. eigenvalues --   -0.94462  -0.92537  -0.91372  -0.91031  -0.87677
 Alpha  occ. eigenvalues --   -0.87457  -0.84019  -0.82630  -0.81949  -0.80640
 Alpha  occ. eigenvalues --   -0.80093  -0.78708  -0.77295  -0.76131  -0.74663
 Alpha  occ. eigenvalues --   -0.73338  -0.73281  -0.72596  -0.71145  -0.71010
 Alpha  occ. eigenvalues --   -0.70469  -0.70082  -0.69542  -0.68248  -0.66335
 Alpha  occ. eigenvalues --   -0.65702  -0.65475  -0.65306  -0.64931  -0.64758
 Alpha  occ. eigenvalues --   -0.63474  -0.63149  -0.62129  -0.61764  -0.61405
 Alpha  occ. eigenvalues --   -0.60711  -0.60543  -0.59591  -0.59152  -0.58626
 Alpha  occ. eigenvalues --   -0.57958  -0.57782  -0.57552  -0.57352  -0.56806
 Alpha  occ. eigenvalues --   -0.56392  -0.55740  -0.55466  -0.55279  -0.54649
 Alpha  occ. eigenvalues --   -0.54118  -0.53676  -0.53079  -0.52872  -0.52307
 Alpha  occ. eigenvalues --   -0.51954  -0.51818  -0.51367  -0.51108  -0.50825
 Alpha  occ. eigenvalues --   -0.50752  -0.50189  -0.49785  -0.49349  -0.48955
 Alpha  occ. eigenvalues --   -0.48684  -0.48182  -0.47872  -0.47677  -0.47295
 Alpha  occ. eigenvalues --   -0.46823  -0.46714  -0.46338  -0.46165  -0.45674
 Alpha  occ. eigenvalues --   -0.44626  -0.44429  -0.43383  -0.43267  -0.42984
 Alpha  occ. eigenvalues --   -0.42765  -0.42031  -0.41013  -0.40885  -0.40753
 Alpha  occ. eigenvalues --   -0.40704  -0.39994  -0.39468  -0.38893  -0.38885
 Alpha  occ. eigenvalues --   -0.38773  -0.38263  -0.37080  -0.36521  -0.36236
 Alpha  occ. eigenvalues --   -0.35757  -0.35126  -0.32693  -0.31805  -0.30707
 Alpha  occ. eigenvalues --   -0.30496  -0.29253
 Alpha virt. eigenvalues --   -0.12336  -0.11763  -0.10734  -0.09550  -0.09060
 Alpha virt. eigenvalues --   -0.08674  -0.07880  -0.06286  -0.05913  -0.04691
 Alpha virt. eigenvalues --   -0.04200  -0.04010  -0.03190  -0.02778  -0.02475

 Mulliken charges:
               1
     1  N   -0.695898
     2  H    0.309548
     3  H    0.318407
     4  C   -0.094073
     5  H    0.155459
     6  C    0.594665
     7  C   -0.346502
     8  H    0.135440
     9  H    0.184587
    10  O   -0.504459
    11  C    0.155117
    12  C   -0.183536
    13  H    0.158207
    14  C   -0.212800
    15  H    0.143331
    16  C   -0.124882
    17  H    0.141734
    18  C   -0.145049
    19  H    0.125134
    20  C   -0.135730
    21  H    0.130694
    22  N   -0.604735
    23  H    0.338210
    24  C   -0.063461
    25  H    0.196809
    26  C    0.650710
    27  C   -0.045452
    28  H    0.134041
    29  H    0.171016
    30  O   -0.576188
    31  O   -0.663742
    32  H    0.437830
    33  N   -0.581454
    34  H    0.355039
    35  C   -0.108197
    36  H    0.219786
    37  C    0.646856
    38  C   -0.040736
    39  H    0.106167
    40  H    0.194782
    41  O   -0.619202
    42  O   -0.627786
    43  H    0.396728
    44  N   -0.587347
    45  H    0.399359
    46  C   -0.034339
    47  H    0.174775
    48  C    0.632400
    49  C   -0.408085
    50  H    0.232415
    51  H    0.218258
    52  O   -0.518111
    53  C    0.603579
    54  O   -0.475653
    55  O   -0.540271
    56  N   -0.603170
    57  H    0.345032
    58  C   -0.068936
    59  H    0.227088
    60  C    0.590469
    61  C   -0.278302
    62  H    0.205653
    63  H    0.141583
    64  O   -0.437674
    65  C   -0.331202
    66  H    0.193697
    67  H    0.187815
    68  C   -0.159290
    69  H    0.176123
    70  H    0.191920
    71  N   -0.641521
    72  H    0.410636
    73  N   -0.762225
    74  H    0.382162
    75  H    0.388944
    76  N   -0.780432
    77  H    0.407114
    78  H    0.373684
    79  C    0.825655
    80  O   -0.571311
    81  H    0.431764
    82  H    0.431330
 Sum of Mulliken charges =   1.00000

 Dipole moment (field-independent basis, Debye):
    X=             14.9808    Y=             -1.9033    Z=              9.8370  Tot=             18.0226
 Quadrupole moment (field-independent basis, Debye-Ang):
   XX=           -185.1527   YY=           -243.3617   ZZ=           -133.4209
   XY=              6.1361   XZ=             21.8352   YZ=            -31.4996

 Normal termination of Gaussian 16 at Sun May 15 23:40:53 2022.
