 Gaussian 16, Revision C.01,
 Gaussian 16:  ES64L-G16RevC.01  3-Jul-2019

 ----------------------------------------------------------------------
 # B3LYP/6-31G* empiricaldispersion=gd3 guess=read geom=check nosymm in
 tegral(ultrafinegrid)
 ----------------------------------------------------------------------

 ------------------------------------------------------
 Candidate Structure: Conf:304 Charge calc in gas phase
 ------------------------------------------------------
 Structure from the checkpoint file:  "conf-304.chk"
 Charge =  1 Multiplicity = 1

                          Input orientation:
 ---------------------------------------------------------------------
 Center     Atomic      Atomic             Coordinates (Angstroms)
 Number     Number       Type             X           Y           Z
 ---------------------------------------------------------------------
      1          7           0       -2.711646    0.767429   -4.992465
      2          1           0       -2.842623    0.269858   -5.873963
      3          1           0       -2.861332    1.751865   -5.206001
      4          6           0       -3.725528    0.323205   -4.026647
      5          1           0       -3.693439    1.033667   -3.189061
      6          6           0       -3.336551   -1.024420   -3.404109
      7          6           0       -5.179104    0.277028   -4.556238
      8          1           0       -5.218394   -0.421749   -5.402765
      9          1           0       -5.812831   -0.142419   -3.769133
     10          8           0       -4.112908   -1.689025   -2.729772
     11          6           0       -5.659182    1.646148   -4.975350
     12          6           0       -6.194327    2.529951   -4.027334
     13          1           0       -6.313968    2.197692   -2.998052
     14          6           0       -5.520154    2.090336   -6.297309
     15          1           0       -5.120541    1.412812   -7.049190
     16          6           0       -6.582275    3.819816   -4.389794
     17          1           0       -7.003748    4.487333   -3.642868
     18          6           0       -5.906959    3.380984   -6.665252
     19          1           0       -5.799631    3.703714   -7.697431
     20          6           0       -6.438178    4.250152   -5.711224
     21          1           0       -6.744927    5.252746   -5.995974
     22          7           0       -2.046077   -1.414611   -3.657287
     23          1           0       -1.449809   -0.679845   -4.026969
     24          6           0       -1.470118   -2.480506   -2.884169
     25          1           0       -2.253552   -3.236821   -2.745534
     26          6           0       -1.080643   -1.974110   -1.476495
     27          6           0       -0.299538   -3.133748   -3.638093
     28          1           0       -0.662545   -3.432039   -4.624895
     29          1           0        0.038221   -4.035651   -3.112485
     30          8           0       -1.187256   -0.784655   -1.171336
     31          8           0        0.804290   -2.251546   -3.850447
     32          1           0        1.405419   -2.294240   -3.078142
     33          7           0       -0.589768   -2.912988   -0.618455
     34          1           0       -0.799682   -3.883551   -0.829116
     35          6           0       -0.456763   -2.655396    0.822862
     36          1           0       -1.343793   -2.103725    1.162115
     37          6           0        0.800209   -1.809641    1.121857
     38          6           0       -0.375933   -3.995814    1.554969
     39          1           0       -0.408689   -3.808828    2.637295
     40          1           0        0.584780   -4.476417    1.325753
     41          8           0        1.797621   -2.313104    1.676030
     42          8           0       -1.479862   -4.766595    1.103564
     43          1           0       -1.433800   -5.645071    1.510119
     44          7           0        0.706518   -0.520793    0.764404
     45          1           0       -0.147782   -0.291793    0.244414
     46          6           0        1.854655    0.340578    0.543195
     47          1           0        2.746686   -0.293136    0.527658
     48          6           0        2.011676    1.396084    1.652320
     49          6           0        1.705752    1.003365   -0.842760
     50          1           0        0.780250    1.584993   -0.902028
     51          1           0        2.526459    1.702043   -1.043136
     52          8           0        1.153328    1.611151    2.498586
     53          6           0        1.685230   -0.067379   -1.920887
     54          8           0        2.161674   -1.182276   -1.740935
     55          8           0        1.091630    0.331437   -3.036085
     56          7           0        3.214698    2.050134    1.623989
     57          1           0        3.827135    1.864817    0.840198
     58          6           0        3.417806    3.332503    2.297437
     59          1           0        2.426078    3.684764    2.606602
     60          6           0        3.967888    4.397367    1.344339
     61          6           0        4.309160    3.237106    3.553221
     62          1           0        4.512246    4.257722    3.886294
     63          1           0        5.278192    2.812766    3.257541
     64          8           0        4.348171    5.481188    1.710369
     65          6           0        3.657427    2.410112    4.687037
     66          1           0        2.643682    2.123060    4.388067
     67          1           0        3.533616    3.031223    5.581265
     68          6           0        4.457351    1.172523    5.124469
     69          1           0        5.411190    1.473245    5.565855
     70          1           0        3.913439    0.610966    5.891419
     71          7           0        4.794824    0.242047    4.035466
     72          1           0        5.688369    0.363777    3.580154
     73          7           0        2.662533   -0.688858    3.846265
     74          1           0        2.083645   -1.347225    3.323691
     75          1           0        2.188025    0.141915    4.174577
     76          7           0        4.370282   -1.444960    2.492661
     77          1           0        5.346133   -1.688877    2.404561
     78          1           0        3.668241   -2.001466    2.001244
     79          6           0        3.943264   -0.615886    3.459622
     80          8           0        3.979992    3.995229    0.047759
     81          1           0        4.329843    4.741985   -0.476494
     82          1           0        0.972971   -0.459813   -3.627573
 ---------------------------------------------------------------------

 SCF Done:  E(RB3LYP) =  -2166.41459362     A.U. after    1 cycles

 Alpha  occ. eigenvalues --  -19.31275 -19.28458 -19.24991 -19.24949 -19.24867
 Alpha  occ. eigenvalues --  -19.24569 -19.24491 -19.24007 -19.22547 -19.17361
 Alpha  occ. eigenvalues --  -14.51933 -14.50518 -14.49955 -14.48441 -14.47162
 Alpha  occ. eigenvalues --  -14.46475 -14.41751 -14.38714 -10.47361 -10.43358
 Alpha  occ. eigenvalues --  -10.42745 -10.41317 -10.41095 -10.38893 -10.36038
 Alpha  occ. eigenvalues --  -10.35789 -10.35764 -10.34350 -10.34289 -10.33904
 Alpha  occ. eigenvalues --  -10.33032 -10.31812 -10.31643 -10.30860 -10.30778
 Alpha  occ. eigenvalues --  -10.28368 -10.24469 -10.23994 -10.23747 -10.23694
 Alpha  occ. eigenvalues --  -10.23685 -10.23572 -10.23505  -1.21807  -1.20408
 Alpha  occ. eigenvalues --   -1.16588  -1.15815  -1.15662  -1.14200  -1.12887
 Alpha  occ. eigenvalues --   -1.12352  -1.11500  -1.11443  -1.09319  -1.05767
 Alpha  occ. eigenvalues --   -1.04958  -1.04657  -1.03503  -1.02654  -0.99192
 Alpha  occ. eigenvalues --   -0.95495  -0.92554  -0.90817  -0.90089  -0.87590
 Alpha  occ. eigenvalues --   -0.87057  -0.83695  -0.82642  -0.81888  -0.80480
 Alpha  occ. eigenvalues --   -0.79052  -0.77895  -0.77148  -0.75064  -0.74337
 Alpha  occ. eigenvalues --   -0.74128  -0.73266  -0.71699  -0.71273  -0.70805
 Alpha  occ. eigenvalues --   -0.69759  -0.68972  -0.68653  -0.68190  -0.65469
 Alpha  occ. eigenvalues --   -0.65238  -0.64973  -0.64477  -0.64383  -0.63175
 Alpha  occ. eigenvalues --   -0.62758  -0.62546  -0.61736  -0.61062  -0.60741
 Alpha  occ. eigenvalues --   -0.60100  -0.59575  -0.59341  -0.59127  -0.58798
 Alpha  occ. eigenvalues --   -0.58359  -0.58147  -0.57669  -0.57022  -0.56606
 Alpha  occ. eigenvalues --   -0.56325  -0.55593  -0.54737  -0.54598  -0.54108
 Alpha  occ. eigenvalues --   -0.53770  -0.53546  -0.53432  -0.53044  -0.52673
 Alpha  occ. eigenvalues --   -0.52087  -0.51745  -0.51575  -0.50783  -0.50596
 Alpha  occ. eigenvalues --   -0.50346  -0.50052  -0.49539  -0.49241  -0.48827
 Alpha  occ. eigenvalues --   -0.48301  -0.48201  -0.47879  -0.47423  -0.47030
 Alpha  occ. eigenvalues --   -0.46908  -0.46673  -0.46614  -0.46212  -0.45992
 Alpha  occ. eigenvalues --   -0.44243  -0.43999  -0.43418  -0.43018  -0.42947
 Alpha  occ. eigenvalues --   -0.42244  -0.41649  -0.40891  -0.40618  -0.40115
 Alpha  occ. eigenvalues --   -0.40045  -0.39443  -0.38916  -0.38808  -0.38581
 Alpha  occ. eigenvalues --   -0.38397  -0.37539  -0.37342  -0.37214  -0.36947
 Alpha  occ. eigenvalues --   -0.35974  -0.35493  -0.32847  -0.32052  -0.30593
 Alpha  occ. eigenvalues --   -0.29664  -0.28631
 Alpha virt. eigenvalues --   -0.12375  -0.11305  -0.10649  -0.10283  -0.09211
 Alpha virt. eigenvalues --   -0.08066  -0.07351  -0.05149  -0.04853  -0.04327
 Alpha virt. eigenvalues --   -0.03711  -0.03663  -0.02526  -0.02344  -0.01121

 Mulliken charges:
               1
     1  N   -0.749117
     2  H    0.307111
     3  H    0.325502
     4  C   -0.079401
     5  H    0.179255
     6  C    0.625647
     7  C   -0.363961
     8  H    0.144005
     9  H    0.183547
    10  O   -0.528775
    11  C    0.167896
    12  C   -0.183520
    13  H    0.130615
    14  C   -0.196241
    15  H    0.119751
    16  C   -0.127838
    17  H    0.136684
    18  C   -0.128131
    19  H    0.137275
    20  C   -0.130782
    21  H    0.138178
    22  N   -0.601259
    23  H    0.360410
    24  C   -0.085705
    25  H    0.202681
    26  C    0.644862
    27  C   -0.055976
    28  H    0.188154
    29  H    0.143714
    30  O   -0.547907
    31  O   -0.660613
    32  H    0.437572
    33  N   -0.609400
    34  H    0.363049
    35  C   -0.073225
    36  H    0.205226
    37  C    0.645751
    38  C   -0.059312
    39  H    0.152716
    40  H    0.160768
    41  O   -0.593478
    42  O   -0.621592
    43  H    0.418215
    44  N   -0.570829
    45  H    0.399496
    46  C   -0.086416
    47  H    0.187933
    48  C    0.611444
    49  C   -0.403363
    50  H    0.220158
    51  H    0.201633
    52  O   -0.515546
    53  C    0.635365
    54  O   -0.511717
    55  O   -0.574521
    56  N   -0.601197
    57  H    0.345897
    58  C   -0.078278
    59  H    0.228325
    60  C    0.593512
    61  C   -0.263397
    62  H    0.206756
    63  H    0.127554
    64  O   -0.428779
    65  C   -0.305346
    66  H    0.180605
    67  H    0.186149
    68  C   -0.182040
    69  H    0.193233
    70  H    0.197552
    71  N   -0.587185
    72  H    0.356229
    73  N   -0.761813
    74  H    0.403567
    75  H    0.388009
    76  N   -0.791188
    77  H    0.367239
    78  H    0.423078
    79  C    0.781973
    80  O   -0.585402
    81  H    0.434583
    82  H    0.454375
 Sum of Mulliken charges =   1.00000

 Dipole moment (field-independent basis, Debye):
    X=             15.8963    Y=             -1.6976    Z=              7.2203  Tot=             17.5416
 Quadrupole moment (field-independent basis, Debye-Ang):
   XX=           -172.3430   YY=           -201.3583   ZZ=           -172.6217
   XY=              0.6020   XZ=             55.4681   YZ=            -10.7180

 Normal termination of Gaussian 16 at Sun May 15 23:40:53 2022.
