 Gaussian 16, Revision C.01,
 Gaussian 16:  ES64L-G16RevC.01  3-Jul-2019

 ----------------------------------------------------------------------
 # B3LYP/6-31G* empiricaldispersion=gd3 guess=read geom=check nosymm in
 tegral(ultrafinegrid)
 ----------------------------------------------------------------------

 ------------------------------------------------------
 Candidate Structure: Conf:399 Charge calc in gas phase
 ------------------------------------------------------
 Structure from the checkpoint file:  "conf-399.chk"
 Charge =  1 Multiplicity = 1

                          Input orientation:
 ---------------------------------------------------------------------
 Center     Atomic      Atomic             Coordinates (Angstroms)
 Number     Number       Type             X           Y           Z
 ---------------------------------------------------------------------
      1          7           0       -2.437967   -4.602021   -3.726094
      2          1           0       -3.154312   -5.235531   -4.075616
      3          1           0       -1.910546   -4.273199   -4.532008
      4          6           0       -3.074717   -3.492716   -3.019445
      5          1           0       -3.884130   -3.011958   -3.599061
      6          6           0       -2.026308   -2.416390   -2.720912
      7          6           0       -3.740813   -4.007488   -1.712798
      8          1           0       -4.389076   -3.209352   -1.331772
      9          1           0       -4.417495   -4.818165   -2.017319
     10          8           0       -0.938207   -2.669040   -2.198356
     11          6           0       -2.862377   -4.531440   -0.590599
     12          6           0       -2.001286   -5.623672   -0.789894
     13          1           0       -1.882099   -6.020895   -1.791629
     14          6           0       -2.980072   -4.003073    0.700958
     15          1           0       -3.634210   -3.155151    0.889839
     16          6           0       -1.314274   -6.194289    0.281766
     17          1           0       -0.681991   -7.062324    0.108375
     18          6           0       -2.297095   -4.569135    1.780954
     19          1           0       -2.440017   -4.163393    2.776679
     20          6           0       -1.475073   -5.680342    1.577234
     21          1           0       -1.002173   -6.166424    2.431705
     22          7           0       -2.397736   -1.141588   -3.032227
     23          1           0       -3.305587   -0.993085   -3.453495
     24          6           0       -1.471397   -0.007831   -3.038136
     25          1           0       -0.493787   -0.378916   -3.373678
     26          6           0       -1.220998    0.609252   -1.646395
     27          6           0       -1.937765    1.065144   -4.043753
     28          1           0       -2.895128    1.491372   -3.699483
     29          1           0       -2.112834    0.580729   -5.010194
     30          8           0       -1.044016    1.817793   -1.483452
     31          8           0       -0.953405    2.047406   -4.242479
     32          1           0       -0.875208    2.515613   -3.392539
     33          7           0       -1.154901   -0.296847   -0.636933
     34          1           0       -0.997016   -1.263229   -0.932483
     35          6           0       -0.658909    0.061284    0.689708
     36          1           0       -1.003831    1.070136    0.926636
     37          6           0        0.861502   -0.006566    0.617897
     38          6           0       -1.235981   -0.916940    1.715969
     39          1           0       -0.844523   -0.680785    2.709357
     40          1           0       -0.921970   -1.937949    1.467756
     41          8           0        1.456557   -1.070604    0.854448
     42          8           0       -2.645112   -0.810516    1.785006
     43          1           0       -2.977719   -0.875458    0.875762
     44          7           0        1.519463    1.068992    0.164523
     45          1           0        1.014837    1.931535    0.004874
     46          6           0        2.950853    0.965965   -0.066552
     47          1           0        3.115435    0.159529   -0.788513
     48          6           0        3.674636    0.569567    1.252618
     49          6           0        3.487530    2.273750   -0.661536
     50          1           0        2.805442    2.627223   -1.447162
     51          1           0        3.552917    3.067619    0.088802
     52          8           0        3.217943    0.823817    2.357060
     53          6           0        4.836596    2.067679   -1.328142
     54          8           0        5.259587    0.992515   -1.701646
     55          8           0        5.491223    3.224552   -1.491034
     56          7           0        4.827939   -0.113499    1.026886
     57          1           0        5.188214   -0.126071    0.075412
     58          6           0        5.784550   -0.459436    2.065186
     59          1           0        5.570771    0.151515    2.949421
     60          6           0        7.184247   -0.096740    1.574877
     61          6           0        5.696148   -1.959285    2.441074
     62          1           0        6.587359   -2.229397    3.014762
     63          1           0        5.730075   -2.530633    1.505342
     64          8           0        7.447969    0.298414    0.462887
     65          6           0        4.426024   -2.309829    3.252745
     66          1           0        3.709493   -1.479086    3.233951
     67          1           0        4.692164   -2.446642    4.305932
     68          6           0        3.710389   -3.584946    2.790649
     69          1           0        4.437459   -4.392317    2.627649
     70          1           0        3.003652   -3.913366    3.563880
     71          7           0        2.978431   -3.327805    1.541162
     72          1           0        2.811950   -2.348970    1.307441
     73          7           0        2.123074   -5.490851    1.343852
     74          1           0        1.558850   -6.152180    0.830253
     75          1           0        2.912577   -5.875570    1.841034
     76          7           0        1.244382   -3.756786    0.066750
     77          1           0        1.077361   -2.748852    0.040584
     78          1           0        0.495822   -4.347268   -0.287011
     79          6           0        2.116872   -4.188574    0.981664
     80          8           0        8.098507   -0.286529    2.545199
     81          1           0        8.969515   -0.047258    2.176184
     82          1           0        6.332929    3.023148   -1.943584
 ---------------------------------------------------------------------

 SCF Done:  E(RB3LYP) =  -2166.41319958     A.U. after    1 cycles

 Alpha  occ. eigenvalues --  -19.28964 -19.28724 -19.24177 -19.23690 -19.23588
 Alpha  occ. eigenvalues --  -19.23404 -19.23391 -19.23245 -19.21941 -19.20801
 Alpha  occ. eigenvalues --  -14.50116 -14.48646 -14.48013 -14.47909 -14.47836
 Alpha  occ. eigenvalues --  -14.46660 -14.44953 -14.41883 -10.45515 -10.42058
 Alpha  occ. eigenvalues --  -10.41265 -10.40589 -10.40143 -10.39956 -10.38232
 Alpha  occ. eigenvalues --  -10.34416 -10.34193 -10.33886 -10.33704 -10.33375
 Alpha  occ. eigenvalues --  -10.33274 -10.32819 -10.32787 -10.31043 -10.29214
 Alpha  occ. eigenvalues --  -10.29202 -10.28946 -10.28913 -10.28403 -10.28233
 Alpha  occ. eigenvalues --  -10.27854 -10.27799 -10.27503  -1.20155  -1.19779
 Alpha  occ. eigenvalues --   -1.16340  -1.15437  -1.14656  -1.13983  -1.12766
 Alpha  occ. eigenvalues --   -1.11302  -1.11213  -1.10929  -1.09858  -1.04431
 Alpha  occ. eigenvalues --   -1.04128  -1.03441  -1.02982  -1.02096  -1.01974
 Alpha  occ. eigenvalues --   -0.99260  -0.94394  -0.90909  -0.89587  -0.88086
 Alpha  occ. eigenvalues --   -0.86974  -0.85614  -0.84986  -0.83328  -0.81108
 Alpha  occ. eigenvalues --   -0.79967  -0.78605  -0.76168  -0.75748  -0.74962
 Alpha  occ. eigenvalues --   -0.73713  -0.72100  -0.71878  -0.70694  -0.69637
 Alpha  occ. eigenvalues --   -0.69622  -0.69451  -0.69263  -0.68723  -0.67687
 Alpha  occ. eigenvalues --   -0.67192  -0.67117  -0.64454  -0.63208  -0.62729
 Alpha  occ. eigenvalues --   -0.62281  -0.62101  -0.61726  -0.60788  -0.60665
 Alpha  occ. eigenvalues --   -0.59642  -0.59310  -0.59073  -0.59031  -0.58472
 Alpha  occ. eigenvalues --   -0.58356  -0.57605  -0.57483  -0.57357  -0.56501
 Alpha  occ. eigenvalues --   -0.56165  -0.56128  -0.55733  -0.55162  -0.54406
 Alpha  occ. eigenvalues --   -0.54250  -0.53770  -0.53741  -0.53272  -0.52970
 Alpha  occ. eigenvalues --   -0.52815  -0.52513  -0.52161  -0.51310  -0.51059
 Alpha  occ. eigenvalues --   -0.50825  -0.50500  -0.50412  -0.50005  -0.49509
 Alpha  occ. eigenvalues --   -0.49230  -0.48894  -0.48457  -0.48204  -0.48018
 Alpha  occ. eigenvalues --   -0.47990  -0.47165  -0.46917  -0.46321  -0.46246
 Alpha  occ. eigenvalues --   -0.45111  -0.44833  -0.44591  -0.44178  -0.43159
 Alpha  occ. eigenvalues --   -0.42859  -0.42670  -0.42547  -0.41265  -0.40928
 Alpha  occ. eigenvalues --   -0.40875  -0.39728  -0.39080  -0.38461  -0.38073
 Alpha  occ. eigenvalues --   -0.37545  -0.37317  -0.36841  -0.36688  -0.36049
 Alpha  occ. eigenvalues --   -0.35277  -0.34965  -0.34534  -0.34401  -0.34282
 Alpha  occ. eigenvalues --   -0.33742  -0.32934
 Alpha virt. eigenvalues --   -0.11113  -0.10320  -0.09887  -0.09663  -0.09373
 Alpha virt. eigenvalues --   -0.08933  -0.08269  -0.08147  -0.07072  -0.05284
 Alpha virt. eigenvalues --   -0.03837  -0.02024  -0.01888  -0.01001  -0.00684

 Mulliken charges:
               1
     1  N   -0.713682
     2  H    0.318653
     3  H    0.318627
     4  C   -0.046509
     5  H    0.125293
     6  C    0.627212
     7  C   -0.367174
     8  H    0.150909
     9  H    0.177379
    10  O   -0.549042
    11  C    0.183247
    12  C   -0.166415
    13  H    0.172428
    14  C   -0.205468
    15  H    0.139718
    16  C   -0.192922
    17  H    0.132378
    18  C   -0.129968
    19  H    0.158101
    20  C   -0.135192
    21  H    0.140683
    22  N   -0.615666
    23  H    0.348685
    24  C   -0.084146
    25  H    0.208587
    26  C    0.629697
    27  C   -0.047641
    28  H    0.141659
    29  H    0.160132
    30  O   -0.540654
    31  O   -0.616497
    32  H    0.420054
    33  N   -0.645610
    34  H    0.384098
    35  C   -0.106498
    36  H    0.201622
    37  C    0.675831
    38  C   -0.026996
    39  H    0.177272
    40  H    0.132912
    41  O   -0.593372
    42  O   -0.607826
    43  H    0.398745
    44  N   -0.603605
    45  H    0.367603
    46  C   -0.025203
    47  H    0.192629
    48  C    0.617002
    49  C   -0.408792
    50  H    0.210161
    51  H    0.214255
    52  O   -0.519490
    53  C    0.607489
    54  O   -0.462709
    55  O   -0.548282
    56  N   -0.624461
    57  H    0.387265
    58  C   -0.059096
    59  H    0.211672
    60  C    0.576704
    61  C   -0.276181
    62  H    0.184413
    63  H    0.156491
    64  O   -0.451632
    65  C   -0.328418
    66  H    0.204285
    67  H    0.177020
    68  C   -0.153220
    69  H    0.164121
    70  H    0.180948
    71  N   -0.625917
    72  H    0.411180
    73  N   -0.758760
    74  H    0.373146
    75  H    0.375264
    76  N   -0.785909
    77  H    0.405829
    78  H    0.385742
    79  C    0.793793
    80  O   -0.558229
    81  H    0.428099
    82  H    0.432151
 Sum of Mulliken charges =   1.00000

 Dipole moment (field-independent basis, Debye):
    X=              6.5503    Y=            -14.1344    Z=             -1.1469  Tot=             15.6206
 Quadrupole moment (field-independent basis, Debye-Ang):
   XX=           -150.5892   YY=           -161.8355   ZZ=           -220.2630
   XY=             -2.9267   XZ=             48.4453   YZ=             -5.9853

 Normal termination of Gaussian 16 at Sun May 15 23:40:50 2022.
