 Gaussian 16, Revision C.01,
 Gaussian 16:  ES64L-G16RevC.01  3-Jul-2019

 ----------------------------------------------------------------------
 # B3LYP/6-31G* empiricaldispersion=gd3 guess=read geom=check nosymm in
 tegral(ultrafinegrid)
 ----------------------------------------------------------------------

 ------------------------------------------------------
 Candidate Structure: Conf:234 Charge calc in gas phase
 ------------------------------------------------------
 Structure from the checkpoint file:  "conf-234.chk"
 Charge =  1 Multiplicity = 1

                          Input orientation:
 ---------------------------------------------------------------------
 Center     Atomic      Atomic             Coordinates (Angstroms)
 Number     Number       Type             X           Y           Z
 ---------------------------------------------------------------------
      1          7           0       -6.499350   -1.522207   -2.758865
      2          1           0       -6.899809   -0.602047   -2.938303
      3          1           0       -6.297134   -1.918878   -3.678072
      4          6           0       -5.232402   -1.377072   -2.052636
      5          1           0       -5.396027   -0.750353   -1.166356
      6          6           0       -4.112918   -0.778949   -2.916285
      7          6           0       -4.755870   -2.781974   -1.585576
      8          1           0       -5.511014   -3.171766   -0.895753
      9          1           0       -4.750549   -3.433040   -2.467324
     10          8           0       -3.947391   -1.131698   -4.083323
     11          6           0       -3.382838   -2.767944   -0.952016
     12          6           0       -2.240318   -3.051485   -1.715468
     13          1           0       -2.357378   -3.311790   -2.764153
     14          6           0       -3.214309   -2.410076    0.391817
     15          1           0       -4.088797   -2.185453    0.998347
     16          6           0       -0.966101   -2.991547   -1.150749
     17          1           0       -0.095182   -3.231308   -1.755523
     18          6           0       -1.941163   -2.345787    0.960128
     19          1           0       -1.847433   -2.064856    2.007303
     20          6           0       -0.812279   -2.642523    0.193170
     21          1           0        0.180500   -2.623127    0.634558
     22          7           0       -3.276275    0.091876   -2.289288
     23          1           0       -3.364826    0.264690   -1.295478
     24          6           0       -1.998127    0.430100   -2.871555
     25          1           0       -1.647955   -0.428130   -3.461401
     26          6           0       -1.013098    0.692882   -1.731467
     27          6           0       -2.084867    1.637564   -3.816921
     28          1           0       -2.890600    1.429582   -4.532436
     29          1           0       -1.141842    1.729469   -4.382514
     30          8           0       -1.390005    0.776601   -0.553072
     31          8           0       -2.332559    2.784995   -3.022443
     32          1           0       -2.617682    3.506671   -3.602324
     33          7           0        0.280574    0.841690   -2.081072
     34          1           0        0.601005    0.659407   -3.025281
     35          6           0        1.280389    1.271216   -1.122982
     36          1           0        0.935054    2.187606   -0.628174
     37          6           0        2.610301    1.499908   -1.847214
     38          6           0        1.545845    0.211054   -0.018579
     39          1           0        2.564299    0.323549    0.366670
     40          1           0        1.450158   -0.785271   -0.466766
     41          8           0        2.959662    0.784832   -2.779480
     42          8           0        0.674055    0.371557    1.101351
     43          1           0       -0.223987    0.550490    0.708450
     44          7           0        3.379253    2.462965   -1.280979
     45          1           0        3.026311    2.984619   -0.483173
     46          6           0        4.835149    2.424304   -1.322504
     47          1           0        5.142415    1.418861   -1.623697
     48          6           0        5.260756    2.699252    0.139034
     49          6           0        5.422494    3.424535   -2.330635
     50          1           0        4.875404    3.333378   -3.275890
     51          1           0        5.298559    4.460665   -1.995698
     52          8           0        4.518877    3.358933    0.874783
     53          6           0        6.886057    3.147205   -2.604226
     54          8           0        7.530982    2.250517   -2.092427
     55          8           0        7.393640    3.998057   -3.507312
     56          7           0        6.398126    2.116539    0.572282
     57          1           0        7.072823    1.774866   -0.111220
     58          6           0        6.798812    2.241590    1.965559
     59          1           0        6.440694    3.206012    2.340869
     60          6           0        8.319449    2.223454    2.039897
     61          6           0        6.207954    1.120038    2.863707
     62          1           0        6.488044    1.341184    3.899830
     63          1           0        6.677414    0.164055    2.594979
     64          8           0        9.051189    1.973973    1.110668
     65          6           0        4.684781    0.993626    2.726503
     66          1           0        4.448627    0.681611    1.702456
     67          1           0        4.209613    1.967437    2.880652
     68          6           0        4.095403   -0.037935    3.689811
     69          1           0        4.621965   -0.994677    3.584211
     70          1           0        4.203897    0.302165    4.728259
     71          7           0        2.673920   -0.258366    3.375954
     72          1           0        2.183406    0.432429    2.812605
     73          7           0        2.472828   -2.256306    4.549671
     74          1           0        2.030247   -3.153417    4.684097
     75          1           0        3.231035   -2.016606    5.170275
     76          7           0        0.814178   -1.583116    3.065970
     77          1           0        0.550731   -0.982876    2.270953
     78          1           0        0.186371   -2.308321    3.378266
     79          6           0        1.981303   -1.364293    3.670347
     80          8           0        8.741696    2.492973    3.291273
     81          1           0        9.717758    2.453349    3.283450
     82          1           0        8.329724    3.755286   -3.647010
 ---------------------------------------------------------------------

 SCF Done:  E(RB3LYP) =  -2166.40724349     A.U. after    1 cycles

 Alpha  occ. eigenvalues --  -19.29290 -19.28518 -19.26686 -19.23736 -19.23412
 Alpha  occ. eigenvalues --  -19.22997 -19.22306 -19.22188 -19.22155 -19.17927
 Alpha  occ. eigenvalues --  -14.52408 -14.51588 -14.50300 -14.46556 -14.45923
 Alpha  occ. eigenvalues --  -14.45837 -14.42570 -14.37202 -10.47993 -10.41831
 Alpha  occ. eigenvalues --  -10.41605 -10.39470 -10.39316 -10.39195 -10.36384
 Alpha  occ. eigenvalues --  -10.35124 -10.34522 -10.34356 -10.34123 -10.33809
 Alpha  occ. eigenvalues --  -10.31734 -10.31494 -10.30894 -10.30535 -10.29826
 Alpha  occ. eigenvalues --  -10.28803 -10.27642 -10.27428 -10.27214 -10.27060
 Alpha  occ. eigenvalues --  -10.26724 -10.26353 -10.25501  -1.20251  -1.19719
 Alpha  occ. eigenvalues --   -1.16588  -1.15267  -1.14508  -1.13648  -1.12975
 Alpha  occ. eigenvalues --   -1.11469  -1.10766  -1.10019  -1.09468  -1.05853
 Alpha  occ. eigenvalues --   -1.04508  -1.03151  -1.03044  -1.02530  -0.99354
 Alpha  occ. eigenvalues --   -0.94940  -0.93218  -0.92179  -0.89756  -0.87369
 Alpha  occ. eigenvalues --   -0.86582  -0.85332  -0.83540  -0.82347  -0.81178
 Alpha  occ. eigenvalues --   -0.79225  -0.78361  -0.78244  -0.76432  -0.74255
 Alpha  occ. eigenvalues --   -0.73262  -0.72134  -0.71689  -0.70722  -0.70466
 Alpha  occ. eigenvalues --   -0.69496  -0.68973  -0.68605  -0.68465  -0.67249
 Alpha  occ. eigenvalues --   -0.66256  -0.65405  -0.65315  -0.64792  -0.64167
 Alpha  occ. eigenvalues --   -0.62507  -0.62163  -0.61472  -0.60452  -0.60139
 Alpha  occ. eigenvalues --   -0.59669  -0.59499  -0.59297  -0.58779  -0.58479
 Alpha  occ. eigenvalues --   -0.57630  -0.57176  -0.57134  -0.56535  -0.56014
 Alpha  occ. eigenvalues --   -0.55667  -0.55133  -0.55047  -0.54460  -0.54338
 Alpha  occ. eigenvalues --   -0.53895  -0.53512  -0.53256  -0.53190  -0.52522
 Alpha  occ. eigenvalues --   -0.52377  -0.51699  -0.51362  -0.50877  -0.50657
 Alpha  occ. eigenvalues --   -0.50275  -0.50027  -0.49953  -0.49345  -0.48996
 Alpha  occ. eigenvalues --   -0.48277  -0.47708  -0.47613  -0.47507  -0.47194
 Alpha  occ. eigenvalues --   -0.47051  -0.46782  -0.46485  -0.46389  -0.45822
 Alpha  occ. eigenvalues --   -0.45506  -0.44819  -0.43532  -0.43264  -0.42983
 Alpha  occ. eigenvalues --   -0.42145  -0.41845  -0.41423  -0.41234  -0.40935
 Alpha  occ. eigenvalues --   -0.40587  -0.40345  -0.39836  -0.37631  -0.37403
 Alpha  occ. eigenvalues --   -0.37297  -0.36713  -0.36520  -0.36044  -0.35283
 Alpha  occ. eigenvalues --   -0.34990  -0.34851  -0.33025  -0.32941  -0.32545
 Alpha  occ. eigenvalues --   -0.31753  -0.29270
 Alpha virt. eigenvalues --   -0.11877  -0.09686  -0.08792  -0.08678  -0.08308
 Alpha virt. eigenvalues --   -0.08273  -0.07929  -0.07729  -0.07088  -0.04698
 Alpha virt. eigenvalues --   -0.04144  -0.04072  -0.02856  -0.01655  -0.01102

 Mulliken charges:
               1
     1  N   -0.695942
     2  H    0.306377
     3  H    0.317557
     4  C   -0.069506
     5  H    0.135311
     6  C    0.594188
     7  C   -0.341492
     8  H    0.173825
     9  H    0.167852
    10  O   -0.543668
    11  C    0.152214
    12  C   -0.180028
    13  H    0.160105
    14  C   -0.183774
    15  H    0.140680
    16  C   -0.142975
    17  H    0.140127
    18  C   -0.127295
    19  H    0.097808
    20  C   -0.139393
    21  H    0.105426
    22  N   -0.588565
    23  H    0.356975
    24  C   -0.068905
    25  H    0.188175
    26  C    0.678326
    27  C   -0.030128
    28  H    0.178154
    29  H    0.121660
    30  O   -0.576362
    31  O   -0.615729
    32  H    0.410024
    33  N   -0.621382
    34  H    0.363371
    35  C   -0.050639
    36  H    0.190677
    37  C    0.564753
    38  C   -0.038590
    39  H    0.147252
    40  H    0.170274
    41  O   -0.509683
    42  O   -0.689727
    43  H    0.461448
    44  N   -0.606153
    45  H    0.360072
    46  C   -0.050567
    47  H    0.198606
    48  C    0.593003
    49  C   -0.366316
    50  H    0.220803
    51  H    0.205656
    52  O   -0.540988
    53  C    0.603336
    54  O   -0.471702
    55  O   -0.549795
    56  N   -0.622162
    57  H    0.398920
    58  C   -0.040050
    59  H    0.211676
    60  C    0.581194
    61  C   -0.275617
    62  H    0.177994
    63  H    0.157136
    64  O   -0.441791
    65  C   -0.320809
    66  H    0.166858
    67  H    0.196847
    68  C   -0.138821
    69  H    0.174846
    70  H    0.182278
    71  N   -0.629206
    72  H    0.391976
    73  N   -0.762082
    74  H    0.381341
    75  H    0.386377
    76  N   -0.806772
    77  H    0.436497
    78  H    0.370542
    79  C    0.823603
    80  O   -0.563888
    81  H    0.430032
    82  H    0.428349
 Sum of Mulliken charges =   1.00000

 Dipole moment (field-independent basis, Debye):
    X=             14.3427    Y=              0.2183    Z=             10.8627  Tot=             17.9933
 Quadrupole moment (field-independent basis, Debye-Ang):
   XX=           -151.4029   YY=           -218.2468   ZZ=           -170.1506
   XY=             12.9195   XZ=             42.6836   YZ=            -43.1394

 Normal termination of Gaussian 16 at Sun May 15 23:40:50 2022.
