 Gaussian 16, Revision C.01,
 Gaussian 16:  ES64L-G16RevC.01  3-Jul-2019

 ----------------------------------------------------------------------
 # B3LYP/6-31G* empiricaldispersion=gd3 guess=read geom=check nosymm in
 tegral(ultrafinegrid)
 ----------------------------------------------------------------------

 ------------------------------------------------------
 Candidate Structure: Conf:883 Charge calc in gas phase
 ------------------------------------------------------
 Structure from the checkpoint file:  "conf-883.chk"
 Charge =  1 Multiplicity = 1

                          Input orientation:
 ---------------------------------------------------------------------
 Center     Atomic      Atomic             Coordinates (Angstroms)
 Number     Number       Type             X           Y           Z
 ---------------------------------------------------------------------
      1          7           0       -3.303929   -3.836840   -0.022970
      2          1           0       -4.087603   -3.825418    0.627528
      3          1           0       -3.692899   -4.006616   -0.948195
      4          6           0       -2.611028   -2.544340    0.016864
      5          1           0       -3.292316   -1.675740   -0.053959
      6          6           0       -1.615110   -2.467609   -1.162115
      7          6           0       -1.778527   -2.425636    1.301839
      8          1           0       -1.029365   -3.217673    1.230140
      9          1           0       -1.247571   -1.466001    1.252247
     10          8           0       -0.406893   -2.636721   -1.010206
     11          6           0       -2.509280   -2.544655    2.618386
     12          6           0       -2.807241   -1.409029    3.387518
     13          1           0       -2.568941   -0.421671    2.997235
     14          6           0       -2.827077   -3.812313    3.140966
     15          1           0       -2.601819   -4.696004    2.549941
     16          6           0       -3.402681   -1.530136    4.646599
     17          1           0       -3.624185   -0.638995    5.226693
     18          6           0       -3.429168   -3.934667    4.396562
     19          1           0       -3.678538   -4.919986    4.781156
     20          6           0       -3.711890   -2.792576    5.156103
     21          1           0       -4.177348   -2.888493    6.132711
     22          7           0       -2.175090   -2.219784   -2.382791
     23          1           0       -3.099814   -1.800810   -2.394544
     24          6           0       -1.329619   -1.919683   -3.555117
     25          1           0       -0.465155   -2.583720   -3.491601
     26          6           0       -0.911844   -0.441676   -3.465475
     27          6           0       -2.099103   -2.224224   -4.841710
     28          1           0       -1.487501   -1.930946   -5.698570
     29          1           0       -3.014440   -1.613478   -4.877960
     30          8           0       -1.574264    0.446452   -3.993902
     31          8           0       -2.358192   -3.608853   -4.980577
     32          1           0       -2.867362   -3.894553   -4.205943
     33          7           0        0.190377   -0.213920   -2.704026
     34          1           0        0.631670   -0.978826   -2.201937
     35          6           0        0.599913    1.125048   -2.339921
     36          1           0        0.586388    1.767946   -3.225596
     37          6           0        1.987437    1.063263   -1.720298
     38          6           0       -0.387086    1.733348   -1.289149
     39          1           0       -0.453552    1.027162   -0.446521
     40          1           0       -1.363765    1.795440   -1.775367
     41          8           0        2.454733    0.025630   -1.250669
     42          8           0       -0.021344    3.029550   -0.863714
     43          1           0        0.585711    2.925357   -0.102732
     44          7           0        2.626007    2.268018   -1.625941
     45          1           0        2.032811    3.078844   -1.779785
     46          6           0        3.675479    2.407317   -0.630947
     47          1           0        4.473666    1.702060   -0.879481
     48          6           0        3.108139    2.078979    0.762188
     49          6           0        4.250900    3.828119   -0.655719
     50          1           0        3.460110    4.582356   -0.599434
     51          1           0        4.896916    3.976742    0.218646
     52          8           0        1.941245    2.331327    1.074708
     53          6           0        5.114222    4.032509   -1.891376
     54          8           0        5.830147    3.182023   -2.367967
     55          8           0        5.005807    5.287038   -2.369100
     56          7           0        3.978490    1.503893    1.627449
     57          1           0        4.911800    1.276990    1.311069
     58          6           0        3.565413    1.080896    2.953685
     59          1           0        2.695512    1.699497    3.205016
     60          6           0        4.623332    1.354571    4.019922
     61          6           0        3.140037   -0.402050    3.011433
     62          1           0        2.753557   -0.573903    4.022820
     63          1           0        4.035373   -1.031857    2.893847
     64          8           0        4.634877    0.798039    5.094694
     65          6           0        2.107983   -0.779126    1.946023
     66          1           0        2.528794   -0.655924    0.943691
     67          1           0        1.249003   -0.098451    1.992309
     68          6           0        1.621683   -2.223024    2.063103
     69          1           0        1.045508   -2.493552    1.173365
     70          1           0        2.455300   -2.929485    2.131500
     71          7           0        0.740469   -2.437836    3.230776
     72          1           0       -0.216436   -2.114177    3.141199
     73          7           0        2.280962   -3.336896    4.730731
     74          1           0        2.484788   -3.989165    5.473718
     75          1           0        3.052852   -2.819654    4.335620
     76          7           0        0.004626   -3.480487    5.154103
     77          1           0       -0.951648   -3.514179    4.810809
     78          1           0        0.159799   -3.692874    6.128872
     79          6           0        1.014042   -3.076643    4.364208
     80          8           0        5.526141    2.279446    3.639009
     81          1           0        6.141350    2.404169    4.387851
     82          1           0        5.609344    5.358305   -3.134039
 ---------------------------------------------------------------------

 SCF Done:  E(RB3LYP) =  -2166.39278665     A.U. after    2 cycles

 Alpha  occ. eigenvalues --  -19.30263 -19.27574 -19.24384 -19.23060 -19.22204
 Alpha  occ. eigenvalues --  -19.21804 -19.21382 -19.21187 -19.21162 -19.18787
 Alpha  occ. eigenvalues --  -14.52455 -14.51877 -14.51785 -14.47492 -14.46381
 Alpha  occ. eigenvalues --  -14.44705 -14.43205 -14.41854 -10.48552 -10.42746
 Alpha  occ. eigenvalues --  -10.40324 -10.39758 -10.38924 -10.37611 -10.36068
 Alpha  occ. eigenvalues --  -10.35046 -10.35042 -10.33442 -10.33071 -10.31177
 Alpha  occ. eigenvalues --  -10.31022 -10.30997 -10.30836 -10.30719 -10.30375
 Alpha  occ. eigenvalues --  -10.30305 -10.30277 -10.30178 -10.30102 -10.30070
 Alpha  occ. eigenvalues --  -10.29967 -10.29552 -10.29365  -1.21123  -1.18440
 Alpha  occ. eigenvalues --   -1.16909  -1.15003  -1.13921  -1.12806  -1.12154
 Alpha  occ. eigenvalues --   -1.10730  -1.09556  -1.08918  -1.08690  -1.06103
 Alpha  occ. eigenvalues --   -1.05042  -1.04019  -1.02156  -1.01842  -0.99841
 Alpha  occ. eigenvalues --   -0.99141  -0.96625  -0.91921  -0.89089  -0.88807
 Alpha  occ. eigenvalues --   -0.86912  -0.85605  -0.85377  -0.82951  -0.81926
 Alpha  occ. eigenvalues --   -0.81598  -0.78813  -0.77804  -0.75355  -0.74346
 Alpha  occ. eigenvalues --   -0.73292  -0.73227  -0.71648  -0.71603  -0.70718
 Alpha  occ. eigenvalues --   -0.70408  -0.70068  -0.69413  -0.68066  -0.67462
 Alpha  occ. eigenvalues --   -0.67137  -0.66079  -0.65379  -0.65273  -0.64073
 Alpha  occ. eigenvalues --   -0.62550  -0.62082  -0.61313  -0.61079  -0.60611
 Alpha  occ. eigenvalues --   -0.59738  -0.59351  -0.59180  -0.58354  -0.57991
 Alpha  occ. eigenvalues --   -0.57701  -0.57276  -0.57094  -0.56684  -0.56269
 Alpha  occ. eigenvalues --   -0.55966  -0.55958  -0.55581  -0.55386  -0.55098
 Alpha  occ. eigenvalues --   -0.54294  -0.53950  -0.53492  -0.53463  -0.52888
 Alpha  occ. eigenvalues --   -0.52030  -0.51945  -0.51511  -0.51387  -0.50777
 Alpha  occ. eigenvalues --   -0.50652  -0.50173  -0.49584  -0.49191  -0.48812
 Alpha  occ. eigenvalues --   -0.48281  -0.48175  -0.48018  -0.47645  -0.47323
 Alpha  occ. eigenvalues --   -0.47135  -0.46905  -0.46564  -0.46334  -0.45962
 Alpha  occ. eigenvalues --   -0.45662  -0.45371  -0.45231  -0.44792  -0.44286
 Alpha  occ. eigenvalues --   -0.43791  -0.43377  -0.42203  -0.40688  -0.40608
 Alpha  occ. eigenvalues --   -0.40044  -0.39633  -0.38955  -0.37702  -0.37416
 Alpha  occ. eigenvalues --   -0.36755  -0.36588  -0.36333  -0.36086  -0.35614
 Alpha  occ. eigenvalues --   -0.35277  -0.35037  -0.34431  -0.34045  -0.33863
 Alpha  occ. eigenvalues --   -0.31859  -0.31343
 Alpha virt. eigenvalues --   -0.12769  -0.11956  -0.11795  -0.09784  -0.09131
 Alpha virt. eigenvalues --   -0.09027  -0.07826  -0.07749  -0.06197  -0.05186
 Alpha virt. eigenvalues --   -0.04399  -0.04199  -0.02826  -0.02452  -0.01853

 Mulliken charges:
               1
     1  N   -0.716881
     2  H    0.319529
     3  H    0.313124
     4  C   -0.077384
     5  H    0.138776
     6  C    0.643959
     7  C   -0.352392
     8  H    0.185734
     9  H    0.145252
    10  O   -0.519710
    11  C    0.092937
    12  C   -0.198239
    13  H    0.151822
    14  C   -0.214185
    15  H    0.176597
    16  C   -0.124742
    17  H    0.163750
    18  C   -0.157230
    19  H    0.163540
    20  C   -0.139418
    21  H    0.163394
    22  N   -0.628012
    23  H    0.340527
    24  C   -0.094661
    25  H    0.196065
    26  C    0.621534
    27  C   -0.039201
    28  H    0.180922
    29  H    0.147346
    30  O   -0.525448
    31  O   -0.603143
    32  H    0.389405
    33  N   -0.623717
    34  H    0.371166
    35  C   -0.059079
    36  H    0.197532
    37  C    0.610369
    38  C   -0.048827
    39  H    0.117172
    40  H    0.187284
    41  O   -0.540859
    42  O   -0.647060
    43  H    0.433366
    44  N   -0.589737
    45  H    0.352593
    46  C   -0.066993
    47  H    0.205686
    48  C    0.656877
    49  C   -0.387554
    50  H    0.198618
    51  H    0.203525
    52  O   -0.558995
    53  C    0.596332
    54  O   -0.445504
    55  O   -0.554486
    56  N   -0.597459
    57  H    0.351674
    58  C   -0.062009
    59  H    0.223821
    60  C    0.594392
    61  C   -0.285030
    62  H    0.158041
    63  H    0.140868
    64  O   -0.458699
    65  C   -0.294710
    66  H    0.223898
    67  H    0.163664
    68  C   -0.209385
    69  H    0.237990
    70  H    0.171470
    71  N   -0.597388
    72  H    0.379848
    73  N   -0.757978
    74  H    0.381160
    75  H    0.392050
    76  N   -0.779415
    77  H    0.399503
    78  H    0.374354
    79  C    0.803272
    80  O   -0.560383
    81  H    0.430251
    82  H    0.424923
 Sum of Mulliken charges =   1.00000

 Dipole moment (field-independent basis, Debye):
    X=              4.3937    Y=             -8.2802    Z=             19.2076  Tot=             21.3729
 Quadrupole moment (field-independent basis, Debye-Ang):
   XX=           -173.9700   YY=           -195.2578   ZZ=           -166.0084
   XY=             36.3987   XZ=             13.6282   YZ=            -61.9388

 Normal termination of Gaussian 16 at Sun May 15 23:41:17 2022.
