 Gaussian 16, Revision C.01,
 Gaussian 16:  ES64L-G16RevC.01  3-Jul-2019

 ----------------------------------------------------------------------
 # B3LYP/6-31G* empiricaldispersion=gd3 guess=read geom=check nosymm in
 tegral(ultrafinegrid)
 ----------------------------------------------------------------------

 -----------------------------------------------------
 Candidate Structure: Conf:90 Charge calc in gas phase
 -----------------------------------------------------
 Structure from the checkpoint file:  "conf-90.chk"
 Charge =  1 Multiplicity = 1

                          Input orientation:
 ---------------------------------------------------------------------
 Center     Atomic      Atomic             Coordinates (Angstroms)
 Number     Number       Type             X           Y           Z
 ---------------------------------------------------------------------
      1          7           0       -2.827517   -2.318644   -0.262883
      2          1           0       -3.783542   -2.604753   -0.052469
      3          1           0       -2.324261   -3.158231   -0.548168
      4          6           0       -2.870135   -1.366994   -1.390545
      5          1           0       -3.506505   -1.717654   -2.214844
      6          6           0       -1.442737   -1.174913   -1.924085
      7          6           0       -3.438748   -0.021081   -0.868722
      8          1           0       -4.402679   -0.243757   -0.390919
      9          1           0       -2.773198    0.349840   -0.080357
     10          8           0       -0.461426   -1.539440   -1.268829
     11          6           0       -3.644188    1.004273   -1.960439
     12          6           0       -2.844420    2.149543   -2.048306
     13          1           0       -2.079291    2.340721   -1.298326
     14          6           0       -4.608300    0.763835   -2.957749
     15          1           0       -5.250445   -0.112255   -2.886270
     16          6           0       -3.004062    3.027902   -3.122463
     17          1           0       -2.382201    3.909900   -3.201516
     18          6           0       -4.759453    1.640126   -4.031067
     19          1           0       -5.509746    1.441934   -4.791458
     20          6           0       -3.949189    2.776509   -4.116383
     21          1           0       -4.054964    3.462626   -4.951845
     22          7           0       -1.325731   -0.605895   -3.153825
     23          1           0       -2.092619    0.001954   -3.438942
     24          6           0       -0.007914   -0.323401   -3.751248
     25          1           0        0.629361   -1.166487   -3.477908
     26          6           0        0.534790    0.980198   -3.116575
     27          6           0       -0.126986   -0.257116   -5.273213
     28          1           0        0.862094   -0.055551   -5.694544
     29          1           0       -0.781716    0.582702   -5.553721
     30          8           0        0.100347    2.076540   -3.433122
     31          8           0       -0.554453   -1.491277   -5.817217
     32          1           0       -1.417682   -1.704340   -5.427076
     33          7           0        1.355158    0.764082   -2.028688
     34          1           0        1.872082   -0.105137   -1.976995
     35          6           0        1.815716    1.826032   -1.148980
     36          1           0        1.430467    2.762274   -1.558356
     37          6           0        3.344659    1.715927   -0.981749
     38          6           0        1.260826    1.538516    0.290173
     39          1           0        1.268491    2.439197    0.905370
     40          1           0        1.923076    0.823069    0.773909
     41          8           0        3.926301    0.672895   -1.305310
     42          8           0       -0.063018    0.989322    0.279003
     43          1           0       -0.104043    0.475559   -0.548052
     44          7           0        3.946972    2.686531   -0.251375
     45          1           0        3.524459    3.604063   -0.146474
     46          6           0        5.151024    2.406850    0.536101
     47          1           0        5.964586    2.119289   -0.139195
     48          6           0        4.820476    1.269037    1.544945
     49          6           0        5.539440    3.636660    1.381779
     50          1           0        4.783687    3.753853    2.166930
     51          1           0        6.507167    3.456019    1.854389
     52          8           0        3.882274    1.409784    2.326754
     53          6           0        5.566069    4.930669    0.592934
     54          8           0        4.599051    5.390494    0.013536
     55          8           0        6.767920    5.528927    0.613928
     56          7           0        5.600800    0.161042    1.508949
     57          1           0        6.303263    0.070247    0.787809
     58          6           0        5.353846   -0.962305    2.401821
     59          1           0        4.818414   -0.544274    3.260898
     60          6           0        6.636482   -1.591768    2.950247
     61          6           0        4.480086   -2.075438    1.779897
     62          1           0        4.301817   -2.825545    2.558544
     63          1           0        5.047023   -2.583835    0.986862
     64          8           0        6.633197   -2.644945    3.547774
     65          6           0        3.181183   -1.510862    1.200003
     66          1           0        3.449718   -0.868379    0.356277
     67          1           0        2.687987   -0.872423    1.940418
     68          6           0        2.205977   -2.558598    0.660399
     69          1           0        1.529378   -2.149388   -0.091823
     70          1           0        2.770469   -3.354678    0.158575
     71          7           0        1.368989   -3.217697    1.674202
     72          1           0        1.814162   -3.908661    2.265266
     73          7           0       -0.521573   -1.820939    1.556484
     74          1           0       -1.506102   -1.883361    1.302331
     75          1           0       -0.063082   -1.012583    1.131767
     76          7           0       -0.611523   -3.829436    2.680164
     77          1           0       -0.351357   -4.804290    2.685156
     78          1           0       -1.491805   -3.569778    3.100704
     79          6           0        0.090732   -2.925926    1.957011
     80          8           0        7.755364   -0.882104    2.692216
     81          1           0        8.500496   -1.379293    3.083923
     82          1           0        6.688689    6.361632    0.107022
 ---------------------------------------------------------------------

 SCF Done:  E(RB3LYP) =  -2166.39878838     A.U. after    1 cycles

 Alpha  occ. eigenvalues --  -19.29030 -19.28593 -19.24547 -19.23488 -19.23024
 Alpha  occ. eigenvalues --  -19.22871 -19.22409 -19.21841 -19.21287 -19.21213
 Alpha  occ. eigenvalues --  -14.50740 -14.50507 -14.48023 -14.46915 -14.46456
 Alpha  occ. eigenvalues --  -14.45573 -14.45462 -14.44403 -10.46304 -10.41410
 Alpha  occ. eigenvalues --  -10.41371 -10.40128 -10.38848 -10.38648 -10.38394
 Alpha  occ. eigenvalues --  -10.34337 -10.34141 -10.33785 -10.33717 -10.33112
 Alpha  occ. eigenvalues --  -10.32717 -10.32637 -10.31709 -10.29871 -10.29148
 Alpha  occ. eigenvalues --  -10.28936 -10.28510 -10.28067 -10.27107 -10.26851
 Alpha  occ. eigenvalues --  -10.26661 -10.26427 -10.26349  -1.19737  -1.19526
 Alpha  occ. eigenvalues --   -1.15353  -1.14713  -1.14025  -1.13241  -1.12686
 Alpha  occ. eigenvalues --   -1.11473  -1.10674  -1.10522  -1.09963  -1.04400
 Alpha  occ. eigenvalues --   -1.02998  -1.02715  -1.02332  -1.02050  -1.01542
 Alpha  occ. eigenvalues --   -1.00635  -0.93644  -0.90726  -0.89121  -0.87849
 Alpha  occ. eigenvalues --   -0.86176  -0.85815  -0.83866  -0.82194  -0.80546
 Alpha  occ. eigenvalues --   -0.80333  -0.78071  -0.76545  -0.75180  -0.74642
 Alpha  occ. eigenvalues --   -0.72262  -0.71963  -0.71696  -0.70597  -0.69451
 Alpha  occ. eigenvalues --   -0.69399  -0.68788  -0.68579  -0.68313  -0.67872
 Alpha  occ. eigenvalues --   -0.67490  -0.66456  -0.63999  -0.63525  -0.63157
 Alpha  occ. eigenvalues --   -0.62384  -0.61896  -0.61267  -0.60426  -0.60184
 Alpha  occ. eigenvalues --   -0.59637  -0.59572  -0.59003  -0.58344  -0.57914
 Alpha  occ. eigenvalues --   -0.57518  -0.57199  -0.57126  -0.56642  -0.56422
 Alpha  occ. eigenvalues --   -0.56178  -0.55372  -0.54660  -0.54523  -0.54451
 Alpha  occ. eigenvalues --   -0.53467  -0.53267  -0.52904  -0.52756  -0.52377
 Alpha  occ. eigenvalues --   -0.52251  -0.51824  -0.51444  -0.51135  -0.50573
 Alpha  occ. eigenvalues --   -0.50337  -0.49776  -0.49531  -0.49261  -0.49011
 Alpha  occ. eigenvalues --   -0.48699  -0.48138  -0.48057  -0.47837  -0.47483
 Alpha  occ. eigenvalues --   -0.47255  -0.47213  -0.46947  -0.46495  -0.46183
 Alpha  occ. eigenvalues --   -0.45752  -0.44423  -0.44141  -0.43410  -0.42847
 Alpha  occ. eigenvalues --   -0.41991  -0.41711  -0.41372  -0.41080  -0.40747
 Alpha  occ. eigenvalues --   -0.40651  -0.39502  -0.38987  -0.37656  -0.37281
 Alpha  occ. eigenvalues --   -0.37014  -0.36937  -0.36777  -0.36237  -0.36129
 Alpha  occ. eigenvalues --   -0.35667  -0.35111  -0.34703  -0.33842  -0.33441
 Alpha  occ. eigenvalues --   -0.32605  -0.32349
 Alpha virt. eigenvalues --   -0.11266  -0.10228  -0.09367  -0.08634  -0.08369
 Alpha virt. eigenvalues --   -0.08283  -0.08148  -0.07562  -0.06893  -0.06448
 Alpha virt. eigenvalues --   -0.03785  -0.02961  -0.02183  -0.01729  -0.00590

 Mulliken charges:
               1
     1  N   -0.748355
     2  H    0.323452
     3  H    0.321507
     4  C   -0.064790
     5  H    0.160995
     6  C    0.601581
     7  C   -0.357705
     8  H    0.165925
     9  H    0.180759
    10  O   -0.554548
    11  C    0.108755
    12  C   -0.189405
    13  H    0.150967
    14  C   -0.194422
    15  H    0.130031
    16  C   -0.107468
    17  H    0.157073
    18  C   -0.130745
    19  H    0.151045
    20  C   -0.133212
    21  H    0.153320
    22  N   -0.610251
    23  H    0.370508
    24  C   -0.073517
    25  H    0.172514
    26  C    0.599927
    27  C   -0.044937
    28  H    0.175643
    29  H    0.159938
    30  O   -0.495208
    31  O   -0.603971
    32  H    0.395236
    33  N   -0.627325
    34  H    0.354504
    35  C   -0.089712
    36  H    0.208398
    37  C    0.611386
    38  C   -0.059958
    39  H    0.179536
    40  H    0.163200
    41  O   -0.533857
    42  O   -0.666803
    43  H    0.449736
    44  N   -0.602941
    45  H    0.372199
    46  C   -0.025199
    47  H    0.176006
    48  C    0.631826
    49  C   -0.395276
    50  H    0.221331
    51  H    0.199910
    52  O   -0.534008
    53  C    0.593878
    54  O   -0.464613
    55  O   -0.546414
    56  N   -0.592323
    57  H    0.351325
    58  C   -0.065935
    59  H    0.221509
    60  C    0.595260
    61  C   -0.271425
    62  H    0.164310
    63  H    0.153747
    64  O   -0.451949
    65  C   -0.309895
    66  H    0.196047
    67  H    0.176849
    68  C   -0.201953
    69  H    0.210974
    70  H    0.179623
    71  N   -0.590192
    72  H    0.356810
    73  N   -0.751183
    74  H    0.391159
    75  H    0.395461
    76  N   -0.763996
    77  H    0.371388
    78  H    0.378751
    79  C    0.781092
    80  O   -0.566709
    81  H    0.428304
    82  H    0.426504
 Sum of Mulliken charges =   1.00000

 Dipole moment (field-independent basis, Debye):
    X=              4.1471    Y=             -7.4642    Z=              3.1864  Tot=              9.1140
 Quadrupole moment (field-independent basis, Debye-Ang):
   XX=           -142.0726   YY=           -183.7287   ZZ=           -234.6927
   XY=             34.4882   XZ=             23.3662   YZ=            -23.1919

 Normal termination of Gaussian 16 at Sun May 15 23:39:42 2022.
