 Gaussian 16, Revision C.01,
 Gaussian 16:  ES64L-G16RevC.01  3-Jul-2019

 ----------------------------------------------------------------------
 # B3LYP/6-31G* empiricaldispersion=gd3 guess=read geom=check nosymm in
 tegral(ultrafinegrid)
 ----------------------------------------------------------------------

 ------------------------------------------------------
 Candidate Structure: Conf:472 Charge calc in gas phase
 ------------------------------------------------------
 Structure from the checkpoint file:  "conf-472.chk"
 Charge =  1 Multiplicity = 1

                          Input orientation:
 ---------------------------------------------------------------------
 Center     Atomic      Atomic             Coordinates (Angstroms)
 Number     Number       Type             X           Y           Z
 ---------------------------------------------------------------------
      1          7           0       -5.226771   -0.783906   -3.695233
      2          1           0       -4.939346   -0.827454   -4.672040
      3          1           0       -5.101535   -1.722351   -3.314668
      4          6           0       -4.378912    0.144385   -2.947046
      5          1           0       -4.432547    1.120330   -3.447155
      6          6           0       -2.921510   -0.347590   -2.913820
      7          6           0       -4.926832    0.292032   -1.513404
      8          1           0       -5.960736    0.643663   -1.591514
      9          1           0       -4.953158   -0.704662   -1.059102
     10          8           0       -2.616711   -1.404134   -2.355712
     11          6           0       -4.083232    1.225504   -0.675046
     12          6           0       -3.178525    0.715394    0.260311
     13          1           0       -3.125877   -0.359302    0.400662
     14          6           0       -4.146936    2.616891   -0.850728
     15          1           0       -4.854028    3.032711   -1.565439
     16          6           0       -2.345746    1.563735    0.993580
     17          1           0       -1.637287    1.122163    1.689629
     18          6           0       -3.321901    3.471767   -0.119605
     19          1           0       -3.385278    4.545690   -0.270691
     20          6           0       -2.411810    2.946191    0.803140
     21          1           0       -1.760729    3.619860    1.357332
     22          7           0       -2.010233    0.384322   -3.625413
     23          1           0       -2.219083    1.359003   -3.811596
     24          6           0       -0.609427   -0.036233   -3.733354
     25          1           0       -0.622448   -1.123407   -3.845784
     26          6           0        0.151603    0.357133   -2.462374
     27          6           0        0.024301    0.576116   -4.989199
     28          1           0        1.082971    0.304649   -5.021641
     29          1           0       -0.024906    1.674916   -4.927447
     30          8           0        0.716155    1.451029   -2.357406
     31          8           0       -0.560750    0.066231   -6.169252
     32          1           0       -1.511725    0.259039   -6.142039
     33          7           0        0.137916   -0.578287   -1.475691
     34          1           0       -0.549187   -1.320576   -1.600117
     35          6           0        0.521136   -0.245143   -0.102177
     36          1           0        0.172160    0.772866    0.107968
     37          6           0        2.051342   -0.255471    0.134797
     38          6           0       -0.147579   -1.212325    0.882454
     39          1           0        0.212214   -2.232907    0.700154
     40          1           0       -1.228099   -1.196861    0.731606
     41          8           0        2.555041   -1.030767    0.962720
     42          8           0        0.106493   -0.814983    2.224232
     43          1           0        1.050469   -1.027798    2.353178
     44          7           0        2.749603    0.673917   -0.544429
     45          1           0        2.234520    1.227100   -1.234248
     46          6           0        4.198772    0.854107   -0.389988
     47          1           0        4.675981   -0.127512   -0.328581
     48          6           0        4.429181    1.638098    0.924738
     49          6           0        4.752656    1.635482   -1.575467
     50          1           0        4.489104    1.147175   -2.521188
     51          1           0        4.338763    2.648408   -1.595464
     52          8           0        4.486231    2.863197    0.945000
     53          6           0        6.260396    1.735717   -1.473857
     54          8           0        6.934945    1.164712   -0.644787
     55          8           0        6.765744    2.536496   -2.432350
     56          7           0        4.449655    0.855123    2.037457
     57          1           0        4.230864   -0.128453    1.919302
     58          6           0        4.322669    1.427815    3.358967
     59          1           0        4.722245    2.445259    3.312991
     60          6           0        5.111629    0.694925    4.439649
     61          6           0        2.839316    1.492649    3.807222
     62          1           0        2.814022    1.833670    4.849086
     63          1           0        2.423866    0.475659    3.793407
     64          8           0        5.147907    1.086644    5.585294
     65          6           0        2.003799    2.397466    2.895207
     66          1           0        2.086889    2.059623    1.858764
     67          1           0        2.397735    3.421891    2.903194
     68          6           0        0.511904    2.388960    3.215897
     69          1           0       -0.021411    3.005253    2.482468
     70          1           0        0.135379    1.361254    3.161890
     71          7           0        0.244095    2.911285    4.570126
     72          1           0        0.963830    3.487367    4.990624
     73          7           0       -2.009568    2.350994    4.553921
     74          1           0       -2.907645    2.310030    5.014912
     75          1           0       -2.014775    2.165283    3.558273
     76          7           0       -1.079762    3.382828    6.415726
     77          1           0       -0.262360    3.519707    6.995354
     78          1           0       -1.953802    3.291119    6.915013
     79          6           0       -0.944000    2.879007    5.171283
     80          8           0        5.690868   -0.440073    4.008987
     81          1           0        6.150242   -0.837168    4.774516
     82          1           0        7.734656    2.551661   -2.310191
 ---------------------------------------------------------------------

 SCF Done:  E(RB3LYP) =  -2166.39212803     A.U. after    1 cycles

 Alpha  occ. eigenvalues --  -19.28120 -19.26175 -19.24501 -19.22399 -19.22338
 Alpha  occ. eigenvalues --  -19.22113 -19.22022 -19.21600 -19.20675 -19.19436
 Alpha  occ. eigenvalues --  -14.53601 -14.53550 -14.53383 -14.46587 -14.46105
 Alpha  occ. eigenvalues --  -14.45393 -14.43698 -14.40263 -10.49936 -10.40465
 Alpha  occ. eigenvalues --  -10.39056 -10.38880 -10.38725 -10.38162 -10.36616
 Alpha  occ. eigenvalues --  -10.35904 -10.33144 -10.33110 -10.32679 -10.32500
 Alpha  occ. eigenvalues --  -10.32002 -10.31819 -10.31643 -10.30375 -10.29678
 Alpha  occ. eigenvalues --  -10.29571 -10.29490 -10.29355 -10.28978 -10.28691
 Alpha  occ. eigenvalues --  -10.28674 -10.27961 -10.27642  -1.18926  -1.18341
 Alpha  occ. eigenvalues --   -1.17162  -1.14400  -1.13698  -1.13032  -1.11590
 Alpha  occ. eigenvalues --   -1.11155  -1.10006  -1.09879  -1.08270  -1.07487
 Alpha  occ. eigenvalues --   -1.06554  -1.02770  -1.02179  -1.01648  -1.00937
 Alpha  occ. eigenvalues --   -0.97740  -0.95391  -0.91827  -0.88386  -0.87534
 Alpha  occ. eigenvalues --   -0.86598  -0.85858  -0.84450  -0.83830  -0.81484
 Alpha  occ. eigenvalues --   -0.80585  -0.79417  -0.77524  -0.75668  -0.74766
 Alpha  occ. eigenvalues --   -0.74047  -0.73554  -0.72271  -0.70829  -0.70410
 Alpha  occ. eigenvalues --   -0.69785  -0.69300  -0.68420  -0.67746  -0.67184
 Alpha  occ. eigenvalues --   -0.66511  -0.66460  -0.66313  -0.65806  -0.63225
 Alpha  occ. eigenvalues --   -0.62450  -0.62058  -0.61381  -0.61112  -0.60896
 Alpha  occ. eigenvalues --   -0.60585  -0.59710  -0.58935  -0.58694  -0.58140
 Alpha  occ. eigenvalues --   -0.57942  -0.56983  -0.56955  -0.56522  -0.56234
 Alpha  occ. eigenvalues --   -0.55455  -0.55314  -0.54894  -0.54668  -0.54325
 Alpha  occ. eigenvalues --   -0.53905  -0.53358  -0.53141  -0.52615  -0.52479
 Alpha  occ. eigenvalues --   -0.52334  -0.51628  -0.51217  -0.50882  -0.50294
 Alpha  occ. eigenvalues --   -0.49872  -0.49682  -0.49520  -0.48710  -0.48348
 Alpha  occ. eigenvalues --   -0.48087  -0.47962  -0.47609  -0.47205  -0.47009
 Alpha  occ. eigenvalues --   -0.46644  -0.46361  -0.45787  -0.45527  -0.45423
 Alpha  occ. eigenvalues --   -0.45108  -0.44807  -0.44555  -0.44458  -0.44221
 Alpha  occ. eigenvalues --   -0.43959  -0.43393  -0.43042  -0.41804  -0.41312
 Alpha  occ. eigenvalues --   -0.39820  -0.38455  -0.38358  -0.37969  -0.37467
 Alpha  occ. eigenvalues --   -0.36817  -0.36549  -0.36367  -0.35780  -0.35134
 Alpha  occ. eigenvalues --   -0.34653  -0.34476  -0.34357  -0.33549  -0.33198
 Alpha  occ. eigenvalues --   -0.32154  -0.31866
 Alpha virt. eigenvalues --   -0.13640  -0.11038  -0.10377  -0.09622  -0.09071
 Alpha virt. eigenvalues --   -0.08523  -0.07597  -0.07455  -0.05807  -0.05574
 Alpha virt. eigenvalues --   -0.05408  -0.04982  -0.04242  -0.02928  -0.02256

 Mulliken charges:
               1
     1  N   -0.692349
     2  H    0.310677
     3  H    0.320787
     4  C   -0.061406
     5  H    0.136467
     6  C    0.617642
     7  C   -0.342885
     8  H    0.181174
     9  H    0.166742
    10  O   -0.546797
    11  C    0.153062
    12  C   -0.193644
    13  H    0.161135
    14  C   -0.187273
    15  H    0.149982
    16  C   -0.181411
    17  H    0.145966
    18  C   -0.125119
    19  H    0.153570
    20  C   -0.151537
    21  H    0.125214
    22  N   -0.619289
    23  H    0.341973
    24  C   -0.089754
    25  H    0.197900
    26  C    0.632263
    27  C   -0.040255
    28  H    0.173286
    29  H    0.147934
    30  O   -0.548123
    31  O   -0.598824
    32  H    0.394020
    33  N   -0.613494
    34  H    0.377077
    35  C   -0.071856
    36  H    0.177287
    37  C    0.634903
    38  C   -0.081133
    39  H    0.172922
    40  H    0.166867
    41  O   -0.564144
    42  O   -0.648383
    43  H    0.429045
    44  N   -0.642171
    45  H    0.395863
    46  C   -0.036651
    47  H    0.196824
    48  C    0.647072
    49  C   -0.393481
    50  H    0.192870
    51  H    0.211670
    52  O   -0.540338
    53  C    0.609231
    54  O   -0.458705
    55  O   -0.564738
    56  N   -0.595831
    57  H    0.368845
    58  C   -0.063404
    59  H    0.216093
    60  C    0.596074
    61  C   -0.275129
    62  H    0.156616
    63  H    0.150079
    64  O   -0.462967
    65  C   -0.323114
    66  H    0.191552
    67  H    0.177631
    68  C   -0.199443
    69  H    0.188216
    70  H    0.224183
    71  N   -0.600431
    72  H    0.368707
    73  N   -0.760960
    74  H    0.382170
    75  H    0.402546
    76  N   -0.758959
    77  H    0.385566
    78  H    0.382098
    79  C    0.827909
    80  O   -0.552910
    81  H    0.425870
    82  H    0.421331
 Sum of Mulliken charges =   1.00000

 Dipole moment (field-independent basis, Debye):
    X=             -6.4890    Y=             10.8350    Z=             14.1085  Tot=             18.9356
 Quadrupole moment (field-independent basis, Debye-Ang):
   XX=           -212.5966   YY=           -214.1955   ZZ=           -122.3536
   XY=            -23.1492   XZ=            -15.9721   YZ=             47.6520

 Normal termination of Gaussian 16 at Sun May 15 23:40:54 2022.
