 Gaussian 16, Revision C.01,
 Gaussian 16:  ES64L-G16RevC.01  3-Jul-2019

 ----------------------------------------------------------------------
 # B3LYP/6-31G* empiricaldispersion=gd3 guess=read geom=check nosymm in
 tegral(ultrafinegrid)
 ----------------------------------------------------------------------

 ------------------------------------------------------
 Candidate Structure: Conf:669 Charge calc in gas phase
 ------------------------------------------------------
 Structure from the checkpoint file:  "conf-669.chk"
 Charge =  1 Multiplicity = 1

                          Input orientation:
 ---------------------------------------------------------------------
 Center     Atomic      Atomic             Coordinates (Angstroms)
 Number     Number       Type             X           Y           Z
 ---------------------------------------------------------------------
      1          7           0       -4.110044    0.370175   -4.464949
      2          1           0       -5.101481    0.361414   -4.699189
      3          1           0       -3.667508    1.072855   -5.054752
      4          6           0       -3.953062    0.697208   -3.041938
      5          1           0       -4.270889    1.726453   -2.784160
      6          6           0       -2.454768    0.570412   -2.746283
      7          6           0       -4.762758   -0.284522   -2.176511
      8          1           0       -4.396641   -1.293113   -2.387104
      9          1           0       -4.543318   -0.073729   -1.122948
     10          8           0       -1.946927   -0.449511   -2.271169
     11          6           0       -6.248638   -0.175616   -2.436650
     12          6           0       -6.886003   -1.044812   -3.333093
     13          1           0       -6.307818   -1.830458   -3.813594
     14          6           0       -7.009466    0.829021   -1.822048
     15          1           0       -6.529692    1.507756   -1.119234
     16          6           0       -8.248950   -0.912935   -3.608920
     17          1           0       -8.727351   -1.598196   -4.303317
     18          6           0       -8.370928    0.962868   -2.093852
     19          1           0       -8.946540    1.743672   -1.603927
     20          6           0       -8.994794    0.091316   -2.990113
     21          1           0      -10.055769    0.192390   -3.200554
     22          7           0       -1.715682    1.669407   -3.078352
     23          1           0       -2.192951    2.387097   -3.612805
     24          6           0       -0.281676    1.591296   -3.382526
     25          1           0       -0.096579    0.649012   -3.917244
     26          6           0        0.605922    1.595481   -2.123306
     27          6           0        0.092165    2.769510   -4.283997
     28          1           0        1.120362    2.630251   -4.639489
     29          1           0        0.064199    3.699989   -3.700275
     30          8           0        1.485996    2.447556   -1.945962
     31          8           0       -0.855528    2.781799   -5.347462
     32          1           0       -0.652576    3.529684   -5.929285
     33          7           0        0.379365    0.578491   -1.263114
     34          1           0       -0.385242   -0.068618   -1.504282
     35          6           0        1.027434    0.509298    0.035257
     36          1           0        1.130409    1.534613    0.416372
     37          6           0        2.457922   -0.079081   -0.035744
     38          6           0        0.150916   -0.308430    0.997195
     39          1           0       -0.077040   -1.287127    0.557062
     40          1           0       -0.790503    0.216410    1.175318
     41          8           0        2.763625   -1.111843    0.591482
     42          8           0        0.799781   -0.484800    2.260204
     43          1           0        1.608732   -0.996700    2.032738
     44          7           0        3.329015    0.637332   -0.762789
     45          1           0        2.971770    1.486614   -1.208853
     46          6           0        4.762148    0.322089   -0.856768
     47          1           0        4.870056   -0.762355   -0.935871
     48          6           0        5.428131    0.827929    0.444944
     49          6           0        5.353048    1.018939   -2.079395
     50          1           0        4.830960    0.683486   -2.983332
     51          1           0        5.225472    2.101843   -2.000881
     52          8           0        5.977035    1.920022    0.513846
     53          6           0        6.837051    0.776005   -2.286593
     54          8           0        7.546597    1.455441   -2.985370
     55          8           0        7.271055   -0.323981   -1.620398
     56          7           0        5.245427   -0.006353    1.506442
     57          1           0        4.654425   -0.818010    1.355070
     58          6           0        5.439552    0.439444    2.871734
     59          1           0        6.140075    1.282988    2.821694
     60          6           0        6.103573   -0.628976    3.743676
     61          6           0        4.112650    0.898092    3.507044
     62          1           0        4.260843    1.001276    4.585747
     63          1           0        3.374997    0.096155    3.366845
     64          8           0        5.903850   -0.745352    4.933731
     65          6           0        3.583344    2.205237    2.905646
     66          1           0        3.626013    2.181046    1.811654
     67          1           0        4.226230    3.041831    3.208592
     68          6           0        2.127093    2.491427    3.288296
     69          1           0        1.814952    3.478070    2.930508
     70          1           0        1.469508    1.753119    2.829396
     71          7           0        1.910042    2.457032    4.745269
     72          1           0        2.458852    3.116707    5.282832
     73          7           0        0.635773    0.496007    4.868842
     74          1           0       -0.004032   -0.066502    5.411865
     75          1           0        0.734883    0.234949    3.877141
     76          7           0        1.099929    1.709392    6.778780
     77          1           0        1.479552    2.520462    7.244890
     78          1           0        0.835658    0.934057    7.369323
     79          6           0        1.226204    1.544230    5.442991
     80          8           0        6.955427   -1.403422    3.049330
     81          1           0        7.360766   -2.020288    3.688914
     82          1           0        8.226599   -0.404718   -1.802761
 ---------------------------------------------------------------------

 SCF Done:  E(RB3LYP) =  -2166.39443864     A.U. after    2 cycles

 Alpha  occ. eigenvalues --  -19.28265 -19.27390 -19.26547 -19.24104 -19.23685
 Alpha  occ. eigenvalues --  -19.22738 -19.22369 -19.21333 -19.20294 -19.20276
 Alpha  occ. eigenvalues --  -14.52598 -14.52343 -14.50933 -14.46584 -14.45656
 Alpha  occ. eigenvalues --  -14.45184 -14.44472 -14.38545 -10.48690 -10.40943
 Alpha  occ. eigenvalues --  -10.40079 -10.39068 -10.39064 -10.37570 -10.37369
 Alpha  occ. eigenvalues --  -10.35777 -10.35108 -10.34591 -10.33242 -10.32996
 Alpha  occ. eigenvalues --  -10.32906 -10.32654 -10.30236 -10.29976 -10.29511
 Alpha  occ. eigenvalues --  -10.28390 -10.25369 -10.25174 -10.24549 -10.24479
 Alpha  occ. eigenvalues --  -10.24376 -10.24293 -10.24238  -1.19332  -1.17168
 Alpha  occ. eigenvalues --   -1.16917  -1.15811  -1.14088  -1.13462  -1.12720
 Alpha  occ. eigenvalues --   -1.12184  -1.11280  -1.10316  -1.08218  -1.06447
 Alpha  occ. eigenvalues --   -1.04642  -1.03497  -1.02536  -1.01691  -1.01439
 Alpha  occ. eigenvalues --   -0.96059  -0.91507  -0.90861  -0.89096  -0.87108
 Alpha  occ. eigenvalues --   -0.86117  -0.84751  -0.83602  -0.81219  -0.79809
 Alpha  occ. eigenvalues --   -0.78561  -0.78226  -0.78044  -0.75451  -0.74511
 Alpha  occ. eigenvalues --   -0.73363  -0.73119  -0.72010  -0.70536  -0.70082
 Alpha  occ. eigenvalues --   -0.68565  -0.67734  -0.67252  -0.67091  -0.66890
 Alpha  occ. eigenvalues --   -0.65955  -0.65759  -0.64898  -0.63668  -0.63259
 Alpha  occ. eigenvalues --   -0.62866  -0.62124  -0.61487  -0.60794  -0.60121
 Alpha  occ. eigenvalues --   -0.59869  -0.59593  -0.59316  -0.58286  -0.57744
 Alpha  occ. eigenvalues --   -0.57095  -0.56887  -0.56410  -0.56221  -0.56019
 Alpha  occ. eigenvalues --   -0.55447  -0.55002  -0.54572  -0.54209  -0.53986
 Alpha  occ. eigenvalues --   -0.53816  -0.52819  -0.52426  -0.52214  -0.51806
 Alpha  occ. eigenvalues --   -0.51509  -0.51198  -0.50931  -0.50441  -0.50235
 Alpha  occ. eigenvalues --   -0.49227  -0.49056  -0.48984  -0.48421  -0.48233
 Alpha  occ. eigenvalues --   -0.48150  -0.47784  -0.47341  -0.46952  -0.46750
 Alpha  occ. eigenvalues --   -0.46106  -0.45915  -0.45886  -0.45406  -0.45170
 Alpha  occ. eigenvalues --   -0.45000  -0.44951  -0.44910  -0.43070  -0.43011
 Alpha  occ. eigenvalues --   -0.42885  -0.40887  -0.40777  -0.40420  -0.39992
 Alpha  occ. eigenvalues --   -0.39376  -0.39303  -0.39000  -0.38323  -0.37927
 Alpha  occ. eigenvalues --   -0.37570  -0.37091  -0.36529  -0.35501  -0.34791
 Alpha  occ. eigenvalues --   -0.34299  -0.34051  -0.33905  -0.33025  -0.30814
 Alpha  occ. eigenvalues --   -0.30395  -0.29770
 Alpha virt. eigenvalues --   -0.12135  -0.10241  -0.08839  -0.08405  -0.08086
 Alpha virt. eigenvalues --   -0.07311  -0.06078  -0.05787  -0.05592  -0.05467
 Alpha virt. eigenvalues --   -0.04859  -0.04332  -0.03171  -0.01701  -0.01464

 Mulliken charges:
               1
     1  N   -0.723488
     2  H    0.325631
     3  H    0.306478
     4  C   -0.071450
     5  H    0.126085
     6  C    0.653782
     7  C   -0.339787
     8  H    0.182520
     9  H    0.140142
    10  O   -0.546277
    11  C    0.142367
    12  C   -0.193113
    13  H    0.145106
    14  C   -0.178597
    15  H    0.116924
    16  C   -0.127893
    17  H    0.142988
    18  C   -0.127982
    19  H    0.137281
    20  C   -0.129216
    21  H    0.141951
    22  N   -0.608709
    23  H    0.356972
    24  C   -0.074713
    25  H    0.201934
    26  C    0.636321
    27  C   -0.060319
    28  H    0.164994
    29  H    0.159983
    30  O   -0.554510
    31  O   -0.631446
    32  H    0.417048
    33  N   -0.633725
    34  H    0.405045
    35  C   -0.078129
    36  H    0.178580
    37  C    0.644614
    38  C   -0.065705
    39  H    0.184483
    40  H    0.174879
    41  O   -0.580721
    42  O   -0.674976
    43  H    0.448178
    44  N   -0.630488
    45  H    0.396886
    46  C   -0.054607
    47  H    0.201433
    48  C    0.645314
    49  C   -0.389769
    50  H    0.193707
    51  H    0.210734
    52  O   -0.525319
    53  C    0.608583
    54  O   -0.445334
    55  O   -0.573496
    56  N   -0.602806
    57  H    0.364868
    58  C   -0.070511
    59  H    0.221194
    60  C    0.588393
    61  C   -0.267941
    62  H    0.167489
    63  H    0.128680
    64  O   -0.465554
    65  C   -0.289278
    66  H    0.183593
    67  H    0.167366
    68  C   -0.186573
    69  H    0.194509
    70  H    0.182433
    71  N   -0.594519
    72  H    0.358667
    73  N   -0.800874
    74  H    0.371385
    75  H    0.457162
    76  N   -0.765291
    77  H    0.378606
    78  H    0.381897
    79  C    0.823449
    80  O   -0.544648
    81  H    0.424469
    82  H    0.422664
 Sum of Mulliken charges =   1.00000

 Dipole moment (field-independent basis, Debye):
    X=              1.6012    Y=              7.6162    Z=             14.2985  Tot=             16.2794
 Quadrupole moment (field-independent basis, Debye-Ang):
   XX=           -205.1341   YY=           -222.3913   ZZ=           -103.0658
   XY=            -21.4151   XZ=             44.7224   YZ=             16.2517

 Normal termination of Gaussian 16 at Sun May 15 23:41:11 2022.
