 Gaussian 16, Revision C.01,
 Gaussian 16:  ES64L-G16RevC.01  3-Jul-2019

 ----------------------------------------------------------------------
 # B3LYP/6-31G* empiricaldispersion=gd3 guess=read geom=check nosymm in
 tegral(ultrafinegrid)
 ----------------------------------------------------------------------

 ------------------------------------------------------
 Candidate Structure: Conf:112 Charge calc in gas phase
 ------------------------------------------------------
 Structure from the checkpoint file:  "conf-112.chk"
 Charge =  1 Multiplicity = 1

                          Input orientation:
 ---------------------------------------------------------------------
 Center     Atomic      Atomic             Coordinates (Angstroms)
 Number     Number       Type             X           Y           Z
 ---------------------------------------------------------------------
      1          7           0       -3.408161   -4.934988   -2.702739
      2          1           0       -2.691193   -5.173878   -3.385960
      3          1           0       -3.175811   -5.453339   -1.855579
      4          6           0       -3.359916   -3.514009   -2.400340
      5          1           0       -3.411064   -2.953908   -3.342249
      6          6           0       -2.109675   -3.079392   -1.627567
      7          6           0       -4.601062   -3.125370   -1.538553
      8          1           0       -5.486378   -3.340628   -2.144883
      9          1           0       -4.627862   -3.795254   -0.671054
     10          8           0       -1.597217   -3.830821   -0.777354
     11          6           0       -4.558431   -1.682478   -1.089198
     12          6           0       -4.115360   -1.347349    0.197544
     13          1           0       -3.906249   -2.141561    0.910925
     14          6           0       -4.825846   -0.647153   -1.995783
     15          1           0       -5.180638   -0.890569   -2.995267
     16          6           0       -3.915606   -0.013636    0.560975
     17          1           0       -3.569953    0.228086    1.562897
     18          6           0       -4.621960    0.686850   -1.638493
     19          1           0       -4.821523    1.475340   -2.358237
     20          6           0       -4.157442    1.007060   -0.360639
     21          1           0       -3.993011    2.044578   -0.084428
     22          7           0       -1.654888   -1.828098   -1.854335
     23          1           0       -2.150092   -1.222835   -2.501755
     24          6           0       -0.858047   -1.133644   -0.860464
     25          1           0       -1.314181   -1.291169    0.127209
     26          6           0       -0.876344    0.368796   -1.169980
     27          6           0        0.594036   -1.656837   -0.777908
     28          1           0        1.258932   -0.872956   -0.411680
     29          1           0        0.925090   -1.951740   -1.781208
     30          8           0       -1.098500    0.812086   -2.284056
     31          8           0        0.670576   -2.751250    0.144398
     32          1           0       -0.102607   -3.339134   -0.083637
     33          7           0       -0.611003    1.136251   -0.067096
     34          1           0       -0.297286    0.626369    0.750091
     35          6           0       -0.049361    2.467797   -0.168512
     36          1           0       -0.496455    2.971325   -1.029203
     37          6           0        1.473598    2.371710   -0.334654
     38          6           0       -0.398717    3.250563    1.135742
     39          1           0       -0.154139    2.610042    1.997804
     40          1           0       -1.479457    3.419951    1.139487
     41          8           0        2.086484    1.318687   -0.132971
     42          8           0        0.249160    4.499091    1.235138
     43          1           0        1.112446    4.340690    1.674614
     44          7           0        2.109717    3.541846   -0.613478
     45          1           0        1.540949    4.372760   -0.470791
     46          6           0        3.516971    3.648283   -0.241293
     47          1           0        4.090823    2.979206   -0.887788
     48          6           0        3.667308    3.204656    1.230668
     49          6           0        4.016191    5.081913   -0.439453
     50          1           0        3.368839    5.805556    0.065712
     51          1           0        5.015240    5.184316    0.001786
     52          8           0        2.800983    3.449184    2.078584
     53          6           0        4.144215    5.407369   -1.919726
     54          8           0        4.503051    4.618960   -2.763723
     55          8           0        3.831379    6.694068   -2.168482
     56          7           0        4.787777    2.507653    1.509005
     57          1           0        5.485281    2.362656    0.788685
     58          6           0        5.061036    1.890310    2.795949
     59          1           0        4.498359    2.429180    3.562523
     60          6           0        6.555108    2.011940    3.069463
     61          6           0        4.656415    0.390445    2.794925
     62          1           0        5.083372   -0.087287    3.684403
     63          1           0        5.132784   -0.074080    1.921209
     64          8           0        7.385085    2.250308    2.221626
     65          6           0        3.134344    0.176416    2.736457
     66          1           0        2.673374    0.928124    2.095228
     67          1           0        2.698520    0.307160    3.736402
     68          6           0        2.727515   -1.168718    2.139212
     69          1           0        1.637294   -1.264592    2.089934
     70          1           0        3.105187   -1.240587    1.115302
     71          7           0        3.287250   -2.298394    2.903416
     72          1           0        3.401167   -2.165532    3.900486
     73          7           0        2.886265   -3.909110    1.272977
     74          1           0        3.138446   -4.805473    0.879110
     75          1           0        2.107502   -3.392047    0.800608
     76          7           0        4.059831   -4.454386    3.210953
     77          1           0        4.764076   -4.146403    3.866524
     78          1           0        4.089544   -5.427169    2.941386
     79          6           0        3.398189   -3.553675    2.446367
     80          8           0        6.836760    1.764448    4.362457
     81          1           0        7.805545    1.833441    4.468455
     82          1           0        3.970251    6.845838   -3.123506
 ---------------------------------------------------------------------

 SCF Done:  E(RB3LYP) =  -2166.41356621     A.U. after    1 cycles

 Alpha  occ. eigenvalues --  -19.30097 -19.27637 -19.24947 -19.24527 -19.22780
 Alpha  occ. eigenvalues --  -19.22652 -19.22133 -19.21896 -19.21727 -19.21294
 Alpha  occ. eigenvalues --  -14.52057 -14.51899 -14.50435 -14.47007 -14.45321
 Alpha  occ. eigenvalues --  -14.45247 -14.44846 -14.38567 -10.47974 -10.42555
 Alpha  occ. eigenvalues --  -10.40403 -10.39595 -10.38343 -10.38306 -10.37453
 Alpha  occ. eigenvalues --  -10.35162 -10.34781 -10.33608 -10.32926 -10.32774
 Alpha  occ. eigenvalues --  -10.32618 -10.32337 -10.30827 -10.30323 -10.30166
 Alpha  occ. eigenvalues --  -10.30032 -10.26682 -10.26249 -10.26205 -10.25932
 Alpha  occ. eigenvalues --  -10.25893 -10.25847 -10.25743  -1.21042  -1.18505
 Alpha  occ. eigenvalues --   -1.16354  -1.14905  -1.13829  -1.13306  -1.12706
 Alpha  occ. eigenvalues --   -1.12221  -1.11146  -1.10353  -1.09632  -1.05819
 Alpha  occ. eigenvalues --   -1.04149  -1.03637  -1.02441  -1.02093  -1.01637
 Alpha  occ. eigenvalues --   -0.96291  -0.92483  -0.91993  -0.89322  -0.87277
 Alpha  occ. eigenvalues --   -0.86684  -0.84959  -0.82979  -0.81378  -0.81048
 Alpha  occ. eigenvalues --   -0.78735  -0.78504  -0.77903  -0.75190  -0.74014
 Alpha  occ. eigenvalues --   -0.73737  -0.72668  -0.72190  -0.70857  -0.69766
 Alpha  occ. eigenvalues --   -0.69385  -0.68519  -0.68179  -0.67640  -0.67267
 Alpha  occ. eigenvalues --   -0.67029  -0.65570  -0.65218  -0.64590  -0.63740
 Alpha  occ. eigenvalues --   -0.62519  -0.61198  -0.60700  -0.60543  -0.60172
 Alpha  occ. eigenvalues --   -0.59365  -0.59279  -0.59003  -0.58700  -0.58186
 Alpha  occ. eigenvalues --   -0.57828  -0.57313  -0.56947  -0.56330  -0.55934
 Alpha  occ. eigenvalues --   -0.55644  -0.55303  -0.54786  -0.54497  -0.54126
 Alpha  occ. eigenvalues --   -0.53630  -0.53433  -0.52945  -0.52721  -0.52558
 Alpha  occ. eigenvalues --   -0.52014  -0.51709  -0.51327  -0.50970  -0.50462
 Alpha  occ. eigenvalues --   -0.50250  -0.49658  -0.49282  -0.49072  -0.48997
 Alpha  occ. eigenvalues --   -0.48844  -0.48125  -0.47597  -0.47512  -0.47180
 Alpha  occ. eigenvalues --   -0.46883  -0.46815  -0.46551  -0.46083  -0.45514
 Alpha  occ. eigenvalues --   -0.45031  -0.44717  -0.44239  -0.43379  -0.42779
 Alpha  occ. eigenvalues --   -0.42149  -0.41947  -0.41841  -0.40758  -0.40698
 Alpha  occ. eigenvalues --   -0.40644  -0.39724  -0.38385  -0.38222  -0.37527
 Alpha  occ. eigenvalues --   -0.36842  -0.36671  -0.36074  -0.35892  -0.35715
 Alpha  occ. eigenvalues --   -0.35646  -0.35134  -0.34550  -0.33826  -0.31996
 Alpha  occ. eigenvalues --   -0.31636  -0.30610
 Alpha virt. eigenvalues --   -0.12464  -0.09668  -0.09251  -0.08451  -0.08307
 Alpha virt. eigenvalues --   -0.07992  -0.07553  -0.06808  -0.06715  -0.06493
 Alpha virt. eigenvalues --   -0.04483  -0.04020  -0.03130  -0.02211  -0.01149

 Mulliken charges:
               1
     1  N   -0.690064
     2  H    0.307125
     3  H    0.314214
     4  C   -0.075170
     5  H    0.152649
     6  C    0.608715
     7  C   -0.341833
     8  H    0.183910
     9  H    0.159535
    10  O   -0.581897
    11  C    0.152692
    12  C   -0.188623
    13  H    0.134515
    14  C   -0.205912
    15  H    0.141436
    16  C   -0.136320
    17  H    0.127221
    18  C   -0.114635
    19  H    0.150122
    20  C   -0.129432
    21  H    0.137639
    22  N   -0.588688
    23  H    0.367131
    24  C   -0.070824
    25  H    0.174039
    26  C    0.609403
    27  C   -0.063167
    28  H    0.192986
    29  H    0.166230
    30  O   -0.500780
    31  O   -0.694247
    32  H    0.447015
    33  N   -0.581400
    34  H    0.325495
    35  C   -0.116838
    36  H    0.211081
    37  C    0.626756
    38  C   -0.035921
    39  H    0.130471
    40  H    0.178277
    41  O   -0.549672
    42  O   -0.641634
    43  H    0.434286
    44  N   -0.582193
    45  H    0.357490
    46  C   -0.058110
    47  H    0.203844
    48  C    0.649449
    49  C   -0.392719
    50  H    0.198918
    51  H    0.207790
    52  O   -0.565868
    53  C    0.594723
    54  O   -0.444748
    55  O   -0.554585
    56  N   -0.588911
    57  H    0.358570
    58  C   -0.055410
    59  H    0.213406
    60  C    0.586198
    61  C   -0.264581
    62  H    0.155331
    63  H    0.154488
    64  O   -0.450380
    65  C   -0.330519
    66  H    0.220821
    67  H    0.155266
    68  C   -0.151196
    69  H    0.189378
    70  H    0.197359
    71  N   -0.607040
    72  H    0.358797
    73  N   -0.788635
    74  H    0.365120
    75  H    0.454852
    76  N   -0.761620
    77  H    0.376113
    78  H    0.377030
    79  C    0.803287
    80  O   -0.561962
    81  H    0.429709
    82  H    0.424654
 Sum of Mulliken charges =   1.00000

 Dipole moment (field-independent basis, Debye):
    X=             15.4152    Y=             -8.0125    Z=             10.0939  Tot=             20.0927
 Quadrupole moment (field-independent basis, Debye-Ang):
   XX=           -163.5591   YY=           -166.2344   ZZ=           -202.2955
   XY=            -27.8904   XZ=             60.1923   YZ=            -31.9863

 Normal termination of Gaussian 16 at Sun May 15 23:41:14 2022.
