 Gaussian 16, Revision C.01,
 Gaussian 16:  ES64L-G16RevC.01  3-Jul-2019

 ----------------------------------------------------------------------
 # B3LYP/6-31G* empiricaldispersion=gd3 guess=read geom=check nosymm in
 tegral(ultrafinegrid)
 ----------------------------------------------------------------------

 ------------------------------------------------------
 Candidate Structure: Conf:121 Charge calc in gas phase
 ------------------------------------------------------
 Structure from the checkpoint file:  "conf-121.chk"
 Charge =  1 Multiplicity = 1

                          Input orientation:
 ---------------------------------------------------------------------
 Center     Atomic      Atomic             Coordinates (Angstroms)
 Number     Number       Type             X           Y           Z
 ---------------------------------------------------------------------
      1          7           0       -4.035335   -2.741115   -5.179781
      2          1           0       -3.936495   -3.678266   -4.790529
      3          1           0       -4.833175   -2.759829   -5.812787
      4          6           0       -4.308385   -1.817922   -4.082648
      5          1           0       -4.315054   -0.799025   -4.491712
      6          6           0       -3.166068   -1.974387   -3.083009
      7          6           0       -5.653141   -2.043202   -3.324479
      8          1           0       -5.611527   -3.038272   -2.866402
      9          1           0       -5.727232   -1.311935   -2.508596
     10          8           0       -2.843114   -3.075034   -2.639199
     11          6           0       -6.841054   -1.919577   -4.246683
     12          6           0       -7.402523   -0.665093   -4.522407
     13          1           0       -7.010197    0.217323   -4.020821
     14          6           0       -7.363667   -3.044134   -4.899891
     15          1           0       -6.946403   -4.025934   -4.687664
     16          6           0       -8.459706   -0.536690   -5.422669
     17          1           0       -8.887109    0.442890   -5.618528
     18          6           0       -8.421238   -2.919935   -5.803372
     19          1           0       -8.817926   -3.803862   -6.295220
     20          6           0       -8.971535   -1.665239   -6.067546
     21          1           0       -9.796986   -1.566927   -6.766786
     22          7           0       -2.546099   -0.828983   -2.678595
     23          1           0       -2.750588    0.070631   -3.096822
     24          6           0       -1.464690   -0.871256   -1.722663
     25          1           0       -1.734672   -1.548701   -0.904541
     26          6           0       -1.193593    0.544841   -1.216755
     27          6           0       -0.189960   -1.427398   -2.404858
     28          1           0        0.083531   -0.772885   -3.240949
     29          1           0       -0.436644   -2.419333   -2.787056
     30          8           0       -1.417289    1.532384   -1.900836
     31          8           0        0.920679   -1.580587   -1.507068
     32          1           0        1.312575   -0.695587   -1.288212
     33          7           0       -0.627281    0.594389    0.029453
     34          1           0       -0.341458   -0.293453    0.422343
     35          6           0        0.110837    1.749893    0.491727
     36          1           0       -0.358355    2.648187    0.082945
     37          6           0        1.569807    1.668098    0.030864
     38          6           0        0.035534    1.787245    2.052956
     39          1           0        0.275408    0.782262    2.433398
     40          1           0       -1.000338    2.011412    2.322130
     41          8           0        2.048735    0.648026   -0.488996
     42          8           0        0.874813    2.758404    2.637078
     43          1           0        1.721547    2.314167    2.848380
     44          7           0        2.354649    2.733689    0.322219
     45          1           0        1.947033    3.394075    0.980616
     46          6           0        3.784707    2.476701    0.438941
     47          1           0        4.154341    2.145326   -0.532948
     48          6           0        3.979082    1.340664    1.470060
     49          6           0        4.552560    3.736696    0.878593
     50          1           0        4.452949    4.505767    0.105081
     51          1           0        4.156659    4.131512    1.818179
     52          8           0        3.244917    1.231047    2.460131
     53          6           0        6.025833    3.434378    1.106382
     54          8           0        6.646505    3.718779    2.098949
     55          8           0        6.558277    2.745923    0.059898
     56          7           0        4.985577    0.489576    1.203245
     57          1           0        5.628164    0.717090    0.451965
     58          6           0        5.411391   -0.543129    2.128148
     59          1           0        5.151966   -0.226343    3.145217
     60          6           0        6.934727   -0.627706    2.041742
     61          6           0        4.733857   -1.901129    1.832989
     62          1           0        5.246344   -2.678002    2.411677
     63          1           0        4.880072   -2.130989    0.769576
     64          8           0        7.615375    0.024390    1.278998
     65          6           0        3.236199   -1.910185    2.173823
     66          1           0        2.723408   -1.081638    1.673321
     67          1           0        3.100235   -1.747394    3.248880
     68          6           0        2.557423   -3.234745    1.790505
     69          1           0        3.210178   -4.072548    2.053379
     70          1           0        1.616611   -3.368086    2.335186
     71          7           0        2.274479   -3.277312    0.352117
     72          1           0        1.677448   -2.539398   -0.033539
     73          7           0        3.225200   -5.346192   -0.198752
     74          1           0        3.691869   -5.916175   -0.888780
     75          1           0        3.171222   -5.702083    0.742472
     76          7           0        2.553437   -3.863082   -1.855429
     77          1           0        2.111995   -2.964047   -2.070531
     78          1           0        2.462940   -4.602613   -2.540410
     79          6           0        2.669873   -4.172052   -0.546856
     80          8           0        7.426241   -1.520104    2.914648
     81          1           0        8.399049   -1.514068    2.830036
     82          1           0        7.465286    2.486496    0.316330
 ---------------------------------------------------------------------

 SCF Done:  E(RB3LYP) =  -2166.41811488     A.U. after    1 cycles

 Alpha  occ. eigenvalues --  -19.31127 -19.28959 -19.27544 -19.25813 -19.24727
 Alpha  occ. eigenvalues --  -19.23822 -19.23752 -19.23208 -19.22100 -19.18934
 Alpha  occ. eigenvalues --  -14.52445 -14.51522 -14.50406 -14.47559 -14.46956
 Alpha  occ. eigenvalues --  -14.46749 -14.44248 -14.37052 -10.48118 -10.43846
 Alpha  occ. eigenvalues --  -10.41598 -10.40535 -10.40450 -10.39058 -10.36702
 Alpha  occ. eigenvalues --  -10.35926 -10.35584 -10.34951 -10.34099 -10.33908
 Alpha  occ. eigenvalues --  -10.33832 -10.32964 -10.31233 -10.31053 -10.30886
 Alpha  occ. eigenvalues --  -10.28704 -10.24838 -10.24799 -10.23960 -10.23945
 Alpha  occ. eigenvalues --  -10.23899 -10.23882 -10.23706  -1.22244  -1.19670
 Alpha  occ. eigenvalues --   -1.16724  -1.16552  -1.15160  -1.14200  -1.13532
 Alpha  occ. eigenvalues --   -1.13374  -1.11524  -1.10980  -1.10895  -1.06131
 Alpha  occ. eigenvalues --   -1.04580  -1.04301  -1.04018  -1.03383  -1.00683
 Alpha  occ. eigenvalues --   -0.94874  -0.92819  -0.90491  -0.90324  -0.87953
 Alpha  occ. eigenvalues --   -0.87289  -0.84431  -0.82796  -0.81894  -0.79317
 Alpha  occ. eigenvalues --   -0.79244  -0.78442  -0.77606  -0.75928  -0.74764
 Alpha  occ. eigenvalues --   -0.74120  -0.73254  -0.72759  -0.70848  -0.70558
 Alpha  occ. eigenvalues --   -0.70205  -0.69725  -0.68945  -0.68569  -0.66825
 Alpha  occ. eigenvalues --   -0.65490  -0.65460  -0.65276  -0.64564  -0.63500
 Alpha  occ. eigenvalues --   -0.63163  -0.62877  -0.62351  -0.61462  -0.61252
 Alpha  occ. eigenvalues --   -0.60254  -0.60029  -0.59766  -0.59110  -0.58377
 Alpha  occ. eigenvalues --   -0.57938  -0.57311  -0.57081  -0.56915  -0.56659
 Alpha  occ. eigenvalues --   -0.56464  -0.55900  -0.55317  -0.54978  -0.54540
 Alpha  occ. eigenvalues --   -0.54255  -0.53579  -0.53440  -0.53344  -0.53139
 Alpha  occ. eigenvalues --   -0.52538  -0.51523  -0.51212  -0.51189  -0.50707
 Alpha  occ. eigenvalues --   -0.50523  -0.50097  -0.49776  -0.49412  -0.49127
 Alpha  occ. eigenvalues --   -0.48639  -0.48389  -0.47998  -0.47695  -0.47607
 Alpha  occ. eigenvalues --   -0.46963  -0.46922  -0.46609  -0.46522  -0.45981
 Alpha  occ. eigenvalues --   -0.45170  -0.44558  -0.44341  -0.43302  -0.43010
 Alpha  occ. eigenvalues --   -0.42887  -0.41940  -0.41429  -0.40954  -0.40614
 Alpha  occ. eigenvalues --   -0.40348  -0.39487  -0.38997  -0.38965  -0.38853
 Alpha  occ. eigenvalues --   -0.38708  -0.37965  -0.37331  -0.37121  -0.36502
 Alpha  occ. eigenvalues --   -0.36146  -0.34990  -0.33408  -0.32890  -0.30397
 Alpha  occ. eigenvalues --   -0.29820  -0.28623
 Alpha virt. eigenvalues --   -0.12257  -0.11129  -0.10675  -0.08933  -0.08620
 Alpha virt. eigenvalues --   -0.08451  -0.07952  -0.05914  -0.05381  -0.05135
 Alpha virt. eigenvalues --   -0.04403  -0.04094  -0.02856  -0.01855  -0.01542

 Mulliken charges:
               1
     1  N   -0.718642
     2  H    0.309600
     3  H    0.315624
     4  C   -0.063925
     5  H    0.140829
     6  C    0.648400
     7  C   -0.364242
     8  H    0.161977
     9  H    0.144354
    10  O   -0.551276
    11  C    0.169097
    12  C   -0.178832
    13  H    0.122865
    14  C   -0.196968
    15  H    0.126162
    16  C   -0.126752
    17  H    0.139548
    18  C   -0.127005
    19  H    0.139499
    20  C   -0.129031
    21  H    0.141192
    22  N   -0.624333
    23  H    0.357890
    24  C   -0.042633
    25  H    0.174713
    26  C    0.589114
    27  C   -0.061772
    28  H    0.171633
    29  H    0.194174
    30  O   -0.502433
    31  O   -0.709880
    32  H    0.463793
    33  N   -0.587172
    34  H    0.321968
    35  C   -0.112358
    36  H    0.222231
    37  C    0.642898
    38  C   -0.036064
    39  H    0.130220
    40  H    0.188176
    41  O   -0.581241
    42  O   -0.639820
    43  H    0.439071
    44  N   -0.584637
    45  H    0.365980
    46  C   -0.050861
    47  H    0.203385
    48  C    0.633675
    49  C   -0.371496
    50  H    0.214957
    51  H    0.202129
    52  O   -0.573406
    53  C    0.568058
    54  O   -0.424053
    55  O   -0.577182
    56  N   -0.590220
    57  H    0.373829
    58  C   -0.053460
    59  H    0.217422
    60  C    0.593577
    61  C   -0.270698
    62  H    0.174101
    63  H    0.150738
    64  O   -0.467804
    65  C   -0.281713
    66  H    0.177019
    67  H    0.177581
    68  C   -0.168195
    69  H    0.159623
    70  H    0.194624
    71  N   -0.610347
    72  H    0.396420
    73  N   -0.756424
    74  H    0.383121
    75  H    0.383226
    76  N   -0.772250
    77  H    0.411556
    78  H    0.368090
    79  C    0.787665
    80  O   -0.555193
    81  H    0.434898
    82  H    0.435615
 Sum of Mulliken charges =   1.00000

 Dipole moment (field-independent basis, Debye):
    X=             13.6420    Y=            -13.7088    Z=             -0.2081  Tot=             19.3411
 Quadrupole moment (field-independent basis, Debye-Ang):
   XX=           -145.6076   YY=           -167.2806   ZZ=           -232.0977
   XY=            -48.4636   XZ=             25.0661   YZ=             -2.6953

 Normal termination of Gaussian 16 at Sun May 15 23:40:49 2022.
