 Gaussian 16, Revision C.01,
 Gaussian 16:  ES64L-G16RevC.01  3-Jul-2019

 ----------------------------------------------------------------------
 # B3LYP/6-31G* empiricaldispersion=gd3 guess=read geom=check nosymm in
 tegral(ultrafinegrid)
 ----------------------------------------------------------------------

 ------------------------------------------------------
 Candidate Structure: Conf:217 Charge calc in gas phase
 ------------------------------------------------------
 Structure from the checkpoint file:  "conf-217.chk"
 Charge =  1 Multiplicity = 1

                          Input orientation:
 ---------------------------------------------------------------------
 Center     Atomic      Atomic             Coordinates (Angstroms)
 Number     Number       Type             X           Y           Z
 ---------------------------------------------------------------------
      1          7           0       -4.119881    0.372439   -5.292383
      2          1           0       -3.776095    1.142853   -5.864821
      3          1           0       -3.560071   -0.434561   -5.570783
      4          6           0       -3.838076    0.647463   -3.889867
      5          1           0       -4.252737    1.631710   -3.640342
      6          6           0       -2.332839    0.632413   -3.570117
      7          6           0       -4.546352   -0.417821   -3.004467
      8          1           0       -5.597091   -0.425482   -3.313346
      9          1           0       -4.122261   -1.399803   -3.246640
     10          8           0       -1.555137   -0.067441   -4.227226
     11          6           0       -4.403778   -0.136917   -1.525610
     12          6           0       -3.547644   -0.904066   -0.725103
     13          1           0       -3.037372   -1.760427   -1.157461
     14          6           0       -5.050068    0.970317   -0.953781
     15          1           0       -5.729646    1.565605   -1.560490
     16          6           0       -3.322401   -0.556998    0.608558
     17          1           0       -2.632259   -1.146047    1.205140
     18          6           0       -4.828093    1.316899    0.380339
     19          1           0       -5.337982    2.176664    0.807278
     20          6           0       -3.955487    0.556306    1.163211
     21          1           0       -3.776089    0.829100    2.199929
     22          7           0       -1.915524    1.392769   -2.517419
     23          1           0       -2.623459    1.732032   -1.875305
     24          6           0       -0.546046    1.297840   -2.020128
     25          1           0        0.109621    1.263326   -2.895114
     26          6           0       -0.316634    0.011423   -1.206197
     27          6           0       -0.152381    2.509949   -1.168151
     28          1           0       -0.827373    2.583605   -0.302117
     29          1           0       -0.259312    3.417525   -1.769603
     30          8           0       -0.164747    0.042082    0.026572
     31          8           0        1.205437    2.424033   -0.771252
     32          1           0        1.264000    1.748122   -0.072335
     33          7           0       -0.227212   -1.119162   -1.931071
     34          1           0       -0.460019   -1.062603   -2.923196
     35          6           0        0.116281   -2.410329   -1.335793
     36          1           0       -0.361289   -2.466288   -0.351451
     37          6           0        1.655436   -2.448104   -1.191055
     38          6           0       -0.379411   -3.547185   -2.216139
     39          1           0       -0.070755   -4.500183   -1.764849
     40          1           0        0.101349   -3.480242   -3.201836
     41          8           0        2.371943   -3.133719   -1.909511
     42          8           0       -1.795281   -3.424737   -2.300498
     43          1           0       -2.122269   -4.089362   -2.924728
     44          7           0        2.136050   -1.574916   -0.254790
     45          1           0        1.464407   -0.941160    0.182594
     46          6           0        3.499388   -1.099548   -0.329013
     47          1           0        4.190744   -1.946249   -0.302108
     48          6           0        3.746137   -0.121285    0.815443
     49          6           0        3.756694   -0.287082   -1.647767
     50          1           0        3.650482   -0.983667   -2.483241
     51          1           0        3.022622    0.519859   -1.717383
     52          8           0        2.864222    0.633471    1.223400
     53          6           0        5.138199    0.323654   -1.621442
     54          8           0        5.384511    1.499619   -1.454416
     55          8           0        6.098927   -0.630423   -1.680662
     56          7           0        5.034583   -0.058037    1.266155
     57          1           0        5.724174   -0.644420    0.804273
     58          6           0        5.565604    1.201389    1.773349
     59          1           0        4.960219    2.018194    1.362424
     60          6           0        6.979470    1.370972    1.221743
     61          6           0        5.556608    1.300245    3.314642
     62          1           0        6.019691    2.251955    3.599438
     63          1           0        6.174289    0.493037    3.729360
     64          8           0        7.587128    0.524915    0.599357
     65          6           0        4.130859    1.214141    3.866606
     66          1           0        3.695212    0.246902    3.593893
     67          1           0        3.505696    1.978487    3.392940
     68          6           0        4.079253    1.380973    5.383835
     69          1           0        4.670724    0.599424    5.879425
     70          1           0        4.470550    2.360402    5.683891
     71          7           0        2.671917    1.287091    5.822837
     72          1           0        2.012351    0.925536    5.143473
     73          7           0        3.055276    1.879667    8.031604
     74          1           0        2.739127    2.326810    8.880411
     75          1           0        4.040776    1.674443    7.954617
     76          7           0        0.884621    1.694936    7.246306
     77          1           0        0.223782    1.677482    6.482061
     78          1           0        0.505977    1.694231    8.182942
     79          6           0        2.208470    1.613749    7.026215
     80          8           0        7.480104    2.574584    1.534804
     81          1           0        8.370024    2.636745    1.137083
     82          1           0        6.952615   -0.188709   -1.501307
 ---------------------------------------------------------------------

 SCF Done:  E(RB3LYP) =  -2166.38938109     A.U. after    1 cycles

 Alpha  occ. eigenvalues --  -19.29782 -19.26179 -19.24387 -19.21742 -19.21636
 Alpha  occ. eigenvalues --  -19.20673 -19.19607 -19.19166 -19.18488 -19.18465
 Alpha  occ. eigenvalues --  -14.54997 -14.54744 -14.54737 -14.45448 -14.42869
 Alpha  occ. eigenvalues --  -14.42777 -14.41943 -14.36483 -10.51223 -10.42517
 Alpha  occ. eigenvalues --  -10.38898 -10.38393 -10.37941 -10.35665 -10.35400
 Alpha  occ. eigenvalues --  -10.34824 -10.34064 -10.31911 -10.31359 -10.30643
 Alpha  occ. eigenvalues --  -10.30114 -10.30082 -10.29412 -10.29314 -10.28153
 Alpha  occ. eigenvalues --  -10.26960 -10.25133 -10.24868 -10.24669 -10.24511
 Alpha  occ. eigenvalues --  -10.24486 -10.24392 -10.23724  -1.20908  -1.19620
 Alpha  occ. eigenvalues --   -1.17097  -1.13567  -1.11974  -1.11315  -1.10217
 Alpha  occ. eigenvalues --   -1.09841  -1.08768  -1.08730  -1.08100  -1.07815
 Alpha  occ. eigenvalues --   -1.06830  -1.02436  -0.99762  -0.99277  -0.98612
 Alpha  occ. eigenvalues --   -0.94188  -0.93212  -0.90968  -0.88495  -0.86055
 Alpha  occ. eigenvalues --   -0.84177  -0.83238  -0.82633  -0.81075  -0.80290
 Alpha  occ. eigenvalues --   -0.79863  -0.77405  -0.76880  -0.76573  -0.73918
 Alpha  occ. eigenvalues --   -0.72415  -0.72158  -0.71326  -0.70135  -0.68737
 Alpha  occ. eigenvalues --   -0.68362  -0.67824  -0.67522  -0.66988  -0.66100
 Alpha  occ. eigenvalues --   -0.65305  -0.64681  -0.64530  -0.63796  -0.63293
 Alpha  occ. eigenvalues --   -0.62657  -0.61913  -0.60337  -0.59587  -0.59492
 Alpha  occ. eigenvalues --   -0.58455  -0.57738  -0.57493  -0.57024  -0.56728
 Alpha  occ. eigenvalues --   -0.56490  -0.56261  -0.55709  -0.55458  -0.54914
 Alpha  occ. eigenvalues --   -0.54442  -0.53856  -0.53781  -0.53121  -0.52419
 Alpha  occ. eigenvalues --   -0.52315  -0.51821  -0.51237  -0.50581  -0.50464
 Alpha  occ. eigenvalues --   -0.50016  -0.49555  -0.49408  -0.49253  -0.48684
 Alpha  occ. eigenvalues --   -0.48193  -0.47644  -0.47587  -0.47553  -0.47138
 Alpha  occ. eigenvalues --   -0.46660  -0.46329  -0.46141  -0.45948  -0.45893
 Alpha  occ. eigenvalues --   -0.45474  -0.45399  -0.45088  -0.44886  -0.44378
 Alpha  occ. eigenvalues --   -0.44043  -0.43501  -0.43102  -0.42875  -0.41884
 Alpha  occ. eigenvalues --   -0.41415  -0.40757  -0.40237  -0.39063  -0.38967
 Alpha  occ. eigenvalues --   -0.38924  -0.38703  -0.37986  -0.36083  -0.35447
 Alpha  occ. eigenvalues --   -0.35155  -0.34352  -0.34277  -0.33905  -0.33128
 Alpha  occ. eigenvalues --   -0.32582  -0.32084  -0.30966  -0.30787  -0.30502
 Alpha  occ. eigenvalues --   -0.29913  -0.28901
 Alpha virt. eigenvalues --   -0.14901  -0.10792  -0.09406  -0.08126  -0.07123
 Alpha virt. eigenvalues --   -0.06968  -0.06215  -0.06015  -0.05991  -0.05800
 Alpha virt. eigenvalues --   -0.05460  -0.04500  -0.03391  -0.02587  -0.01565

 Mulliken charges:
               1
     1  N   -0.690920
     2  H    0.306679
     3  H    0.313590
     4  C   -0.083382
     5  H    0.147577
     6  C    0.605273
     7  C   -0.340268
     8  H    0.178532
     9  H    0.158085
    10  O   -0.551761
    11  C    0.131775
    12  C   -0.212591
    13  H    0.187117
    14  C   -0.206179
    15  H    0.137227
    16  C   -0.117451
    17  H    0.128776
    18  C   -0.132741
    19  H    0.134748
    20  C   -0.133018
    21  H    0.114922
    22  N   -0.594666
    23  H    0.348038
    24  C   -0.076026
    25  H    0.193460
    26  C    0.637684
    27  C   -0.042541
    28  H    0.133687
    29  H    0.159012
    30  O   -0.582548
    31  O   -0.641091
    32  H    0.426156
    33  N   -0.608683
    34  H    0.391022
    35  C   -0.075244
    36  H    0.184061
    37  C    0.624423
    38  C   -0.051380
    39  H    0.155068
    40  H    0.160851
    41  O   -0.517721
    42  O   -0.617947
    43  H    0.410068
    44  N   -0.649707
    45  H    0.391220
    46  C   -0.031367
    47  H    0.193504
    48  C    0.589050
    49  C   -0.356488
    50  H    0.217322
    51  H    0.200117
    52  O   -0.540581
    53  C    0.554334
    54  O   -0.466174
    55  O   -0.565430
    56  N   -0.608571
    57  H    0.364868
    58  C   -0.045047
    59  H    0.223792
    60  C    0.610109
    61  C   -0.277557
    62  H    0.174499
    63  H    0.158589
    64  O   -0.481752
    65  C   -0.312479
    66  H    0.182636
    67  H    0.190659
    68  C   -0.143450
    69  H    0.183538
    70  H    0.187900
    71  N   -0.610060
    72  H    0.378161
    73  N   -0.756297
    74  H    0.389798
    75  H    0.396470
    76  N   -0.762127
    77  H    0.390988
    78  H    0.388663
    79  C    0.841264
    80  O   -0.556790
    81  H    0.433050
    82  H    0.431668
 Sum of Mulliken charges =   1.00000

 Dipole moment (field-independent basis, Debye):
    X=             11.4487    Y=              7.0002    Z=             29.9390  Tot=             32.8088
 Quadrupole moment (field-independent basis, Debye-Ang):
   XX=           -167.8527   YY=           -228.7696   ZZ=            -13.3673
   XY=             22.0917   XZ=             84.4581   YZ=             56.9632

 Normal termination of Gaussian 16 at Sun May 15 23:40:50 2022.
