 Gaussian 16, Revision C.01,
 Gaussian 16:  ES64L-G16RevC.01  3-Jul-2019

 ----------------------------------------------------------------------
 # B3LYP/6-31G* empiricaldispersion=gd3 guess=read geom=check nosymm in
 tegral(ultrafinegrid)
 ----------------------------------------------------------------------

 ------------------------------------------------------
 Candidate Structure: Conf:156 Charge calc in gas phase
 ------------------------------------------------------
 Structure from the checkpoint file:  "conf-156.chk"
 Charge =  1 Multiplicity = 1

                          Input orientation:
 ---------------------------------------------------------------------
 Center     Atomic      Atomic             Coordinates (Angstroms)
 Number     Number       Type             X           Y           Z
 ---------------------------------------------------------------------
      1          7           0       -2.025642   -2.234390   -4.956679
      2          1           0       -2.118400   -3.156372   -4.530645
      3          1           0       -2.596083   -2.230389   -5.800883
      4          6           0       -2.545753   -1.250003   -4.012907
      5          1           0       -2.303983   -0.249258   -4.395590
      6          6           0       -1.838922   -1.489933   -2.678998
      7          6           0       -4.084301   -1.308807   -3.753668
      8          1           0       -4.307553   -2.287743   -3.313534
      9          1           0       -4.346003   -0.548166   -3.005921
     10          8           0       -1.768232   -2.614916   -2.185950
     11          6           0       -4.877767   -1.090897   -5.018508
     12          6           0       -5.159828    0.206493   -5.469569
     13          1           0       -4.848538    1.059301   -4.869448
     14          6           0       -5.292277   -2.175521   -5.804312
     15          1           0       -5.092025   -3.188445   -5.462152
     16          6           0       -5.839295    0.415775   -6.669271
     17          1           0       -6.055287    1.428654   -6.998592
     18          6           0       -5.971539   -1.970548   -7.007500
     19          1           0       -6.290688   -2.824170   -7.599523
     20          6           0       -6.246274   -0.673794   -7.443584
     21          1           0       -6.778488   -0.512113   -8.376830
     22          7           0       -1.340714   -0.389101   -2.054459
     23          1           0       -1.377381    0.530297   -2.478312
     24          6           0       -0.708878   -0.470400   -0.756681
     25          1           0       -1.311103   -1.099871   -0.091111
     26          6           0       -0.576247    0.946054   -0.201393
     27          6           0        0.696126   -1.131900   -0.878409
     28          1           0        1.302863   -0.529230   -1.569638
     29          1           0        0.537228   -2.120218   -1.313194
     30          8           0       -0.627071    1.937015   -0.917092
     31          8           0        1.345926   -1.307087    0.374402
     32          1           0        1.727042   -0.434806    0.611461
     33          7           0       -0.351909    1.012362    1.157548
     34          1           0       -0.087744    0.127969    1.583613
     35          6           0        0.287675    2.192299    1.718433
     36          1           0       -0.152335    3.065754    1.227716
     37          6           0        1.797035    2.167302    1.415380
     38          6           0       -0.024325    2.267749    3.226466
     39          1           0        0.462167    3.140039    3.671562
     40          1           0        0.391415    1.373416    3.724352
     41          8           0        2.315715    1.247064    0.765266
     42          8           0       -1.404583    2.418578    3.454799
     43          1           0       -1.860470    1.715813    2.962325
     44          7           0        2.531694    3.176479    1.913487
     45          1           0        2.094418    4.010561    2.299808
     46          6           0        3.976865    3.264594    1.714794
     47          1           0        4.187773    3.655309    0.709469
     48          6           0        4.602581    1.861729    1.894269
     49          6           0        4.609051    4.184582    2.776600
     50          1           0        4.476178    3.707599    3.755676
     51          1           0        5.683175    4.271389    2.595452
     52          8           0        4.482087    1.256286    2.946527
     53          6           0        3.988197    5.565206    2.847740
     54          8           0        2.796618    5.796935    2.743561
     55          8           0        4.901826    6.518235    3.079442
     56          7           0        5.349476    1.403636    0.836106
     57          1           0        5.224101    1.872696   -0.051892
     58          6           0        5.670410   -0.011398    0.779896
     59          1           0        5.536461   -0.381694    1.801536
     60          6           0        7.112679   -0.294357    0.404897
     61          6           0        4.692436   -0.779291   -0.153553
     62          1           0        4.963671   -0.597086   -1.203065
     63          1           0        3.721752   -0.312717   -0.002735
     64          8           0        7.612152   -1.412559    0.443940
     65          6           0        4.572055   -2.289566    0.134094
     66          1           0        3.509235   -2.553245    0.156625
     67          1           0        4.965822   -2.509561    1.133446
     68          6           0        5.301066   -3.161229   -0.897577
     69          1           0        4.765623   -3.170342   -1.850710
     70          1           0        6.307320   -2.788478   -1.103244
     71          7           0        5.419556   -4.563992   -0.465500
     72          1           0        4.612889   -5.157523   -0.613361
     73          7           0        7.258062   -4.189635    0.916437
     74          1           0        8.077880   -4.572207    1.366254
     75          1           0        7.244946   -3.172426    0.781178
     76          7           0        6.368943   -6.319463    0.709880
     77          1           0        5.830984   -6.997657    0.190248
     78          1           0        6.941621   -6.665522    1.465731
     79          6           0        6.348362   -5.010214    0.388755
     80          8           0        7.792233    0.771366   -0.017895
     81          1           0        8.697255    0.480176   -0.245979
     82          1           0        4.426128    7.368068    3.164313
 ---------------------------------------------------------------------

 SCF Done:  E(RB3LYP) =  -2166.38853558     A.U. after    1 cycles

 Alpha  occ. eigenvalues --  -19.32426 -19.29189 -19.27284 -19.23885 -19.22735
 Alpha  occ. eigenvalues --  -19.21881 -19.21652 -19.21594 -19.20213 -19.16841
 Alpha  occ. eigenvalues --  -14.52685 -14.52620 -14.51540 -14.46410 -14.46021
 Alpha  occ. eigenvalues --  -14.44317 -14.42011 -14.35661 -10.48852 -10.45143
 Alpha  occ. eigenvalues --  -10.42195 -10.39131 -10.39100 -10.36938 -10.35771
 Alpha  occ. eigenvalues --  -10.35020 -10.34655 -10.33910 -10.31918 -10.31800
 Alpha  occ. eigenvalues --  -10.30421 -10.30412 -10.30187 -10.30183 -10.30100
 Alpha  occ. eigenvalues --  -10.27214 -10.23910 -10.23578 -10.23129 -10.23117
 Alpha  occ. eigenvalues --  -10.23056 -10.23044 -10.22922  -1.23684  -1.20307
 Alpha  occ. eigenvalues --   -1.17215  -1.14933  -1.14370  -1.13490  -1.12071
 Alpha  occ. eigenvalues --   -1.11313  -1.09441  -1.09117  -1.08732  -1.06577
 Alpha  occ. eigenvalues --   -1.05109  -1.03336  -1.02753  -1.00793  -0.98398
 Alpha  occ. eigenvalues --   -0.93422  -0.91894  -0.89748  -0.89417  -0.87134
 Alpha  occ. eigenvalues --   -0.85193  -0.82427  -0.82056  -0.81394  -0.78931
 Alpha  occ. eigenvalues --   -0.78744  -0.78464  -0.75957  -0.74813  -0.74461
 Alpha  occ. eigenvalues --   -0.73615  -0.72189  -0.71612  -0.71007  -0.70865
 Alpha  occ. eigenvalues --   -0.69990  -0.68163  -0.68015  -0.66379  -0.66230
 Alpha  occ. eigenvalues --   -0.65486  -0.64613  -0.64331  -0.64250  -0.62607
 Alpha  occ. eigenvalues --   -0.62030  -0.61482  -0.60881  -0.60552  -0.59928
 Alpha  occ. eigenvalues --   -0.59574  -0.59098  -0.58953  -0.58279  -0.57769
 Alpha  occ. eigenvalues --   -0.57693  -0.57376  -0.56898  -0.56183  -0.55458
 Alpha  occ. eigenvalues --   -0.55074  -0.54629  -0.54184  -0.53819  -0.53374
 Alpha  occ. eigenvalues --   -0.52680  -0.52240  -0.51482  -0.51322  -0.51008
 Alpha  occ. eigenvalues --   -0.50533  -0.50296  -0.49959  -0.49768  -0.49649
 Alpha  occ. eigenvalues --   -0.49316  -0.49046  -0.48537  -0.48198  -0.47966
 Alpha  occ. eigenvalues --   -0.47377  -0.47095  -0.46959  -0.46499  -0.46311
 Alpha  occ. eigenvalues --   -0.45968  -0.45800  -0.45378  -0.45220  -0.44568
 Alpha  occ. eigenvalues --   -0.44253  -0.43264  -0.43241  -0.42208  -0.41591
 Alpha  occ. eigenvalues --   -0.41507  -0.41383  -0.40812  -0.40705  -0.40464
 Alpha  occ. eigenvalues --   -0.39554  -0.38012  -0.37969  -0.37930  -0.36858
 Alpha  occ. eigenvalues --   -0.36678  -0.36185  -0.35808  -0.35128  -0.34871
 Alpha  occ. eigenvalues --   -0.33967  -0.33328  -0.30978  -0.30838  -0.29370
 Alpha  occ. eigenvalues --   -0.28930  -0.27414
 Alpha virt. eigenvalues --   -0.12636  -0.12056  -0.09573  -0.08834  -0.08326
 Alpha virt. eigenvalues --   -0.07255  -0.06419  -0.04791  -0.04747  -0.04294
 Alpha virt. eigenvalues --   -0.04136  -0.03944  -0.02350  -0.01920  -0.01309

 Mulliken charges:
               1
     1  N   -0.722544
     2  H    0.309831
     3  H    0.310040
     4  C   -0.060477
     5  H    0.136227
     6  C    0.642926
     7  C   -0.364540
     8  H    0.162143
     9  H    0.144622
    10  O   -0.547968
    11  C    0.169992
    12  C   -0.178522
    13  H    0.123037
    14  C   -0.197204
    15  H    0.127018
    16  C   -0.127177
    17  H    0.136515
    18  C   -0.127274
    19  H    0.136707
    20  C   -0.129790
    21  H    0.137734
    22  N   -0.627240
    23  H    0.353148
    24  C   -0.046267
    25  H    0.183437
    26  C    0.595333
    27  C   -0.061192
    28  H    0.135345
    29  H    0.187979
    30  O   -0.511572
    31  O   -0.668663
    32  H    0.443958
    33  N   -0.619834
    34  H    0.337914
    35  C   -0.116790
    36  H    0.221058
    37  C    0.670022
    38  C   -0.024983
    39  H    0.163826
    40  H    0.136083
    41  O   -0.573870
    42  O   -0.599443
    43  H    0.405681
    44  N   -0.628855
    45  H    0.391395
    46  C   -0.024344
    47  H    0.164997
    48  C    0.637827
    49  C   -0.393926
    50  H    0.230459
    51  H    0.199054
    52  O   -0.510637
    53  C    0.602096
    54  O   -0.469917
    55  O   -0.544180
    56  N   -0.593330
    57  H    0.340412
    58  C   -0.078788
    59  H    0.224878
    60  C    0.619663
    61  C   -0.314178
    62  H    0.148538
    63  H    0.220694
    64  O   -0.508249
    65  C   -0.285022
    66  H    0.204849
    67  H    0.150838
    68  C   -0.193933
    69  H    0.197686
    70  H    0.192476
    71  N   -0.590839
    72  H    0.366427
    73  N   -0.794378
    74  H    0.372504
    75  H    0.446940
    76  N   -0.770199
    77  H    0.383595
    78  H    0.383062
    79  C    0.825108
    80  O   -0.529169
    81  H    0.431435
    82  H    0.429782
 Sum of Mulliken charges =   1.00000

 Dipole moment (field-independent basis, Debye):
    X=             29.8303    Y=            -11.0782    Z=              1.5343  Tot=             31.8579
 Quadrupole moment (field-independent basis, Debye-Ang):
   XX=            -34.2496   YY=           -107.9431   ZZ=           -233.0789
   XY=            -80.6586   XZ=             30.4114   YZ=              2.5152

 Normal termination of Gaussian 16 at Sun May 15 23:40:44 2022.
