 Gaussian 16, Revision C.01,
 Gaussian 16:  ES64L-G16RevC.01  3-Jul-2019

 ----------------------------------------------------------------------
 # B3LYP/6-31G* empiricaldispersion=gd3 guess=read geom=check nosymm in
 tegral(ultrafinegrid)
 ----------------------------------------------------------------------

 ------------------------------------------------------
 Candidate Structure: Conf:641 Charge calc in gas phase
 ------------------------------------------------------
 Structure from the checkpoint file:  "conf-641.chk"
 Charge =  1 Multiplicity = 1

                          Input orientation:
 ---------------------------------------------------------------------
 Center     Atomic      Atomic             Coordinates (Angstroms)
 Number     Number       Type             X           Y           Z
 ---------------------------------------------------------------------
      1          7           0       -2.108216   -4.320900   -2.944564
      2          1           0       -2.319705   -4.441107   -3.935189
      3          1           0       -1.132043   -4.019715   -2.928201
      4          6           0       -2.911434   -3.220991   -2.420711
      5          1           0       -3.966716   -3.430437   -2.633727
      6          6           0       -2.506519   -1.865463   -3.031983
      7          6           0       -2.729814   -3.147543   -0.870080
      8          1           0       -2.627142   -4.186064   -0.540472
      9          1           0       -1.784087   -2.635514   -0.650837
     10          8           0       -1.379677   -1.695702   -3.494852
     11          6           0       -3.878273   -2.483366   -0.141439
     12          6           0       -3.894080   -1.099379    0.090780
     13          1           0       -3.057052   -0.501452   -0.244601
     14          6           0       -4.988853   -3.233255    0.272562
     15          1           0       -4.998932   -4.307738    0.103918
     16          6           0       -4.983768   -0.475205    0.702787
     17          1           0       -4.970501    0.602361    0.842244
     18          6           0       -6.076327   -2.618031    0.894643
     19          1           0       -6.925995   -3.218128    1.209129
     20          6           0       -6.080018   -1.236674    1.109662
     21          1           0       -6.932155   -0.760276    1.586078
     22          7           0       -3.435162   -0.860833   -2.983706
     23          1           0       -4.226740   -1.000252   -2.363945
     24          6           0       -3.058920    0.538724   -3.237356
     25          1           0       -2.370106    0.521826   -4.086447
     26          6           0       -2.352315    1.156955   -2.012246
     27          6           0       -4.310436    1.329683   -3.622177
     28          1           0       -4.047849    2.380190   -3.765012
     29          1           0       -5.035906    1.290403   -2.793326
     30          8           0       -2.891891    2.008258   -1.304098
     31          8           0       -4.859073    0.867063   -4.842762
     32          1           0       -4.963506   -0.095184   -4.764636
     33          7           0       -1.112977    0.664050   -1.763511
     34          1           0       -0.707363   -0.050727   -2.366875
     35          6           0       -0.301518    1.151778   -0.668879
     36          1           0       -0.292978    2.250981   -0.687305
     37          6           0        1.126989    0.633754   -0.888913
     38          6           0       -0.838727    0.734560    0.714974
     39          1           0       -1.870490    1.091782    0.786608
     40          1           0       -0.258216    1.242033    1.501287
     41          8           0        1.416961   -0.144010   -1.790838
     42          8           0       -0.735786   -0.674706    0.872742
     43          1           0       -1.587784   -1.012843    1.184951
     44          7           0        2.061853    1.112223   -0.019954
     45          1           0        1.800290    1.624458    0.814529
     46          6           0        3.394087    0.546138   -0.005737
     47          1           0        3.318081   -0.541990   -0.139574
     48          6           0        3.997552    0.832097    1.376533
     49          6           0        4.245576    1.084701   -1.175269
     50          1           0        5.171325    0.504958   -1.294546
     51          1           0        3.680946    0.948444   -2.099599
     52          8           0        3.352696    1.366368    2.272022
     53          6           0        4.642289    2.535670   -0.994026
     54          8           0        4.841112    3.075964    0.075904
     55          8           0        4.791738    3.161601   -2.175411
     56          7           0        5.290725    0.416455    1.557785
     57          1           0        5.798767    0.120926    0.735392
     58          6           0        6.091128    1.068689    2.585658
     59          1           0        5.592165    2.017022    2.826203
     60          6           0        7.483711    1.455654    2.091916
     61          6           0        6.219187    0.243084    3.879002
     62          1           0        6.897547    0.788679    4.544601
     63          1           0        6.703674   -0.715257    3.649303
     64          8           0        8.353017    1.862154    2.828023
     65          6           0        4.865093   -0.011213    4.550169
     66          1           0        4.240264   -0.639633    3.909149
     67          1           0        4.304428    0.924828    4.662359
     68          6           0        4.996031   -0.706699    5.905562
     69          1           0        4.005470   -0.962378    6.301550
     70          1           0        5.586279   -1.625622    5.810313
     71          7           0        5.690558    0.178765    6.864821
     72          1           0        5.657903    1.172093    6.668034
     73          7           0        6.138404   -1.449541    8.455474
     74          1           0        6.752610   -1.826716    9.163376
     75          1           0        5.400253   -2.047757    8.113365
     76          7           0        7.094635    0.651126    8.649807
     77          1           0        7.426902    1.502319    8.218149
     78          1           0        7.364298    0.482732    9.608803
     79          6           0        6.299257   -0.204434    7.984360
     80          8           0        7.641391    1.304698    0.758922
     81          1           0        8.546977    1.597238    0.539913
     82          1           0        5.073382    4.077093   -1.984785
 ---------------------------------------------------------------------

 SCF Done:  E(RB3LYP) =  -2166.36460073     A.U. after    1 cycles

 Alpha  occ. eigenvalues --  -19.30287 -19.27330 -19.24078 -19.21904 -19.21558
 Alpha  occ. eigenvalues --  -19.20870 -19.18490 -19.18137 -19.17190 -19.16536
 Alpha  occ. eigenvalues --  -14.55075 -14.54833 -14.54794 -14.45497 -14.42824
 Alpha  occ. eigenvalues --  -14.41742 -14.40368 -14.35756 -10.51282 -10.42517
 Alpha  occ. eigenvalues --  -10.40133 -10.38516 -10.37909 -10.35559 -10.34299
 Alpha  occ. eigenvalues --  -10.33692 -10.33541 -10.32323 -10.31344 -10.30548
 Alpha  occ. eigenvalues --  -10.29737 -10.29360 -10.28418 -10.27829 -10.27471
 Alpha  occ. eigenvalues --  -10.27319 -10.25213 -10.24385 -10.24348 -10.24163
 Alpha  occ. eigenvalues --  -10.24135 -10.24082 -10.24039  -1.20969  -1.19672
 Alpha  occ. eigenvalues --   -1.18351  -1.13621  -1.11954  -1.10700  -1.09334
 Alpha  occ. eigenvalues --   -1.09215  -1.08829  -1.08298  -1.07855  -1.07834
 Alpha  occ. eigenvalues --   -1.05692  -1.02605  -0.99815  -0.97812  -0.96916
 Alpha  occ. eigenvalues --   -0.93432  -0.93147  -0.90748  -0.88628  -0.86391
 Alpha  occ. eigenvalues --   -0.83253  -0.82705  -0.82555  -0.80605  -0.80023
 Alpha  occ. eigenvalues --   -0.79704  -0.77388  -0.77014  -0.76082  -0.74864
 Alpha  occ. eigenvalues --   -0.72459  -0.71754  -0.70477  -0.70018  -0.69104
 Alpha  occ. eigenvalues --   -0.68607  -0.68563  -0.67904  -0.66501  -0.65890
 Alpha  occ. eigenvalues --   -0.65069  -0.64387  -0.63771  -0.63033  -0.62785
 Alpha  occ. eigenvalues --   -0.62725  -0.61561  -0.60517  -0.58756  -0.58441
 Alpha  occ. eigenvalues --   -0.57933  -0.57779  -0.57602  -0.57141  -0.56678
 Alpha  occ. eigenvalues --   -0.56411  -0.55999  -0.54827  -0.54522  -0.54363
 Alpha  occ. eigenvalues --   -0.54098  -0.53800  -0.53308  -0.52706  -0.52422
 Alpha  occ. eigenvalues --   -0.51928  -0.51673  -0.50932  -0.50565  -0.50231
 Alpha  occ. eigenvalues --   -0.50138  -0.49887  -0.49101  -0.48708  -0.48376
 Alpha  occ. eigenvalues --   -0.48193  -0.47496  -0.47100  -0.47068  -0.46696
 Alpha  occ. eigenvalues --   -0.46501  -0.46353  -0.46092  -0.45980  -0.45844
 Alpha  occ. eigenvalues --   -0.45301  -0.45049  -0.44460  -0.44115  -0.43948
 Alpha  occ. eigenvalues --   -0.43389  -0.42796  -0.42114  -0.41992  -0.41740
 Alpha  occ. eigenvalues --   -0.40901  -0.40172  -0.39603  -0.39472  -0.38960
 Alpha  occ. eigenvalues --   -0.38834  -0.38417  -0.37239  -0.35882  -0.35483
 Alpha  occ. eigenvalues --   -0.35042  -0.33741  -0.33442  -0.32977  -0.32220
 Alpha  occ. eigenvalues --   -0.31551  -0.30935  -0.30436  -0.30299  -0.29965
 Alpha  occ. eigenvalues --   -0.28697  -0.28314
 Alpha virt. eigenvalues --   -0.15159  -0.10855  -0.09268  -0.07752  -0.07229
 Alpha virt. eigenvalues --   -0.06604  -0.06272  -0.06124  -0.05799  -0.05459
 Alpha virt. eigenvalues --   -0.04623  -0.04029  -0.02837  -0.02356  -0.02246

 Mulliken charges:
               1
     1  N   -0.694945
     2  H    0.306042
     3  H    0.315604
     4  C   -0.073952
     5  H    0.149434
     6  C    0.588594
     7  C   -0.371438
     8  H    0.175731
     9  H    0.169542
    10  O   -0.526644
    11  C    0.147389
    12  C   -0.269125
    13  H    0.169060
    14  C   -0.183348
    15  H    0.140624
    16  C   -0.142889
    17  H    0.154776
    18  C   -0.124522
    19  H    0.143006
    20  C   -0.133199
    21  H    0.142764
    22  N   -0.617505
    23  H    0.343445
    24  C   -0.094386
    25  H    0.197130
    26  C    0.614973
    27  C   -0.028382
    28  H    0.171179
    29  H    0.136290
    30  O   -0.545370
    31  O   -0.614164
    32  H    0.394417
    33  N   -0.637462
    34  H    0.399869
    35  C   -0.035956
    36  H    0.178946
    37  C    0.627333
    38  C   -0.070290
    39  H    0.183105
    40  H    0.128557
    41  O   -0.517216
    42  O   -0.622054
    43  H    0.412546
    44  N   -0.627311
    45  H    0.360870
    46  C   -0.047267
    47  H    0.199660
    48  C    0.634500
    49  C   -0.385139
    50  H    0.177463
    51  H    0.235423
    52  O   -0.534172
    53  C    0.603063
    54  O   -0.474003
    55  O   -0.550318
    56  N   -0.614497
    57  H    0.353690
    58  C   -0.053887
    59  H    0.219999
    60  C    0.602880
    61  C   -0.263805
    62  H    0.151827
    63  H    0.155225
    64  O   -0.457611
    65  C   -0.315177
    66  H    0.199155
    67  H    0.185284
    68  C   -0.158368
    69  H    0.193925
    70  H    0.183818
    71  N   -0.595628
    72  H    0.371214
    73  N   -0.752924
    74  H    0.389932
    75  H    0.396893
    76  N   -0.760468
    77  H    0.391205
    78  H    0.388989
    79  C    0.833113
    80  O   -0.576585
    81  H    0.432046
    82  H    0.419479
 Sum of Mulliken charges =   1.00000

 Dipole moment (field-independent basis, Debye):
    X=             29.2875    Y=             -2.0885    Z=             34.1024  Tot=             45.0010
 Quadrupole moment (field-independent basis, Debye-Ang):
   XX=            -24.8980   YY=           -235.4222   ZZ=             22.4167
   XY=             14.8110   XZ=            198.0592   YZ=            -16.2389

 Normal termination of Gaussian 16 at Sun May 15 23:40:55 2022.
