 Gaussian 16, Revision C.01,
 Gaussian 16:  ES64L-G16RevC.01  3-Jul-2019

 ----------------------------------------------------------------------
 # B3LYP/6-31G* empiricaldispersion=gd3 guess=read geom=check nosymm in
 tegral(ultrafinegrid)
 ----------------------------------------------------------------------

 ------------------------------------------------------
 Candidate Structure: Conf:420 Charge calc in gas phase
 ------------------------------------------------------
 Structure from the checkpoint file:  "conf-420.chk"
 Charge =  1 Multiplicity = 1

                          Input orientation:
 ---------------------------------------------------------------------
 Center     Atomic      Atomic             Coordinates (Angstroms)
 Number     Number       Type             X           Y           Z
 ---------------------------------------------------------------------
      1          7           0       -4.091066   -1.695539   -4.947724
      2          1           0       -3.514152   -1.522570   -5.769174
      3          1           0       -3.704578   -2.530988   -4.506527
      4          6           0       -3.958909   -0.592797   -4.005122
      5          1           0       -4.091313    0.349641   -4.551098
      6          6           0       -2.599957   -0.589785   -3.291319
      7          6           0       -5.065227   -0.683361   -2.914573
      8          1           0       -5.047824   -1.706709   -2.518715
      9          1           0       -4.801612   -0.020926   -2.079904
     10          8           0       -2.000426   -1.640412   -3.045760
     11          6           0       -6.437069   -0.320270   -3.433727
     12          6           0       -6.989489    0.933812   -3.144193
     13          1           0       -6.437072    1.631158   -2.516567
     14          6           0       -7.168243   -1.208715   -4.234221
     15          1           0       -6.739863   -2.174807   -4.478489
     16          6           0       -8.242813    1.297544   -3.639764
     17          1           0       -8.657544    2.272930   -3.399292
     18          6           0       -8.420614   -0.847836   -4.730906
     19          1           0       -8.976027   -1.548121   -5.349124
     20          6           0       -8.962311    0.405581   -4.435944
     21          1           0       -9.939893    0.682908   -4.820835
     22          7           0       -2.116417    0.624285   -2.901791
     23          1           0       -2.707151    1.440905   -2.993473
     24          6           0       -0.900236    0.732374   -2.102998
     25          1           0       -0.199039   -0.012223   -2.492390
     26          6           0       -1.162185    0.412234   -0.620014
     27          6           0       -0.250356    2.117121   -2.223464
     28          1           0       -0.953042    2.887818   -1.876217
     29          1           0       -0.018792    2.306141   -3.276353
     30          8           0       -1.172540    1.304980    0.235907
     31          8           0        0.971003    2.170158   -1.504273
     32          1           0        0.755845    2.263514   -0.557896
     33          7           0       -1.307029   -0.899942   -0.326507
     34          1           0       -1.303825   -1.556526   -1.105757
     35          6           0       -1.269611   -1.404339    1.048278
     36          1           0       -1.809526   -0.704113    1.691821
     37          6           0        0.220639   -1.461502    1.458765
     38          6           0       -1.908698   -2.796863    1.129897
     39          1           0       -1.455630   -3.445181    0.363901
     40          1           0       -2.978320   -2.716225    0.914003
     41          8           0        0.843717   -2.520861    1.546024
     42          8           0       -1.770805   -3.338318    2.426514
     43          1           0       -0.829949   -3.566552    2.519564
     44          7           0        0.806523   -0.242045    1.594452
     45          1           0        0.238906    0.587825    1.420052
     46          6           0        2.241156   -0.066240    1.470766
     47          1           0        2.762622   -0.647309    2.237387
     48          6           0        2.529795    1.430295    1.616141
     49          6           0        2.727662   -0.523741    0.066630
     50          1           0        2.284192   -1.503089   -0.141201
     51          1           0        2.372463    0.170594   -0.705401
     52          8           0        1.686173    2.286647    1.365710
     53          6           0        4.219857   -0.690507   -0.071701
     54          8           0        5.061216   -0.495662    0.795242
     55          8           0        4.544857   -1.136728   -1.292096
     56          7           0        3.814602    1.751764    1.957145
     57          1           0        4.480126    0.988861    1.816895
     58          6           0        4.274479    3.077489    1.583577
     59          1           0        3.617188    3.822584    2.038601
     60          6           0        4.188387    3.238952    0.055593
     61          6           0        5.720617    3.259729    2.073069
     62          1           0        6.363606    2.552358    1.530516
     63          1           0        5.733036    2.960378    3.128584
     64          8           0        4.306931    2.328787   -0.730871
     65          6           0        6.258567    4.686037    1.921624
     66          1           0        5.607049    5.391165    2.453923
     67          1           0        6.242915    4.995156    0.871020
     68          6           0        7.696480    4.841691    2.426640
     69          1           0        8.372349    4.174047    1.884961
     70          1           0        8.066067    5.856525    2.258837
     71          7           0        7.826121    4.587866    3.878619
     72          1           0        7.514439    5.339867    4.481344
     73          7           0        8.722912    2.433957    3.826535
     74          1           0        8.729475    1.494393    4.197734
     75          1           0        9.139322    2.573563    2.918324
     76          7           0        7.799624    3.254249    5.775752
     77          1           0        7.166222    3.877505    6.256809
     78          1           0        8.242935    2.533606    6.328913
     79          6           0        8.111899    3.431003    4.480299
     80          8           0        4.010238    4.526595   -0.302252
     81          1           0        3.923302    4.544212   -1.275594
     82          1           0        5.516213   -1.222606   -1.323009
 ---------------------------------------------------------------------

 SCF Done:  E(RB3LYP) =  -2166.37655280     A.U. after    1 cycles

 Alpha  occ. eigenvalues --  -19.29238 -19.27721 -19.23449 -19.22818 -19.21197
 Alpha  occ. eigenvalues --  -19.20095 -19.18756 -19.18569 -19.18476 -19.18441
 Alpha  occ. eigenvalues --  -14.55793 -14.55570 -14.55557 -14.44380 -14.43462
 Alpha  occ. eigenvalues --  -14.42618 -14.41844 -14.36437 -10.52157 -10.41404
 Alpha  occ. eigenvalues --  -10.40926 -10.39112 -10.37745 -10.35442 -10.35139
 Alpha  occ. eigenvalues --  -10.34938 -10.34056 -10.32758 -10.32193 -10.31659
 Alpha  occ. eigenvalues --  -10.29725 -10.29676 -10.29015 -10.28414 -10.27970
 Alpha  occ. eigenvalues --  -10.27603 -10.24033 -10.22988 -10.22274 -10.22125
 Alpha  occ. eigenvalues --  -10.21959 -10.21881 -10.21611  -1.20389  -1.20046
 Alpha  occ. eigenvalues --   -1.19041  -1.13275  -1.11152  -1.11057  -1.10230
 Alpha  occ. eigenvalues --   -1.09906  -1.09813  -1.09675  -1.08480  -1.07195
 Alpha  occ. eigenvalues --   -1.06004  -1.02071  -0.99641  -0.99361  -0.98480
 Alpha  occ. eigenvalues --   -0.94149  -0.94087  -0.88889  -0.88541  -0.86406
 Alpha  occ. eigenvalues --   -0.83763  -0.83408  -0.81718  -0.80570  -0.80331
 Alpha  occ. eigenvalues --   -0.77975  -0.77379  -0.77366  -0.75889  -0.75703
 Alpha  occ. eigenvalues --   -0.73443  -0.71543  -0.70621  -0.69683  -0.69240
 Alpha  occ. eigenvalues --   -0.69103  -0.68749  -0.67838  -0.66319  -0.64944
 Alpha  occ. eigenvalues --   -0.64878  -0.64513  -0.64042  -0.63587  -0.62226
 Alpha  occ. eigenvalues --   -0.61709  -0.61468  -0.60539  -0.59726  -0.58601
 Alpha  occ. eigenvalues --   -0.58393  -0.58031  -0.57601  -0.57337  -0.56913
 Alpha  occ. eigenvalues --   -0.56753  -0.56019  -0.55947  -0.55320  -0.55229
 Alpha  occ. eigenvalues --   -0.54334  -0.53835  -0.53517  -0.53273  -0.52853
 Alpha  occ. eigenvalues --   -0.52511  -0.52147  -0.50956  -0.50331  -0.50149
 Alpha  occ. eigenvalues --   -0.49640  -0.49234  -0.48834  -0.48665  -0.48021
 Alpha  occ. eigenvalues --   -0.47961  -0.47692  -0.47571  -0.47378  -0.47242
 Alpha  occ. eigenvalues --   -0.46703  -0.46527  -0.46299  -0.45662  -0.45574
 Alpha  occ. eigenvalues --   -0.45125  -0.44963  -0.44830  -0.44431  -0.43919
 Alpha  occ. eigenvalues --   -0.43740  -0.43118  -0.42595  -0.41860  -0.41146
 Alpha  occ. eigenvalues --   -0.41088  -0.40325  -0.39301  -0.38407  -0.38105
 Alpha  occ. eigenvalues --   -0.37504  -0.37413  -0.37057  -0.36652  -0.35734
 Alpha  occ. eigenvalues --   -0.35019  -0.34439  -0.34226  -0.33453  -0.32778
 Alpha  occ. eigenvalues --   -0.32200  -0.31802  -0.30783  -0.30168  -0.29193
 Alpha  occ. eigenvalues --   -0.27815  -0.27353
 Alpha virt. eigenvalues --   -0.16046  -0.11810  -0.09196  -0.08756  -0.07450
 Alpha virt. eigenvalues --   -0.07291  -0.06990  -0.06605  -0.06142  -0.04931
 Alpha virt. eigenvalues --   -0.03394  -0.03120  -0.02908  -0.02701  -0.01586

 Mulliken charges:
               1
     1  N   -0.689780
     2  H    0.307214
     3  H    0.316379
     4  C   -0.076622
     5  H    0.148257
     6  C    0.606961
     7  C   -0.354868
     8  H    0.162137
     9  H    0.140436
    10  O   -0.547157
    11  C    0.170690
    12  C   -0.189207
    13  H    0.110273
    14  C   -0.152429
    15  H    0.143151
    16  C   -0.128512
    17  H    0.130186
    18  C   -0.133543
    19  H    0.134442
    20  C   -0.128490
    21  H    0.133551
    22  N   -0.604288
    23  H    0.339141
    24  C   -0.069688
    25  H    0.188040
    26  C    0.618348
    27  C   -0.045878
    28  H    0.143209
    29  H    0.154927
    30  O   -0.551233
    31  O   -0.653487
    32  H    0.440955
    33  N   -0.619010
    34  H    0.379321
    35  C   -0.078411
    36  H    0.194246
    37  C    0.621724
    38  C   -0.039466
    39  H    0.139293
    40  H    0.161948
    41  O   -0.547081
    42  O   -0.621602
    43  H    0.413723
    44  N   -0.645499
    45  H    0.401483
    46  C   -0.033811
    47  H    0.187180
    48  C    0.611569
    49  C   -0.411020
    50  H    0.228509
    51  H    0.232657
    52  O   -0.526133
    53  C    0.631311
    54  O   -0.520003
    55  O   -0.542478
    56  N   -0.626136
    57  H    0.375796
    58  C   -0.022629
    59  H    0.200369
    60  C    0.595920
    61  C   -0.311267
    62  H    0.159226
    63  H    0.148825
    64  O   -0.455542
    65  C   -0.267883
    66  H    0.167012
    67  H    0.196507
    68  C   -0.183671
    69  H    0.172864
    70  H    0.211205
    71  N   -0.585518
    72  H    0.370914
    73  N   -0.744831
    74  H    0.393599
    75  H    0.393847
    76  N   -0.754948
    77  H    0.389707
    78  H    0.391996
    79  C    0.821528
    80  O   -0.564591
    81  H    0.429383
    82  H    0.416754
 Sum of Mulliken charges =   1.00000

 Dipole moment (field-independent basis, Debye):
    X=             37.2052    Y=             18.9390    Z=             14.6863  Tot=             44.2560
 Quadrupole moment (field-independent basis, Debye-Ang):
   XX=             68.0751   YY=           -176.8202   ZZ=           -140.8031
   XY=            122.5898   XZ=            165.3106   YZ=             66.5276

 Normal termination of Gaussian 16 at Sun May 15 23:40:50 2022.
