 Gaussian 16, Revision C.01,
 Gaussian 16:  ES64L-G16RevC.01  3-Jul-2019

 ----------------------------------------------------------------------
 # B3LYP/6-31G* empiricaldispersion=gd3 guess=read geom=check nosymm in
 tegral(ultrafinegrid)
 ----------------------------------------------------------------------

 ------------------------------------------------------
 Candidate Structure: Conf:112 Charge calc in gas phase
 ------------------------------------------------------
 Structure from the checkpoint file:  "conf-112.chk"
 Charge =  1 Multiplicity = 1

                          Input orientation:
 ---------------------------------------------------------------------
 Center     Atomic      Atomic             Coordinates (Angstroms)
 Number     Number       Type             X           Y           Z
 ---------------------------------------------------------------------
      1          7           0      -10.026514   -1.037749   -7.861685
      2          1           0      -10.042252   -0.945486   -8.881966
      3          1           0      -10.944276   -0.775628   -7.490909
      4          1           0       -9.780777   -2.042611   -7.621062
      5          6           0       -8.880297   -0.283385   -7.208749
      6          1           0       -8.592573    0.542816   -7.860167
      7          6           0       -7.788488   -1.378636   -7.109167
      8          6           0       -9.336294    0.207386   -5.821407
      9          1           0       -9.682310   -0.667582   -5.253897
     10          1           0      -10.200657    0.872924   -5.963748
     11          8           0       -8.172343   -2.558608   -7.125224
     12          6           0       -8.270397    0.957143   -4.991156
     13          1           0       -7.418239    0.288785   -4.827115
     14          6           0       -7.757266    2.224401   -5.690714
     15          1           0       -8.573852    2.937147   -5.861454
     16          1           0       -7.278057    2.025698   -6.657296
     17          1           0       -7.002304    2.713264   -5.069124
     18          6           0       -8.860738    1.300448   -3.615551
     19          1           0       -9.716890    1.980187   -3.708251
     20          1           0       -9.194271    0.402018   -3.084031
     21          1           0       -8.107307    1.794804   -2.994599
     22          7           0       -6.540126   -0.952415   -6.984370
     23          1           0       -6.338875    0.042139   -6.863384
     24          6           0       -5.409666   -1.772342   -6.535525
     25          1           0       -5.810155   -2.690396   -6.093948
     26          6           0       -4.738696   -0.878953   -5.465134
     27          6           0       -4.451211   -2.136600   -7.702317
     28          1           0       -4.024005   -1.193723   -8.072394
     29          8           0       -4.868239    0.350326   -5.544513
     30          6           0       -3.307938   -3.043572   -7.221060
     31          1           0       -3.700755   -3.976824   -6.796699
     32          1           0       -2.671914   -2.571997   -6.467498
     33          1           0       -2.669260   -3.315100   -8.067226
     34          6           0       -5.227734   -2.810599   -8.843145
     35          1           0       -5.715592   -3.728894   -8.496472
     36          1           0       -4.545673   -3.074957   -9.657474
     37          1           0       -5.999045   -2.152603   -9.256470
     38          7           0       -4.072189   -1.509877   -4.492313
     39          1           0       -3.882414   -2.507968   -4.549572
     40          6           0       -3.235004   -0.821595   -3.511271
     41          1           0       -3.036181    0.187574   -3.887338
     42          6           0       -1.935424   -1.649229   -3.460705
     43          6           0       -3.939262   -0.719087   -2.127005
     44          1           0       -4.078381   -1.747346   -1.764252
     45          8           0       -1.947329   -2.842654   -3.770443
     46          6           0       -3.077970    0.043314   -1.107943
     47          1           0       -2.820072    1.043959   -1.482689
     48          1           0       -2.159413   -0.494075   -0.861053
     49          1           0       -3.639800    0.183110   -0.178057
     50          6           0       -5.318810   -0.057574   -2.276277
     51          1           0       -5.223733    0.950761   -2.694965
     52          1           0       -5.978609   -0.633841   -2.934087
     53          1           0       -5.805415    0.019731   -1.297914
     54          7           0       -0.814536   -0.987592   -3.105939
     55          1           0       -0.877180   -0.067113   -2.684133
     56          6           0        0.404496   -1.704602   -2.792681
     57          1           0        0.661978   -2.356306   -3.634645
     58          6           0        0.226469   -2.563929   -1.525700
     59          6           0        1.521923   -0.661738   -2.578458
     60          1           0        1.807498   -0.252245   -3.561095
     61          1           0        2.405498   -1.159294   -2.152640
     62          8           0       -0.610984   -2.304806   -0.660653
     63          8           0        1.008884    0.338225   -1.729868
     64          1           0        1.758696    0.835314   -1.313269
     65          7           0        1.113954   -3.582641   -1.412106
     66          1           0        1.845940   -3.719973   -2.102301
     67          6           0        1.325437   -4.325345   -0.169049
     68          1           0        0.350644   -4.497311    0.297270
     69          6           0        2.200719   -3.420947    0.721010
     70          6           0        2.034288   -5.655228   -0.494164
     71          1           0        2.329248   -6.109547    0.463990
     72          8           0        3.432837   -3.544457    0.768932
     73          6           0        1.145226   -6.619448   -1.266521
     74          1           0        0.265584   -6.896248   -0.675584
     75          1           0        0.805855   -6.167527   -2.204012
     76          1           0        1.710992   -7.524700   -1.504015
     77          8           0        3.186080   -5.386794   -1.291738
     78          1           0        3.765494   -4.845809   -0.717998
     79          7           0        1.545032   -2.405779    1.327645
     80          1           0        0.558651   -2.292140    1.107795
     81          6           0        2.290177   -1.192059    1.663499
     82          1           0        3.086359   -1.103786    0.915640
     83          6           0        2.956284   -1.260387    3.050917
     84          6           0        1.386424    0.040815    1.575949
     85          1           0        0.648072   -0.001307    2.383036
     86          1           0        0.866136    0.019136    0.614578
     87          8           0        2.370836   -0.942868    4.082111
     88          6           0        2.200717    1.342784    1.711599
     89          1           0        2.564317    1.452479    2.737617
     90          1           0        1.551392    2.196800    1.490187
     91          6           0        3.358776    1.378741    0.720178
     92          7           0        4.592792    1.412915    1.255461
     93          1           0        4.759114    1.253213    2.251924
     94          1           0        5.380856    1.370203    0.622303
     95          8           0        3.176509    1.357165   -0.509114
     96          7           0        4.274923   -1.577160    3.015740
     97          1           0        4.655849   -2.079007    2.219414
     98          6           0        5.093051   -1.491902    4.199969
     99          1           0        4.792403   -2.248438    4.942309
    100          6           0        4.967049   -0.089367    4.816384
    101          6           0        6.577899   -1.723847    3.786355
    102          1           0        6.899053   -0.840995    3.223316
    103          8           0        4.939215    0.931340    4.120235
    104          6           0        7.498994   -1.940805    4.981957
    105          1           0        7.522870   -1.069726    5.644476
    106          1           0        7.177858   -2.818064    5.561665
    107          1           0        8.515702   -2.124608    4.622947
    108          8           0        6.658346   -2.791572    2.843084
    109          1           0        6.508859   -3.626451    3.318198
    110          7           0        4.996562   -0.021562    6.163854
    111          1           0        5.132819   -0.871997    6.693395
    112          6           0        5.239633    1.248333    6.845814
    113          1           0        4.480401    1.958952    6.503908
    114          6           0        6.655559    1.738892    6.469289
    115          6           0        5.147507    1.048833    8.358663
    116          1           0        5.275270    2.005673    8.873566
    117          1           0        4.173061    0.633458    8.635657
    118          1           0        5.942808    0.374903    8.695033
    119          8           0        7.627081    1.002622    6.640579
    120          7           0        6.733187    2.988827    5.972723
    121          1           0        5.900694    3.554007    5.854522
    122          6           0        7.973444    3.605794    5.531047
    123          1           0        8.793113    3.073811    6.020681
    124          6           0        7.925806    5.077657    5.961466
    125          6           0        8.132719    3.558867    3.991072
    126          1           0        7.305884    4.142835    3.564664
    127          1           0        9.059944    4.087737    3.725405
    128          8           0        6.860304    5.693467    5.986822
    129          6           0        8.140911    2.154155    3.361906
    130          1           0        7.227689    1.644043    3.690277
    131          6           0        8.084850    2.279791    1.830851
    132          1           0        8.976820    2.787919    1.441749
    133          1           0        7.207591    2.853360    1.507039
    134          1           0        8.042468    1.289265    1.359653
    135          6           0        9.351231    1.315345    3.797068
    136          1           0       10.292044    1.820339    3.539340
    137          1           0        9.349537    0.344992    3.284924
    138          1           0        9.335072    1.118386    4.872357
    139          7           0        9.121052    5.643666    6.250376
    140          1           0        9.983905    5.119535    6.160701
    141          6           0        9.253550    7.068996    6.503357
    142          1           0        8.628883    7.612730    5.784753
    143          6           0       10.706949    7.444381    6.258251
    144          6           0        8.807088    7.455111    7.925684
    145          1           0        8.900461    8.534047    8.076610
    146          1           0        7.761942    7.162160    8.049790
    147          1           0        9.415220    6.935238    8.673193
    148          8           0       11.599916    6.652485    6.041604
    149          8           0       10.891608    8.775957    6.333263
    150          1           0       11.843586    8.941513    6.192013
 ---------------------------------------------------------------------

 SCF Done:  E(RB3LYP) =  -3455.72668072     A.U. after    2 cycles

 Alpha  occ. eigenvalues --  -19.26250 -19.25168 -19.21153 -19.20458 -19.19723
 Alpha  occ. eigenvalues --  -19.18826 -19.18797 -19.18634 -19.18530 -19.18309
 Alpha  occ. eigenvalues --  -19.17950 -19.16678 -19.16171 -19.16037 -19.15944
 Alpha  occ. eigenvalues --  -14.60100 -14.48771 -14.44735 -14.42584 -14.42442
 Alpha  occ. eigenvalues --  -14.42018 -14.41585 -14.40839 -14.40641 -14.40109
 Alpha  occ. eigenvalues --  -14.39519 -10.42971 -10.40347 -10.38191 -10.37614
 Alpha  occ. eigenvalues --  -10.35695 -10.35183 -10.34887 -10.34786 -10.33834
 Alpha  occ. eigenvalues --  -10.33615 -10.33312 -10.33203 -10.33056 -10.32830
 Alpha  occ. eigenvalues --  -10.30576 -10.30269 -10.29736 -10.29687 -10.29572
 Alpha  occ. eigenvalues --  -10.29293 -10.29161 -10.28943 -10.28787 -10.28758
 Alpha  occ. eigenvalues --  -10.28708 -10.27987 -10.27694 -10.27559 -10.26961
 Alpha  occ. eigenvalues --  -10.26403 -10.25869 -10.25342 -10.24229 -10.23780
 Alpha  occ. eigenvalues --  -10.23653 -10.23594 -10.22916 -10.22859 -10.22570
 Alpha  occ. eigenvalues --  -10.22372 -10.22368 -10.22191 -10.21296 -10.20200
 Alpha  occ. eigenvalues --   -1.18788  -1.16180  -1.13827  -1.13049  -1.11077
 Alpha  occ. eigenvalues --   -1.10463  -1.10037  -1.09513  -1.08467  -1.08067
 Alpha  occ. eigenvalues --   -1.08018  -1.07628  -1.07466  -1.07204  -1.06375
 Alpha  occ. eigenvalues --   -1.06213  -1.05595  -1.01337  -0.99100  -0.98972
 Alpha  occ. eigenvalues --   -0.98342  -0.97986  -0.97481  -0.97064  -0.96839
 Alpha  occ. eigenvalues --   -0.94635  -0.94422  -0.90341  -0.87829  -0.87267
 Alpha  occ. eigenvalues --   -0.85468  -0.85157  -0.83926  -0.83601  -0.82848
 Alpha  occ. eigenvalues --   -0.82271  -0.81528  -0.81457  -0.79577  -0.78428
 Alpha  occ. eigenvalues --   -0.78274  -0.78097  -0.77411  -0.76535  -0.76044
 Alpha  occ. eigenvalues --   -0.74557  -0.74370  -0.73757  -0.72965  -0.71989
 Alpha  occ. eigenvalues --   -0.71650  -0.71394  -0.71177  -0.69961  -0.69586
 Alpha  occ. eigenvalues --   -0.68499  -0.68249  -0.67680  -0.67640  -0.66749
 Alpha  occ. eigenvalues --   -0.66676  -0.66027  -0.65515  -0.65434  -0.64737
 Alpha  occ. eigenvalues --   -0.64376  -0.63862  -0.63675  -0.63259  -0.62844
 Alpha  occ. eigenvalues --   -0.62808  -0.62589  -0.61895  -0.60855  -0.60456
 Alpha  occ. eigenvalues --   -0.59344  -0.58880  -0.58539  -0.58377  -0.58193
 Alpha  occ. eigenvalues --   -0.57952  -0.56912  -0.56706  -0.56340  -0.56165
 Alpha  occ. eigenvalues --   -0.55981  -0.55590  -0.55383  -0.55209  -0.54959
 Alpha  occ. eigenvalues --   -0.54712  -0.54420  -0.54290  -0.54172  -0.53922
 Alpha  occ. eigenvalues --   -0.53636  -0.52839  -0.52612  -0.52551  -0.51956
 Alpha  occ. eigenvalues --   -0.51948  -0.51702  -0.51601  -0.51501  -0.51075
 Alpha  occ. eigenvalues --   -0.50878  -0.50442  -0.50057  -0.49919  -0.49887
 Alpha  occ. eigenvalues --   -0.49480  -0.49416  -0.49124  -0.48820  -0.48531
 Alpha  occ. eigenvalues --   -0.48450  -0.48247  -0.47970  -0.47913  -0.47723
 Alpha  occ. eigenvalues --   -0.47548  -0.47262  -0.47025  -0.46990  -0.46884
 Alpha  occ. eigenvalues --   -0.46767  -0.46444  -0.46225  -0.46191  -0.45939
 Alpha  occ. eigenvalues --   -0.45759  -0.45696  -0.45527  -0.45221  -0.45183
 Alpha  occ. eigenvalues --   -0.45170  -0.45010  -0.44591  -0.44358  -0.44222
 Alpha  occ. eigenvalues --   -0.43983  -0.43834  -0.43738  -0.43712  -0.43545
 Alpha  occ. eigenvalues --   -0.43421  -0.43272  -0.42798  -0.42765  -0.42695
 Alpha  occ. eigenvalues --   -0.42605  -0.42311  -0.42276  -0.42160  -0.42086
 Alpha  occ. eigenvalues --   -0.41860  -0.41671  -0.41629  -0.41407  -0.41130
 Alpha  occ. eigenvalues --   -0.40970  -0.40869  -0.40550  -0.40486  -0.40411
 Alpha  occ. eigenvalues --   -0.40180  -0.39861  -0.39736  -0.39484  -0.39218
 Alpha  occ. eigenvalues --   -0.38384  -0.38237  -0.38216  -0.37752  -0.37337
 Alpha  occ. eigenvalues --   -0.36448  -0.36025  -0.35950  -0.35314  -0.34540
 Alpha  occ. eigenvalues --   -0.34406  -0.33785  -0.33623  -0.33318  -0.32988
 Alpha  occ. eigenvalues --   -0.32696  -0.32488  -0.32327  -0.32209  -0.31910
 Alpha  occ. eigenvalues --   -0.31511  -0.30903  -0.30844  -0.30422  -0.30340
 Alpha  occ. eigenvalues --   -0.30316  -0.29737  -0.29302  -0.28986  -0.28727
 Alpha virt. eigenvalues --   -0.12056  -0.10821  -0.07130  -0.06161  -0.05623
 Alpha virt. eigenvalues --   -0.04764  -0.04489  -0.04424  -0.04385  -0.03270
 Alpha virt. eigenvalues --   -0.02997  -0.02555  -0.02328  -0.02067  -0.01636

 Mulliken charges:
               1
     1  N   -0.751451
     2  H    0.416521
     3  H    0.412889
     4  H    0.430470
     5  C   -0.123820
     6  H    0.212696
     7  C    0.647064
     8  C   -0.283962
     9  H    0.171711
    10  H    0.161720
    11  O   -0.542524
    12  C   -0.110567
    13  H    0.168082
    14  C   -0.455169
    15  H    0.151711
    16  H    0.133984
    17  H    0.192020
    18  C   -0.452087
    19  H    0.152696
    20  H    0.155310
    21  H    0.177852
    22  N   -0.599683
    23  H    0.384936
    24  C   -0.074273
    25  H    0.184943
    26  C    0.631228
    27  C   -0.076428
    28  H    0.148592
    29  O   -0.558989
    30  C   -0.477063
    31  H    0.153563
    32  H    0.176395
    33  H    0.168260
    34  C   -0.445309
    35  H    0.162542
    36  H    0.167110
    37  H    0.129483
    38  N   -0.600449
    39  H    0.364893
    40  C   -0.075591
    41  H    0.180974
    42  C    0.644815
    43  C   -0.065408
    44  H    0.147415
    45  O   -0.551993
    46  C   -0.500834
    47  H    0.137961
    48  H    0.211152
    49  H    0.153637
    50  C   -0.451572
    51  H    0.154724
    52  H    0.134303
    53  H    0.153412
    54  N   -0.600646
    55  H    0.371307
    56  C   -0.076729
    57  H    0.176621
    58  C    0.655882
    59  C   -0.036850
    60  H    0.144802
    61  H    0.144475
    62  O   -0.542653
    63  O   -0.674329
    64  H    0.456632
    65  N   -0.598235
    66  H    0.350040
    67  C   -0.079633
    68  H    0.180329
    69  C    0.617925
    70  C    0.117536
    71  H    0.140033
    72  O   -0.555378
    73  C   -0.450076
    74  H    0.146774
    75  H    0.159331
    76  H    0.170658
    77  O   -0.650466
    78  H    0.420761
    79  N   -0.602386
    80  H    0.374137
    81  C   -0.064014
    82  H    0.171671
    83  C    0.641553
    84  C   -0.326295
    85  H    0.173896
    86  H    0.185819
    87  O   -0.532483
    88  C   -0.376279
    89  H    0.187206
    90  H    0.173400
    91  C    0.593151
    92  N   -0.770292
    93  H    0.416697
    94  H    0.339905
    95  O   -0.565337
    96  N   -0.624658
    97  H    0.372743
    98  C   -0.039272
    99  H    0.141928
   100  C    0.672799
   101  C    0.106712
   102  H    0.168182
   103  O   -0.560796
   104  C   -0.511575
   105  H    0.213192
   106  H    0.127986
   107  H    0.174291
   108  O   -0.617409
   109  H    0.395973
   110  N   -0.581778
   111  H    0.340616
   112  C   -0.032276
   113  H    0.168723
   114  C    0.639741
   115  C   -0.486650
   116  H    0.174453
   117  H    0.169837
   118  H    0.176529
   119  O   -0.542338
   120  N   -0.583628
   121  H    0.350757
   122  C   -0.077820
   123  H    0.179618
   124  C    0.629860
   125  C   -0.253558
   126  H    0.148580
   127  H    0.137540
   128  O   -0.543580
   129  C   -0.091906
   130  H    0.160339
   131  C   -0.460121
   132  H    0.146694
   133  H    0.142982
   134  H    0.137594
   135  C   -0.473147
   136  H    0.133868
   137  H    0.139754
   138  H    0.183080
   139  N   -0.617343
   140  H    0.354696
   141  C   -0.021687
   142  H    0.198618
   143  C    0.580078
   144  C   -0.451921
   145  H    0.172980
   146  H    0.191364
   147  H    0.157382
   148  O   -0.466484
   149  O   -0.560255
   150  H    0.422359
 Sum of Mulliken charges =   1.00000

 Dipole moment (field-independent basis, Debye):
    X=            -27.0748    Y=              0.0481    Z=            -21.4914  Tot=             34.5677
 Quadrupole moment (field-independent basis, Debye-Ang):
   XX=              3.4270   YY=           -371.4288   ZZ=           -143.3519
   XY=             56.4619   XZ=            323.1018   YZ=             33.7027

 Normal termination of Gaussian 16 at Mon Jul 18 20:43:47 2022.
