 Gaussian 16, Revision C.01,
 Gaussian 16:  ES64L-G16RevC.01  3-Jul-2019

 ----------------------------------------------------------------------
 # B3LYP/6-31G* empiricaldispersion=gd3 guess=read geom=check nosymm in
 tegral(ultrafinegrid)
 ----------------------------------------------------------------------

 ------------------------------------------------------
 Candidate Structure: Conf:549 Charge calc in gas phase
 ------------------------------------------------------
 Structure from the checkpoint file:  "conf-549.chk"
 Charge =  1 Multiplicity = 1

                          Input orientation:
 ---------------------------------------------------------------------
 Center     Atomic      Atomic             Coordinates (Angstroms)
 Number     Number       Type             X           Y           Z
 ---------------------------------------------------------------------
      1          7           0       -8.299563   -7.300261    0.596696
      2          1           0       -8.508343   -8.244582    0.258572
      3          1           0       -8.895225   -7.098656    1.404712
      4          1           0       -7.270879   -7.257376    0.851876
      5          6           0       -8.388314   -6.241847   -0.489825
      6          1           0       -9.063917   -6.601488   -1.267506
      7          6           0       -6.917906   -6.146252   -0.969366
      8          6           0       -8.881026   -4.923557    0.137801
      9          1           0       -8.192850   -4.663161    0.953781
     10          1           0       -9.869158   -5.109737    0.584397
     11          8           0       -6.040011   -6.527703   -0.180336
     12          6           0       -8.998238   -3.725903   -0.830986
     13          1           0       -8.013491   -3.527328   -1.266290
     14          6           0       -9.982811   -3.992521   -1.978093
     15          1           0      -10.993202   -4.181996   -1.594201
     16          1           0       -9.697671   -4.847146   -2.604757
     17          1           0      -10.027926   -3.124701   -2.641723
     18          6           0       -9.409825   -2.476782   -0.038439
     19          1           0      -10.402351   -2.600168    0.412495
     20          1           0       -8.695551   -2.254874    0.762572
     21          1           0       -9.447811   -1.606377   -0.700532
     22          7           0       -6.721401   -5.632577   -2.177613
     23          1           0       -7.500089   -5.236634   -2.705064
     24          6           0       -5.432479   -5.127155   -2.664600
     25          1           0       -4.749942   -5.069709   -1.810662
     26          6           0       -5.783477   -3.720483   -3.199517
     27          6           0       -4.822053   -6.049083   -3.753242
     28          1           0       -5.523418   -6.051612   -4.599477
     29          8           0       -6.924842   -3.504526   -3.623650
     30          6           0       -3.465089   -5.515003   -4.237784
     31          1           0       -2.751822   -5.443535   -3.406059
     32          1           0       -3.538103   -4.530264   -4.707012
     33          1           0       -3.037069   -6.201068   -4.975134
     34          6           0       -4.679995   -7.482249   -3.221553
     35          1           0       -4.018729   -7.512076   -2.347631
     36          1           0       -4.251783   -8.129829   -3.993237
     37          1           0       -5.646385   -7.905748   -2.929655
     38          7           0       -4.809818   -2.801009   -3.140815
     39          1           0       -3.867378   -3.057348   -2.864665
     40          6           0       -4.935392   -1.451906   -3.686815
     41          1           0       -5.794978   -1.447046   -4.363829
     42          6           0       -3.629873   -1.187873   -4.444470
     43          6           0       -5.161564   -0.399563   -2.559550
     44          1           0       -4.295377   -0.451132   -1.887611
     45          8           0       -2.564795   -1.669655   -4.024410
     46          6           0       -5.237734    1.027473   -3.122135
     47          1           0       -6.009866    1.108770   -3.899927
     48          1           0       -4.284703    1.368052   -3.533336
     49          1           0       -5.507985    1.724011   -2.322105
     50          6           0       -6.427287   -0.747518   -1.762105
     51          1           0       -7.312848   -0.751837   -2.408832
     52          1           0       -6.350051   -1.732098   -1.289000
     53          1           0       -6.584970   -0.008010   -0.970023
     54          7           0       -3.706828   -0.410085   -5.535146
     55          1           0       -4.567535    0.087283   -5.748485
     56          6           0       -2.525096    0.174116   -6.174945
     57          1           0       -1.821838   -0.625905   -6.424804
     58          6           0       -1.909640    1.186353   -5.188504
     59          6           0       -3.012529    0.902366   -7.442725
     60          1           0       -3.347306    0.168595   -8.182375
     61          1           0       -2.176168    1.470527   -7.874284
     62          8           0       -2.471337    2.272636   -4.994630
     63          8           0       -4.126479    1.726242   -7.143738
     64          1           0       -3.805704    2.345034   -6.454349
     65          7           0       -0.794700    0.788286   -4.551834
     66          1           0       -0.381726   -0.112744   -4.760501
     67          6           0       -0.224515    1.503593   -3.423090
     68          1           0       -0.676893    2.497632   -3.411014
     69          6           0        1.294456    1.527259   -3.603273
     70          6           0       -0.559494    0.754474   -2.088464
     71          1           0        0.090248   -0.133685   -2.052984
     72          8           0        1.873733    0.515220   -3.988168
     73          6           0       -0.301155    1.630071   -0.870026
     74          1           0        0.740703    1.959157   -0.816661
     75          1           0       -0.949188    2.513633   -0.901037
     76          1           0       -0.532450    1.068494    0.039342
     77          8           0       -1.923370    0.358353   -2.064852
     78          1           0       -2.015526   -0.401409   -2.667491
     79          7           0        1.912294    2.691716   -3.273530
     80          1           0        1.373303    3.403511   -2.792821
     81          6           0        3.346220    2.760241   -3.034565
     82          1           0        3.753830    1.772826   -3.269451
     83          6           0        3.542389    3.096203   -1.551088
     84          6           0        4.014866    3.819720   -3.941340
     85          1           0        3.589209    4.804245   -3.713067
     86          1           0        3.754828    3.567648   -4.973455
     87          8           0        2.701150    3.766985   -0.936274
     88          6           0        5.549262    3.870325   -3.826351
     89          1           0        5.867378    4.159914   -2.819872
     90          1           0        5.923409    4.629521   -4.521691
     91          6           0        6.151179    2.530735   -4.256442
     92          7           0        6.893142    1.873199   -3.312961
     93          1           0        7.216889    2.299292   -2.449009
     94          1           0        7.341699    1.015295   -3.608265
     95          8           0        5.912827    2.056017   -5.358000
     96          7           0        4.691003    2.667221   -0.995193
     97          1           0        5.324327    2.071623   -1.518138
     98          6           0        5.083456    3.038408    0.351659
     99          1           0        4.650874    4.025564    0.555161
    100          6           0        6.616107    3.136494    0.373348
    101          6           0        4.498845    2.043390    1.403059
    102          1           0        5.000980    1.076279    1.268896
    103          8           0        7.312569    2.542680   -0.459970
    104          6           0        4.678362    2.521629    2.845953
    105          1           0        5.726425    2.556469    3.158356
    106          1           0        4.242532    3.520474    2.979551
    107          1           0        4.143936    1.835000    3.508100
    108          8           0        3.126694    1.804200    1.123867
    109          1           0        2.721980    2.640336    0.828636
    110          7           0        7.141775    3.896968    1.347746
    111          1           0        6.567488    4.321741    2.070889
    112          6           0        8.572057    3.980679    1.597124
    113          1           0        9.005287    2.982458    1.460280
    114          6           0        8.721078    4.407922    3.069501
    115          6           0        9.262612    4.960313    0.633830
    116          1           0       10.342588    4.993771    0.809939
    117          1           0        9.088495    4.631411   -0.393892
    118          1           0        8.857785    5.969534    0.760352
    119          8           0        7.741920    4.757772    3.734503
    120          7           0        9.977111    4.386993    3.551954
    121          1           0       10.768616    4.081792    2.994728
    122          6           0       10.304627    4.792844    4.911143
    123          1           0        9.722592    5.689264    5.145629
    124          6           0       11.806892    5.103913    4.907767
    125          6           0        9.954406    3.667235    5.917089
    126          1           0        8.905877    3.406409    5.728385
    127          1           0       10.560712    2.790273    5.655328
    128          8           0       12.561391    4.590199    4.080716
    129          6           0       10.124822    3.990255    7.413974
    130          1           0       11.175716    4.243957    7.607528
    131          6           0        9.252997    5.174586    7.860081
    132          1           0        8.194564    4.976690    7.649515
    133          1           0        9.512786    6.112859    7.354873
    134          1           0        9.360309    5.350498    8.935665
    135          6           0        9.790754    2.741538    8.244107
    136          1           0        8.744240    2.444730    8.097686
    137          1           0        9.938271    2.930890    9.313261
    138          1           0       10.423296    1.892059    7.960871
    139          7           0       12.237091    5.943288    5.876821
    140          1           0       11.602221    6.280866    6.590414
    141          6           0       13.653010    6.172105    6.116608
    142          1           0       14.190557    5.230518    5.952468
    143          6           0       13.806401    6.555725    7.580941
    144          6           0       14.242971    7.238565    5.177683
    145          1           0       15.310624    7.371101    5.371399
    146          1           0       14.103406    6.905779    4.146341
    147          1           0       13.732944    8.197589    5.314942
    148          8           0       12.884176    6.723833    8.351930
    149          8           0       15.099809    6.700374    7.920777
    150          1           0       15.122579    6.958095    8.862005
 ---------------------------------------------------------------------

 SCF Done:  E(RB3LYP) =  -3455.70704690     A.U. after    2 cycles

 Alpha  occ. eigenvalues --  -19.26715 -19.25602 -19.21769 -19.20699 -19.20178
 Alpha  occ. eigenvalues --  -19.19992 -19.18791 -19.18207 -19.18138 -19.17868
 Alpha  occ. eigenvalues --  -19.17484 -19.17264 -19.17108 -19.16509 -19.14199
 Alpha  occ. eigenvalues --  -14.60448 -14.49316 -14.45744 -14.44531 -14.42534
 Alpha  occ. eigenvalues --  -14.41802 -14.41598 -14.41416 -14.41193 -14.40963
 Alpha  occ. eigenvalues --  -14.38678 -10.43455 -10.40734 -10.38895 -10.38063
 Alpha  occ. eigenvalues --  -10.37527 -10.35394 -10.35235 -10.34308 -10.34296
 Alpha  occ. eigenvalues --  -10.34159 -10.34132 -10.33721 -10.33363 -10.32101
 Alpha  occ. eigenvalues --  -10.31611 -10.30568 -10.30513 -10.29950 -10.29414
 Alpha  occ. eigenvalues --  -10.29265 -10.29141 -10.29012 -10.28987 -10.28936
 Alpha  occ. eigenvalues --  -10.28392 -10.28129 -10.28060 -10.27891 -10.27164
 Alpha  occ. eigenvalues --  -10.26753 -10.26294 -10.26039 -10.24710 -10.23776
 Alpha  occ. eigenvalues --  -10.23504 -10.23460 -10.23348 -10.23294 -10.23056
 Alpha  occ. eigenvalues --  -10.23030 -10.22068 -10.21762 -10.21532 -10.21242
 Alpha  occ. eigenvalues --   -1.19235  -1.16640  -1.14288  -1.13713  -1.12496
 Alpha  occ. eigenvalues --   -1.10309  -1.10252  -1.09538  -1.09249  -1.08665
 Alpha  occ. eigenvalues --   -1.08385  -1.07690  -1.07384  -1.06417  -1.06148
 Alpha  occ. eigenvalues --   -1.06085  -1.05573  -1.02245  -1.00702  -0.98619
 Alpha  occ. eigenvalues --   -0.98558  -0.98213  -0.98060  -0.97739  -0.97551
 Alpha  occ. eigenvalues --   -0.94778  -0.93268  -0.90883  -0.88282  -0.87869
 Alpha  occ. eigenvalues --   -0.86063  -0.85262  -0.84201  -0.83568  -0.83179
 Alpha  occ. eigenvalues --   -0.82702  -0.81836  -0.81238  -0.80041  -0.78637
 Alpha  occ. eigenvalues --   -0.78461  -0.77991  -0.77697  -0.77098  -0.76215
 Alpha  occ. eigenvalues --   -0.75038  -0.74614  -0.74152  -0.73287  -0.72488
 Alpha  occ. eigenvalues --   -0.72314  -0.71985  -0.71614  -0.70685  -0.70282
 Alpha  occ. eigenvalues --   -0.68922  -0.68121  -0.68010  -0.67598  -0.67304
 Alpha  occ. eigenvalues --   -0.67182  -0.66057  -0.65961  -0.65136  -0.64939
 Alpha  occ. eigenvalues --   -0.64611  -0.64439  -0.64080  -0.63791  -0.63328
 Alpha  occ. eigenvalues --   -0.63233  -0.63175  -0.62274  -0.61707  -0.60926
 Alpha  occ. eigenvalues --   -0.60596  -0.59880  -0.59386  -0.58953  -0.58275
 Alpha  occ. eigenvalues --   -0.57671  -0.57025  -0.56976  -0.56611  -0.56214
 Alpha  occ. eigenvalues --   -0.55971  -0.55880  -0.55685  -0.55203  -0.54885
 Alpha  occ. eigenvalues --   -0.54596  -0.54436  -0.54191  -0.53868  -0.53726
 Alpha  occ. eigenvalues --   -0.53553  -0.53171  -0.53129  -0.52983  -0.52782
 Alpha  occ. eigenvalues --   -0.52571  -0.52007  -0.51420  -0.51321  -0.51148
 Alpha  occ. eigenvalues --   -0.50684  -0.50479  -0.50317  -0.50233  -0.50006
 Alpha  occ. eigenvalues --   -0.49605  -0.49511  -0.49312  -0.49158  -0.49002
 Alpha  occ. eigenvalues --   -0.48766  -0.48712  -0.48354  -0.48283  -0.48009
 Alpha  occ. eigenvalues --   -0.47773  -0.47702  -0.47530  -0.47350  -0.47306
 Alpha  occ. eigenvalues --   -0.47195  -0.46785  -0.46644  -0.46541  -0.46297
 Alpha  occ. eigenvalues --   -0.46082  -0.46054  -0.45951  -0.45698  -0.45368
 Alpha  occ. eigenvalues --   -0.45112  -0.44776  -0.44706  -0.44648  -0.44500
 Alpha  occ. eigenvalues --   -0.44274  -0.44159  -0.43971  -0.43892  -0.43761
 Alpha  occ. eigenvalues --   -0.43734  -0.43476  -0.43333  -0.43024  -0.42959
 Alpha  occ. eigenvalues --   -0.42919  -0.42635  -0.42547  -0.42518  -0.42467
 Alpha  occ. eigenvalues --   -0.42109  -0.41856  -0.41798  -0.41672  -0.41353
 Alpha  occ. eigenvalues --   -0.41243  -0.41084  -0.40949  -0.40641  -0.40323
 Alpha  occ. eigenvalues --   -0.40057  -0.39992  -0.39837  -0.39789  -0.39760
 Alpha  occ. eigenvalues --   -0.38792  -0.38696  -0.37843  -0.37595  -0.37578
 Alpha  occ. eigenvalues --   -0.37436  -0.36889  -0.36710  -0.36135  -0.35692
 Alpha  occ. eigenvalues --   -0.34998  -0.34003  -0.33770  -0.33363  -0.32907
 Alpha  occ. eigenvalues --   -0.32861  -0.32213  -0.32165  -0.31772  -0.31600
 Alpha  occ. eigenvalues --   -0.31388  -0.31061  -0.30896  -0.30709  -0.30383
 Alpha  occ. eigenvalues --   -0.30087  -0.29989  -0.29678  -0.29401  -0.28001
 Alpha virt. eigenvalues --   -0.12510  -0.11160  -0.07976  -0.06921  -0.06475
 Alpha virt. eigenvalues --   -0.04937  -0.04864  -0.04606  -0.04444  -0.03591
 Alpha virt. eigenvalues --   -0.03351  -0.02716  -0.02429  -0.02190  -0.01256

 Mulliken charges:
               1
     1  N   -0.751532
     2  H    0.417241
     3  H    0.413954
     4  H    0.431073
     5  C   -0.123415
     6  H    0.213477
     7  C    0.645623
     8  C   -0.284407
     9  H    0.172675
    10  H    0.162683
    11  O   -0.539497
    12  C   -0.113447
    13  H    0.169017
    14  C   -0.455885
    15  H    0.153834
    16  H    0.131344
    17  H    0.192489
    18  C   -0.451565
    19  H    0.153204
    20  H    0.156240
    21  H    0.178504
    22  N   -0.597166
    23  H    0.383079
    24  C   -0.076746
    25  H    0.186124
    26  C    0.633565
    27  C   -0.076434
    28  H    0.150236
    29  O   -0.554160
    30  C   -0.474462
    31  H    0.154144
    32  H    0.169460
    33  H    0.172384
    34  C   -0.445769
    35  H    0.162423
    36  H    0.168972
    37  H    0.131876
    38  N   -0.597774
    39  H    0.360094
    40  C   -0.068157
    41  H    0.182311
    42  C    0.637980
    43  C   -0.082759
    44  H    0.167995
    45  O   -0.578628
    46  C   -0.491046
    47  H    0.136260
    48  H    0.200514
    49  H    0.162175
    50  C   -0.452520
    51  H    0.153177
    52  H    0.132751
    53  H    0.158956
    54  N   -0.582042
    55  H    0.362687
    56  C   -0.086345
    57  H    0.171726
    58  C    0.641734
    59  C   -0.056107
    60  H    0.163781
    61  H    0.160739
    62  O   -0.552908
    63  O   -0.635278
    64  H    0.426100
    65  N   -0.588051
    66  H    0.356584
    67  C   -0.072683
    68  H    0.182167
    69  C    0.621485
    70  C    0.120488
    71  H    0.140128
    72  O   -0.530269
    73  C   -0.471625
    74  H    0.170358
    75  H    0.154417
    76  H    0.163183
    77  O   -0.663640
    78  H    0.432988
    79  N   -0.592634
    80  H    0.348225
    81  C   -0.091969
    82  H    0.208319
    83  C    0.641779
    84  C   -0.260240
    85  H    0.148408
    86  H    0.191647
    87  O   -0.575744
    88  C   -0.365932
    89  H    0.144144
    90  H    0.180239
    91  C    0.573660
    92  N   -0.786361
    93  H    0.386461
    94  H    0.339784
    95  O   -0.501182
    96  N   -0.595990
    97  H    0.363412
    98  C   -0.115162
    99  H    0.177400
   100  C    0.628396
   101  C    0.176142
   102  H    0.140325
   103  O   -0.564028
   104  C   -0.477301
   105  H    0.156133
   106  H    0.145499
   107  H    0.171330
   108  O   -0.641517
   109  H    0.414483
   110  N   -0.607464
   111  H    0.367609
   112  C   -0.046410
   113  H    0.183757
   114  C    0.627004
   115  C   -0.447755
   116  H    0.159698
   117  H    0.181071
   118  H    0.163380
   119  O   -0.548738
   120  N   -0.624327
   121  H    0.356942
   122  C   -0.049953
   123  H    0.178180
   124  C    0.614859
   125  C   -0.256657
   126  H    0.166346
   127  H    0.143821
   128  O   -0.541828
   129  C   -0.093153
   130  H    0.132892
   131  C   -0.451087
   132  H    0.154548
   133  H    0.133279
   134  H    0.158006
   135  C   -0.444303
   136  H    0.143957
   137  H    0.149748
   138  H    0.144812
   139  N   -0.619926
   140  H    0.366663
   141  C   -0.030393
   142  H    0.203177
   143  C    0.584771
   144  C   -0.449349
   145  H    0.176155
   146  H    0.188426
   147  H    0.157486
   148  O   -0.468521
   149  O   -0.558207
   150  H    0.423686
 Sum of Mulliken charges =   1.00000

 Dipole moment (field-independent basis, Debye):
    X=            -21.3384    Y=            -20.0703    Z=              5.7670  Tot=             29.8564
 Quadrupole moment (field-independent basis, Debye-Ang):
   XX=             27.4313   YY=           -187.6945   ZZ=           -371.8981
   XY=            312.0519   XZ=             95.0301   YZ=             44.1631

 Normal termination of Gaussian 16 at Sat Jul  2 15:26:49 2022.
