 Gaussian 16, Revision C.01,
 Gaussian 16:  ES64L-G16RevC.01  3-Jul-2019

 ----------------------------------------------------------------------
 # B3LYP/6-31G* empiricaldispersion=gd3 guess=read geom=check nosymm in
 tegral(ultrafinegrid)
 ----------------------------------------------------------------------

 ------------------------------------------------------
 Candidate Structure: Conf:549 Charge calc in gas phase
 ------------------------------------------------------
 Structure from the checkpoint file:  "conf-549.chk"
 Charge =  1 Multiplicity = 1

                          Input orientation:
 ---------------------------------------------------------------------
 Center     Atomic      Atomic             Coordinates (Angstroms)
 Number     Number       Type             X           Y           Z
 ---------------------------------------------------------------------
      1          7           0       -8.403692   -7.171672    0.663918
      2          1           0       -8.620611   -8.122147    0.348950
      3          1           0       -9.007569   -6.939979    1.457642
      4          1           0       -7.378107   -7.135297    0.932246
      5          6           0       -8.463300   -6.142593   -0.452358
      6          1           0       -9.132878   -6.514734   -1.229372
      7          6           0       -6.985292   -6.079268   -0.913522
      8          6           0       -8.946868   -4.801174    0.131892
      9          1           0       -8.266484   -4.527350    0.950013
     10          1           0       -9.943423   -4.962071    0.569515
     11          8           0       -6.123486   -6.450308   -0.102114
     12          6           0       -9.034735   -3.629211   -0.870871
     13          1           0       -8.041574   -3.455587   -1.297626
     14          6           0      -10.007003   -3.914412   -2.024000
     15          1           0      -11.025033   -4.079974   -1.649345
     16          1           0       -9.724857   -4.789633   -2.622994
     17          1           0      -10.031287   -3.064694   -2.711712
     18          6           0       -9.440283   -2.353464   -0.118670
     19          1           0      -10.440393   -2.451464    0.321611
     20          1           0       -8.734037   -2.118857    0.685833
     21          1           0       -9.457620   -1.501250   -0.804845
     22          7           0       -6.765444   -5.601351   -2.132342
     23          1           0       -7.531576   -5.210252   -2.681320
     24          6           0       -5.463293   -5.126561   -2.614977
     25          1           0       -4.791678   -5.054518   -1.753516
     26          6           0       -5.787862   -3.730735   -3.193216
     27          6           0       -4.850673   -6.086176   -3.669239
     28          1           0       -5.540622   -6.103150   -4.524641
     29          8           0       -6.919998   -3.511915   -3.639968
     30          6           0       -3.480407   -5.583181   -4.149604
     31          1           0       -2.777442   -5.497892   -3.310448
     32          1           0       -3.534265   -4.610882   -4.646553
     33          1           0       -3.051670   -6.294737   -4.861949
     34          6           0       -4.734773   -7.505739   -3.096321
     35          1           0       -4.085745   -7.519830   -2.212882
     36          1           0       -4.304901   -8.179961   -3.843890
     37          1           0       -5.710514   -7.908484   -2.806159
     38          7           0       -4.803042   -2.822578   -3.145201
     39          1           0       -3.868219   -3.083158   -2.847879
     40          6           0       -4.902534   -1.487604   -3.730029
     41          1           0       -5.750704   -1.490864   -4.421317
     42          6           0       -3.581408   -1.260587   -4.472442
     43          6           0       -5.133783   -0.401668   -2.636044
     44          1           0       -4.279499   -0.445358   -1.948491
     45          8           0       -2.529566   -1.743047   -4.020975
     46          6           0       -5.182233    1.010044   -3.238916
     47          1           0       -5.940633    1.079510   -4.031241
     48          1           0       -4.218337    1.327017   -3.643637
     49          1           0       -5.456145    1.731871   -2.462911
     50          6           0       -6.416754   -0.711709   -1.850705
     51          1           0       -7.291550   -0.723295   -2.511813
     52          1           0       -6.359706   -1.683586   -1.349358
     53          1           0       -6.578031    0.051443   -1.082115
     54          7           0       -3.630533   -0.512986   -5.585592
     55          1           0       -4.481346   -0.011540   -5.827180
     56          6           0       -2.431085    0.038627   -6.221306
     57          1           0       -1.733805   -0.776578   -6.436417
     58          6           0       -1.819619    1.070957   -5.253412
     59          6           0       -2.888011    0.736373   -7.517262
     60          1           0       -3.219461   -0.014032   -8.241564
     61          1           0       -2.037472    1.281946   -7.950265
     62          8           0       -2.370926    2.168920   -5.099707
     63          8           0       -3.996437    1.581738   -7.260781
     64          1           0       -3.679605    2.216027   -6.583768
     65          7           0       -0.720374    0.677763   -4.587095
     66          1           0       -0.315330   -0.233757   -4.763224
     67          6           0       -0.159953    1.417950   -3.469592
     68          1           0       -0.599602    2.417476   -3.493470
     69          6           0        1.361988    1.417543   -3.624222
     70          6           0       -0.526744    0.711593   -2.120050
     71          1           0        0.111154   -0.182917   -2.047982
     72          8           0        1.934566    0.387805   -3.970261
     73          6           0       -0.278088    1.618698   -0.922814
     74          1           0        0.766929    1.935989   -0.860415
     75          1           0       -0.913870    2.509082   -0.990507
     76          1           0       -0.532337    1.086536   -0.001961
     77          8           0       -1.895643    0.332636   -2.108658
     78          1           0       -1.987016   -0.442977   -2.690870
     79          7           0        1.989176    2.582959   -3.316454
     80          1           0        1.451382    3.315257   -2.866121
     81          6           0        3.419448    2.640253   -3.053780
     82          1           0        3.817709    1.640454   -3.249045
     83          6           0        3.593314    3.022007   -1.578683
     84          6           0        4.118953    3.660719   -3.981766
     85          1           0        3.702553    4.657585   -3.793557
     86          1           0        3.874517    3.378429   -5.009864
     87          8           0        2.750835    3.724527   -1.002154
     88          6           0        5.651512    3.695076   -3.839516
     89          1           0        5.954797    4.012826   -2.836947
     90          1           0        6.048702    4.426626   -4.551511
     91          6           0        6.243153    2.334724   -4.215253
     92          7           0        6.959007    1.698350   -3.237756
     93          1           0        7.271933    2.147047   -2.381326
     94          1           0        7.400960    0.825513   -3.497036
     95          8           0        6.018695    1.828046   -5.305441
     96          7           0        4.725013    2.595505   -0.987381
     97          1           0        5.359301    1.974172   -1.478238
     98          6           0        5.098463    3.006695    0.353277
     99          1           0        4.677630    4.006580    0.514991
    100          6           0        6.631786    3.082391    0.400298
    101          6           0        4.479666    2.057149    1.426836
    102          1           0        4.969285    1.078724    1.335184
    103          8           0        7.333746    2.448121   -0.397893
    104          6           0        4.640733    2.582333    2.855494
    105          1           0        5.683608    2.612646    3.185282
    106          1           0        4.217894    3.591472    2.946722
    107          1           0        4.084392    1.926898    3.531062
    108          8           0        3.109264    1.828696    1.130660
    109          1           0        2.722951    2.659789    0.798765
    110          7           0        7.151468    3.869582    1.356414
    111          1           0        6.570941    4.331081    2.051573
    112          6           0        8.578174    3.942109    1.628771
    113          1           0        8.998457    2.932950    1.540317
    114          6           0        8.707051    4.427071    3.085045
    115          6           0        9.301189    4.871947    0.640217
    116          1           0       10.378123    4.896553    0.835369
    117          1           0        9.140836    4.504606   -0.376651
    118          1           0        8.909712    5.891259    0.718794
    119          8           0        7.722048    4.821590    3.715511
    120          7           0        9.953109    4.404201    3.592597
    121          1           0       10.749364    4.062305    3.064170
    122          6           0       10.262607    4.863727    4.938853
    123          1           0        9.693816    5.780388    5.122061
    124          6           0       11.770407    5.146661    4.951391
    125          6           0        9.871291    3.791032    5.986579
    126          1           0        8.822036    3.540847    5.787850
    127          1           0       10.466031    2.892341    5.777237
    128          8           0       12.530165    4.584693    4.161351
    129          6           0       10.017446    4.178447    7.470721
    130          1           0       11.069057    4.420298    7.675236
    131          6           0        9.160760    5.398447    7.844310
    132          1           0        8.103061    5.211534    7.620448
    133          1           0        9.449516    6.307684    7.302931
    134          1           0        9.249692    5.620990    8.912907
    135          6           0        9.641175    2.975436    8.348909
    136          1           0        8.591962    2.692828    8.193965
    137          1           0        9.770982    3.210136    9.411346
    138          1           0       10.261752    2.101774    8.117496
    139          7           0       12.198547    6.018406    5.892366
    140          1           0       11.557111    6.397279    6.578823
    141          6           0       13.613893    6.231308    6.149547
    142          1           0       14.136329    5.273930    6.035635
    143          6           0       13.747498    6.673930    7.599098
    144          6           0       14.241320    7.245948    5.178051
    145          1           0       15.307561    7.367026    5.386484
    146          1           0       14.114444    6.872270    4.159153
    147          1           0       13.747263    8.219112    5.264970
    148          8           0       12.814572    6.891217    8.344500
    149          8           0       15.036924    6.809538    7.957294
    150          1           0       15.047205    7.106540    8.887097
 ---------------------------------------------------------------------

 SCF Done:  E(RB3LYP) =  -3455.70705677     A.U. after    2 cycles

 Alpha  occ. eigenvalues --  -19.26714 -19.25602 -19.21767 -19.20699 -19.20179
 Alpha  occ. eigenvalues --  -19.19992 -19.18794 -19.18207 -19.18137 -19.17867
 Alpha  occ. eigenvalues --  -19.17492 -19.17264 -19.17110 -19.16509 -19.14198
 Alpha  occ. eigenvalues --  -14.60449 -14.49317 -14.45743 -14.44532 -14.42535
 Alpha  occ. eigenvalues --  -14.41807 -14.41606 -14.41415 -14.41193 -14.40963
 Alpha  occ. eigenvalues --  -14.38681 -10.43455 -10.40735 -10.38893 -10.38063
 Alpha  occ. eigenvalues --  -10.37527 -10.35394 -10.35237 -10.34315 -10.34296
 Alpha  occ. eigenvalues --  -10.34159 -10.34133 -10.33721 -10.33364 -10.32102
 Alpha  occ. eigenvalues --  -10.31611 -10.30568 -10.30514 -10.29950 -10.29414
 Alpha  occ. eigenvalues --  -10.29265 -10.29144 -10.29014 -10.28988 -10.28938
 Alpha  occ. eigenvalues --  -10.28392 -10.28130 -10.28065 -10.27892 -10.27164
 Alpha  occ. eigenvalues --  -10.26751 -10.26294 -10.26041 -10.24707 -10.23776
 Alpha  occ. eigenvalues --  -10.23503 -10.23463 -10.23346 -10.23293 -10.23054
 Alpha  occ. eigenvalues --  -10.23030 -10.22072 -10.21766 -10.21532 -10.21241
 Alpha  occ. eigenvalues --   -1.19234  -1.16640  -1.14288  -1.13712  -1.12497
 Alpha  occ. eigenvalues --   -1.10310  -1.10253  -1.09541  -1.09252  -1.08667
 Alpha  occ. eigenvalues --   -1.08387  -1.07690  -1.07384  -1.06419  -1.06148
 Alpha  occ. eigenvalues --   -1.06086  -1.05573  -1.02242  -1.00704  -0.98620
 Alpha  occ. eigenvalues --   -0.98561  -0.98214  -0.98066  -0.97739  -0.97552
 Alpha  occ. eigenvalues --   -0.94778  -0.93270  -0.90883  -0.88282  -0.87869
 Alpha  occ. eigenvalues --   -0.86063  -0.85264  -0.84203  -0.83569  -0.83178
 Alpha  occ. eigenvalues --   -0.82702  -0.81837  -0.81242  -0.80042  -0.78638
 Alpha  occ. eigenvalues --   -0.78461  -0.77992  -0.77700  -0.77099  -0.76217
 Alpha  occ. eigenvalues --   -0.75036  -0.74616  -0.74153  -0.73288  -0.72487
 Alpha  occ. eigenvalues --   -0.72314  -0.71985  -0.71615  -0.70685  -0.70283
 Alpha  occ. eigenvalues --   -0.68923  -0.68121  -0.68012  -0.67598  -0.67306
 Alpha  occ. eigenvalues --   -0.67182  -0.66058  -0.65962  -0.65136  -0.64940
 Alpha  occ. eigenvalues --   -0.64610  -0.64440  -0.64081  -0.63791  -0.63330
 Alpha  occ. eigenvalues --   -0.63234  -0.63173  -0.62275  -0.61709  -0.60928
 Alpha  occ. eigenvalues --   -0.60595  -0.59880  -0.59387  -0.58954  -0.58276
 Alpha  occ. eigenvalues --   -0.57671  -0.57024  -0.56976  -0.56611  -0.56214
 Alpha  occ. eigenvalues --   -0.55974  -0.55884  -0.55683  -0.55205  -0.54885
 Alpha  occ. eigenvalues --   -0.54597  -0.54437  -0.54192  -0.53868  -0.53733
 Alpha  occ. eigenvalues --   -0.53557  -0.53171  -0.53130  -0.52983  -0.52782
 Alpha  occ. eigenvalues --   -0.52571  -0.52007  -0.51424  -0.51322  -0.51148
 Alpha  occ. eigenvalues --   -0.50682  -0.50478  -0.50316  -0.50230  -0.50003
 Alpha  occ. eigenvalues --   -0.49606  -0.49511  -0.49317  -0.49161  -0.49005
 Alpha  occ. eigenvalues --   -0.48767  -0.48716  -0.48357  -0.48283  -0.48010
 Alpha  occ. eigenvalues --   -0.47773  -0.47702  -0.47530  -0.47350  -0.47306
 Alpha  occ. eigenvalues --   -0.47197  -0.46786  -0.46644  -0.46542  -0.46299
 Alpha  occ. eigenvalues --   -0.46081  -0.46054  -0.45949  -0.45697  -0.45368
 Alpha  occ. eigenvalues --   -0.45111  -0.44775  -0.44709  -0.44650  -0.44501
 Alpha  occ. eigenvalues --   -0.44275  -0.44160  -0.43972  -0.43893  -0.43762
 Alpha  occ. eigenvalues --   -0.43735  -0.43479  -0.43333  -0.43022  -0.42961
 Alpha  occ. eigenvalues --   -0.42921  -0.42636  -0.42548  -0.42518  -0.42465
 Alpha  occ. eigenvalues --   -0.42109  -0.41858  -0.41794  -0.41675  -0.41355
 Alpha  occ. eigenvalues --   -0.41248  -0.41085  -0.40951  -0.40643  -0.40322
 Alpha  occ. eigenvalues --   -0.40056  -0.39992  -0.39839  -0.39788  -0.39762
 Alpha  occ. eigenvalues --   -0.38792  -0.38699  -0.37843  -0.37595  -0.37579
 Alpha  occ. eigenvalues --   -0.37437  -0.36888  -0.36708  -0.36134  -0.35691
 Alpha  occ. eigenvalues --   -0.34997  -0.34002  -0.33770  -0.33363  -0.32908
 Alpha  occ. eigenvalues --   -0.32863  -0.32215  -0.32168  -0.31774  -0.31603
 Alpha  occ. eigenvalues --   -0.31392  -0.31061  -0.30895  -0.30711  -0.30384
 Alpha  occ. eigenvalues --   -0.30088  -0.29990  -0.29678  -0.29403  -0.28002
 Alpha virt. eigenvalues --   -0.12509  -0.11161  -0.07977  -0.06919  -0.06476
 Alpha virt. eigenvalues --   -0.04937  -0.04866  -0.04615  -0.04444  -0.03597
 Alpha virt. eigenvalues --   -0.03352  -0.02715  -0.02429  -0.02188  -0.01256

 Mulliken charges:
               1
     1  N   -0.751531
     2  H    0.417243
     3  H    0.413959
     4  H    0.431073
     5  C   -0.123428
     6  H    0.213477
     7  C    0.645656
     8  C   -0.284413
     9  H    0.172683
    10  H    0.162687
    11  O   -0.539506
    12  C   -0.113484
    13  H    0.169010
    14  C   -0.455920
    15  H    0.153851
    16  H    0.131349
    17  H    0.192506
    18  C   -0.451558
    19  H    0.153199
    20  H    0.156240
    21  H    0.178541
    22  N   -0.597182
    23  H    0.383063
    24  C   -0.076667
    25  H    0.186100
    26  C    0.633557
    27  C   -0.076431
    28  H    0.150249
    29  O   -0.554167
    30  C   -0.474382
    31  H    0.154171
    32  H    0.169363
    33  H    0.172390
    34  C   -0.445772
    35  H    0.162428
    36  H    0.168973
    37  H    0.131865
    38  N   -0.597874
    39  H    0.360089
    40  C   -0.067984
    41  H    0.182249
    42  C    0.637853
    43  C   -0.082738
    44  H    0.167935
    45  O   -0.578615
    46  C   -0.491015
    47  H    0.136241
    48  H    0.200515
    49  H    0.162174
    50  C   -0.452515
    51  H    0.153229
    52  H    0.132784
    53  H    0.158903
    54  N   -0.582031
    55  H    0.362675
    56  C   -0.086348
    57  H    0.171729
    58  C    0.641753
    59  C   -0.056088
    60  H    0.163780
    61  H    0.160721
    62  O   -0.552913
    63  O   -0.635265
    64  H    0.426090
    65  N   -0.588086
    66  H    0.356589
    67  C   -0.072635
    68  H    0.182172
    69  C    0.621390
    70  C    0.120463
    71  H    0.140100
    72  O   -0.530273
    73  C   -0.471488
    74  H    0.170213
    75  H    0.154451
    76  H    0.163249
    77  O   -0.663573
    78  H    0.432961
    79  N   -0.592773
    80  H    0.348332
    81  C   -0.091688
    82  H    0.208199
    83  C    0.641739
    84  C   -0.260210
    85  H    0.148469
    86  H    0.191686
    87  O   -0.575847
    88  C   -0.365890
    89  H    0.144012
    90  H    0.180261
    91  C    0.573744
    92  N   -0.786279
    93  H    0.386269
    94  H    0.339813
    95  O   -0.501190
    96  N   -0.596080
    97  H    0.363385
    98  C   -0.114958
    99  H    0.177325
   100  C    0.628390
   101  C    0.176182
   102  H    0.140350
   103  O   -0.564067
   104  C   -0.477072
   105  H    0.155862
   106  H    0.145565
   107  H    0.171352
   108  O   -0.641615
   109  H    0.414565
   110  N   -0.607624
   111  H    0.367586
   112  C   -0.046086
   113  H    0.183606
   114  C    0.626931
   115  C   -0.447839
   116  H    0.159724
   117  H    0.181123
   118  H    0.163379
   119  O   -0.548742
   120  N   -0.624422
   121  H    0.356954
   122  C   -0.049918
   123  H    0.178190
   124  C    0.614777
   125  C   -0.256681
   126  H    0.166460
   127  H    0.143803
   128  O   -0.541804
   129  C   -0.093226
   130  H    0.132937
   131  C   -0.451193
   132  H    0.154637
   133  H    0.133262
   134  H    0.158033
   135  C   -0.444321
   136  H    0.143982
   137  H    0.149769
   138  H    0.144791
   139  N   -0.619976
   140  H    0.366728
   141  C   -0.030380
   142  H    0.203177
   143  C    0.584778
   144  C   -0.449346
   145  H    0.176156
   146  H    0.188415
   147  H    0.157487
   148  O   -0.468505
   149  O   -0.558205
   150  H    0.423690
 Sum of Mulliken charges =   1.00000

 Dipole moment (field-independent basis, Debye):
    X=            -21.7179    Y=            -19.5478    Z=              5.9570  Tot=             29.8206
 Quadrupole moment (field-independent basis, Debye-Ang):
   XX=             32.0052   YY=           -192.7048   ZZ=           -371.2888
   XY=            312.0208   XZ=             92.9773   YZ=             43.2643

 Normal termination of Gaussian 16 at Mon Jul 18 20:49:36 2022.
