 Gaussian 16, Revision C.01,
 Gaussian 16:  ES64L-G16RevC.01  3-Jul-2019

 ----------------------------------------------------------------------
 # B3LYP/6-31G* empiricaldispersion=gd3 guess=read geom=check nosymm in
 tegral(ultrafinegrid)
 ----------------------------------------------------------------------

 ------------------------------------------------------
 Candidate Structure: Conf:315 Charge calc in gas phase
 ------------------------------------------------------
 Structure from the checkpoint file:  "conf-315.chk"
 Charge =  1 Multiplicity = 1

                          Input orientation:
 ---------------------------------------------------------------------
 Center     Atomic      Atomic             Coordinates (Angstroms)
 Number     Number       Type             X           Y           Z
 ---------------------------------------------------------------------
      1          7           0       -6.647891   -2.505171  -10.884854
      2          1           0       -6.116227   -2.557509  -11.757915
      3          1           0       -7.618902   -2.271130  -11.110185
      4          1           0       -6.579480   -3.441130  -10.381264
      5          6           0       -6.037337   -1.562977   -9.864635
      6          1           0       -5.273047   -0.967889  -10.367807
      7          6           0       -5.401981   -2.541172   -8.841030
      8          6           0       -7.112811   -0.674677   -9.223796
      9          1           0       -6.622089   -0.096504   -8.431206
     10          1           0       -7.840290   -1.324728   -8.717723
     11          8           0       -5.691833   -3.743308   -8.934714
     12          6           0       -7.835923    0.298717  -10.178841
     13          1           0       -8.348983   -0.283864  -10.964674
     14          6           0       -8.921563    1.055758   -9.398666
     15          1           0       -8.471965    1.672187   -8.611066
     16          1           0       -9.633630    0.369608   -8.926739
     17          1           0       -9.482106    1.719752  -10.063625
     18          6           0       -6.866251    1.273276  -10.862227
     19          1           0       -6.313088    1.856652  -10.116053
     20          1           0       -6.134776    0.769418  -11.506401
     21          1           0       -7.414654    1.978862  -11.493570
     22          7           0       -4.607987   -1.994486   -7.929521
     23          1           0       -4.490372   -0.984428   -7.862158
     24          6           0       -4.036787   -2.701272   -6.780003
     25          1           0       -4.629206   -3.605430   -6.607459
     26          6           0       -4.161922   -1.696404   -5.622079
     27          6           0       -2.547204   -3.088379   -7.025813
     28          1           0       -1.997053   -2.147248   -7.167573
     29          8           0       -4.115650   -0.485296   -5.871638
     30          6           0       -1.945564   -3.831481   -5.821551
     31          1           0       -2.526995   -4.733564   -5.586740
     32          1           0       -1.877660   -3.219196   -4.918572
     33          1           0       -0.929820   -4.159128   -6.062711
     34          6           0       -2.412153   -3.935274   -8.299282
     35          1           0       -2.985133   -4.865773   -8.216086
     36          1           0       -1.361906   -4.195329   -8.463640
     37          1           0       -2.761806   -3.399868   -9.187599
     38          7           0       -4.284945   -2.204276   -4.380668
     39          1           0       -4.188874   -3.205448   -4.258972
     40          6           0       -4.058832   -1.378832   -3.177833
     41          1           0       -4.538112   -0.413181   -3.365271
     42          6           0       -2.527197   -1.220483   -3.084486
     43          6           0       -4.657544   -2.028113   -1.923258
     44          1           0       -4.116584   -2.970358   -1.761308
     45          8           0       -1.831184   -2.055976   -2.503164
     46          6           0       -4.409642   -1.124004   -0.706279
     47          1           0       -4.922745   -0.161025   -0.826848
     48          1           0       -3.344887   -0.928261   -0.550377
     49          1           0       -4.806332   -1.599191    0.197182
     50          6           0       -6.154088   -2.316998   -2.101982
     51          1           0       -6.712589   -1.387994   -2.272804
     52          1           0       -6.354759   -2.987310   -2.945153
     53          1           0       -6.557835   -2.786392   -1.199179
     54          7           0       -2.013101   -0.182127   -3.780455
     55          1           0       -2.654995    0.406262   -4.298381
     56          6           0       -0.587038   -0.069044   -4.092077
     57          1           0       -0.182355   -1.082035   -4.202611
     58          6           0        0.195248    0.630422   -2.959978
     59          6           0       -0.421517    0.689720   -5.419055
     60          1           0       -0.869677    1.691733   -5.313103
     61          1           0       -0.976239    0.154397   -6.199261
     62          8           0        0.844439    1.665166   -3.176941
     63          8           0        0.924267    0.752226   -5.819304
     64          1           0        1.358582    1.304733   -5.142331
     65          7           0        0.117019    0.032974   -1.760398
     66          1           0       -0.443539   -0.811284   -1.671978
     67          6           0        0.667201    0.645938   -0.553046
     68          1           0        0.574311    1.731119   -0.671744
     69          6           0        2.161066    0.300104   -0.396033
     70          6           0       -0.122575    0.214441    0.687442
     71          1           0        0.075256   -0.851578    0.869358
     72          8           0        2.559206   -0.473398    0.476752
     73          6           0        0.273554    1.026457    1.919794
     74          1           0        1.327688    0.888508    2.170137
     75          1           0        0.082459    2.091238    1.747033
     76          1           0       -0.320716    0.704612    2.784280
     77          8           0       -1.507186    0.413345    0.354723
     78          1           0       -2.015929    0.269561    1.167573
     79          7           0        2.995511    0.922154   -1.266239
     80          1           0        2.596405    1.644687   -1.856407
     81          6           0        4.403174    0.983588   -0.895632
     82          1           0        4.783542   -0.035120   -0.837348
     83          6           0        4.476773    1.619411    0.513120
     84          6           0        5.236209    1.766100   -1.922554
     85          1           0        4.728433    2.716035   -2.136314
     86          1           0        5.265656    1.193594   -2.856944
     87          8           0        3.731755    2.527874    0.865880
     88          6           0        6.667318    2.110535   -1.466706
     89          1           0        6.633712    2.735014   -0.564103
     90          1           0        7.145088    2.716905   -2.245687
     91          6           0        7.579142    0.937210   -1.103459
     92          7           0        8.905209    1.182514   -1.201286
     93          1           0        9.223780    2.130607   -1.344439
     94          1           0        9.550370    0.568771   -0.702522
     95          8           0        7.143295   -0.154732   -0.714121
     96          7           0        5.405283    1.026437    1.294500
     97          1           0        6.052193    0.384075    0.841315
     98          6           0        5.645284    1.354807    2.676555
     99          1           0        4.940659    2.144098    2.960870
    100          6           0        7.090408    1.878607    2.788322
    101          6           0        5.270079    0.069553    3.491234
    102          1           0        5.897139   -0.749660    3.099397
    103          8           0        7.809977    1.973817    1.790607
    104          6           0        5.453884    0.139964    5.003859
    105          1           0        6.508456    0.084925    5.291639
    106          1           0        4.991924    1.044891    5.419304
    107          1           0        4.942773   -0.718390    5.448409
    108          8           0        3.897574   -0.207132    3.268372
    109          1           0        3.741903   -0.316991    2.311282
    110          7           0        7.535520    2.227720    4.025016
    111          1           0        6.949245    2.017196    4.820509
    112          6           0        8.976230    2.351589    4.302184
    113          1           0        9.400603    2.996110    3.527757
    114          6           0        9.553748    0.919538    4.196675
    115          6           0        9.198837    2.943906    5.687068
    116          1           0       10.267528    3.100491    5.860961
    117          1           0        8.683420    3.904585    5.782212
    118          1           0        8.837535    2.252014    6.454200
    119          8           0        9.483047    0.131000    5.135089
    120          7           0       10.049340    0.601420    2.966843
    121          1           0        9.794337    1.225119    2.206074
    122          6           0       10.187605   -0.797815    2.570736
    123          1           0       10.592278   -1.338730    3.429069
    124          6           0       11.137617   -0.855921    1.378142
    125          6           0        8.810560   -1.374812    2.167222
    126          1           0        8.171502   -1.305275    3.057383
    127          1           0        8.389249   -0.714067    1.402089
    128          8           0       10.994054   -0.115747    0.398134
    129          6           0        8.793825   -2.819521    1.640851
    130          1           0        9.457904   -2.872927    0.764893
    131          6           0        9.286685   -3.832781    2.683426
    132          1           0        8.687491   -3.767717    3.600521
    133          1           0       10.335562   -3.675168    2.960035
    134          1           0        9.206090   -4.856766    2.301282
    135          6           0        7.373594   -3.159385    1.163436
    136          1           0        6.660979   -3.105978    1.997872
    137          1           0        7.327538   -4.175737    0.754561
    138          1           0        7.047664   -2.457850    0.388605
    139          7           0       12.110258   -1.788774    1.437768
    140          1           0       12.186327   -2.411677    2.232841
    141          6           0       12.981851   -2.068731    0.308945
    142          1           0       12.379677   -2.057929   -0.607274
    143          6           0       13.536870   -3.471307    0.502932
    144          6           0       14.109935   -1.031118    0.165311
    145          1           0       14.731390   -1.260464   -0.704446
    146          1           0       13.657521   -0.045248    0.036431
    147          1           0       14.738446   -1.020748    1.061659
    148          8           0       13.388002   -4.142830    1.501856
    149          8           0       14.240968   -3.875364   -0.571278
    150          1           0       14.584839   -4.765988   -0.368010
 ---------------------------------------------------------------------

 SCF Done:  E(RB3LYP) =  -3455.70149841     A.U. after    1 cycles

 Alpha  occ. eigenvalues --  -19.27960 -19.25138 -19.23766 -19.20333 -19.19748
 Alpha  occ. eigenvalues --  -19.19668 -19.19551 -19.18460 -19.16578 -19.16271
 Alpha  occ. eigenvalues --  -19.16021 -19.15991 -19.15005 -19.14832 -19.13853
 Alpha  occ. eigenvalues --  -14.60983 -14.50705 -14.47741 -14.44707 -14.41750
 Alpha  occ. eigenvalues --  -14.41038 -14.40479 -14.39190 -14.38769 -14.37951
 Alpha  occ. eigenvalues --  -14.37837 -10.44673 -10.41701 -10.40628 -10.37565
 Alpha  occ. eigenvalues --  -10.37307 -10.35623 -10.35148 -10.34511 -10.33472
 Alpha  occ. eigenvalues --  -10.33178 -10.33168 -10.32757 -10.32507 -10.32452
 Alpha  occ. eigenvalues --  -10.31759 -10.30866 -10.30473 -10.30355 -10.30184
 Alpha  occ. eigenvalues --  -10.29892 -10.28984 -10.28967 -10.28543 -10.27857
 Alpha  occ. eigenvalues --  -10.27399 -10.27393 -10.27288 -10.27274 -10.27010
 Alpha  occ. eigenvalues --  -10.26624 -10.26321 -10.25825 -10.25246 -10.23947
 Alpha  occ. eigenvalues --  -10.23606 -10.23346 -10.22640 -10.21857 -10.21705
 Alpha  occ. eigenvalues --  -10.21078 -10.21077 -10.21042 -10.20074 -10.19277
 Alpha  occ. eigenvalues --   -1.20397  -1.16150  -1.15733  -1.14812  -1.12300
 Alpha  occ. eigenvalues --   -1.10138  -1.08542  -1.08302  -1.07959  -1.07422
 Alpha  occ. eigenvalues --   -1.07211  -1.07201  -1.06826  -1.06487  -1.06343
 Alpha  occ. eigenvalues --   -1.05580  -1.03946  -1.03802  -1.00973  -0.98149
 Alpha  occ. eigenvalues --   -0.97594  -0.96807  -0.96223  -0.95880  -0.95615
 Alpha  occ. eigenvalues --   -0.95138  -0.93148  -0.92348  -0.89731  -0.88860
 Alpha  occ. eigenvalues --   -0.84635  -0.84360  -0.83806  -0.83373  -0.82559
 Alpha  occ. eigenvalues --   -0.81899  -0.81763  -0.81203  -0.80105  -0.79381
 Alpha  occ. eigenvalues --   -0.78711  -0.78023  -0.77206  -0.76635  -0.75698
 Alpha  occ. eigenvalues --   -0.75126  -0.75017  -0.74111  -0.73504  -0.73017
 Alpha  occ. eigenvalues --   -0.72031  -0.70996  -0.70795  -0.70319  -0.70032
 Alpha  occ. eigenvalues --   -0.69687  -0.68813  -0.68587  -0.67627  -0.67500
 Alpha  occ. eigenvalues --   -0.67297  -0.66172  -0.65256  -0.64671  -0.64116
 Alpha  occ. eigenvalues --   -0.63890  -0.63576  -0.63263  -0.62854  -0.61996
 Alpha  occ. eigenvalues --   -0.61613  -0.61281  -0.60896  -0.60796  -0.60356
 Alpha  occ. eigenvalues --   -0.60034  -0.59716  -0.59315  -0.59012  -0.58469
 Alpha  occ. eigenvalues --   -0.58278  -0.57747  -0.57561  -0.56635  -0.56472
 Alpha  occ. eigenvalues --   -0.56360  -0.56051  -0.55516  -0.55254  -0.54683
 Alpha  occ. eigenvalues --   -0.54641  -0.54429  -0.54293  -0.54125  -0.53614
 Alpha  occ. eigenvalues --   -0.53292  -0.52846  -0.52657  -0.52532  -0.52509
 Alpha  occ. eigenvalues --   -0.52376  -0.51776  -0.51372  -0.51256  -0.51092
 Alpha  occ. eigenvalues --   -0.50756  -0.50561  -0.50555  -0.50126  -0.50100
 Alpha  occ. eigenvalues --   -0.49928  -0.49585  -0.49427  -0.49337  -0.49047
 Alpha  occ. eigenvalues --   -0.49025  -0.48704  -0.48411  -0.47798  -0.47707
 Alpha  occ. eigenvalues --   -0.47624  -0.47404  -0.47236  -0.46901  -0.46793
 Alpha  occ. eigenvalues --   -0.46669  -0.46544  -0.46008  -0.45903  -0.45881
 Alpha  occ. eigenvalues --   -0.45759  -0.45688  -0.45600  -0.45508  -0.45376
 Alpha  occ. eigenvalues --   -0.45231  -0.44995  -0.44708  -0.44537  -0.44002
 Alpha  occ. eigenvalues --   -0.43829  -0.43732  -0.43698  -0.43232  -0.43033
 Alpha  occ. eigenvalues --   -0.42868  -0.42687  -0.42498  -0.42357  -0.42107
 Alpha  occ. eigenvalues --   -0.41981  -0.41966  -0.41839  -0.41688  -0.41506
 Alpha  occ. eigenvalues --   -0.41327  -0.41262  -0.40940  -0.40802  -0.40722
 Alpha  occ. eigenvalues --   -0.40601  -0.40527  -0.40241  -0.40023  -0.39864
 Alpha  occ. eigenvalues --   -0.39745  -0.39471  -0.39464  -0.39234  -0.38316
 Alpha  occ. eigenvalues --   -0.38262  -0.38120  -0.37846  -0.37467  -0.37424
 Alpha  occ. eigenvalues --   -0.37285  -0.36111  -0.35736  -0.35571  -0.35090
 Alpha  occ. eigenvalues --   -0.34993  -0.33605  -0.33263  -0.33033  -0.32685
 Alpha  occ. eigenvalues --   -0.32094  -0.31715  -0.31122  -0.31087  -0.30683
 Alpha  occ. eigenvalues --   -0.30588  -0.30187  -0.29886  -0.29276  -0.28829
 Alpha  occ. eigenvalues --   -0.28573  -0.28293  -0.27452  -0.27199  -0.27086
 Alpha virt. eigenvalues --   -0.13152  -0.12368  -0.10010  -0.07725  -0.06701
 Alpha virt. eigenvalues --   -0.05332  -0.04614  -0.04463  -0.03345  -0.03186
 Alpha virt. eigenvalues --   -0.02736  -0.02534  -0.02444  -0.02317  -0.02221

 Mulliken charges:
               1
     1  N   -0.757451
     2  H    0.418246
     3  H    0.414319
     4  H    0.434393
     5  C   -0.120048
     6  H    0.218789
     7  C    0.656154
     8  C   -0.296833
     9  H    0.194190
    10  H    0.175219
    11  O   -0.539747
    12  C   -0.100168
    13  H    0.115139
    14  C   -0.448187
    15  H    0.167568
    16  H    0.160263
    17  H    0.177656
    18  C   -0.455125
    19  H    0.169589
    20  H    0.131871
    21  H    0.187099
    22  N   -0.595376
    23  H    0.369784
    24  C   -0.072971
    25  H    0.186314
    26  C    0.634782
    27  C   -0.081953
    28  H    0.158121
    29  O   -0.560544
    30  C   -0.495390
    31  H    0.148217
    32  H    0.185092
    33  H    0.181727
    34  C   -0.445848
    35  H    0.164861
    36  H    0.175043
    37  H    0.128947
    38  N   -0.598703
    39  H    0.352073
    40  C   -0.045757
    41  H    0.174268
    42  C    0.644933
    43  C   -0.101456
    44  H    0.155980
    45  O   -0.556141
    46  C   -0.487095
    47  H    0.143690
    48  H    0.197610
    49  H    0.156686
    50  C   -0.447829
    51  H    0.147780
    52  H    0.133228
    53  H    0.167038
    54  N   -0.596794
    55  H    0.359273
    56  C   -0.089283
    57  H    0.193518
    58  C    0.650910
    59  C   -0.045675
    60  H    0.137731
    61  H    0.135864
    62  O   -0.567959
    63  O   -0.625506
    64  H    0.420599
    65  N   -0.611004
    66  H    0.386345
    67  C   -0.069222
    68  H    0.189448
    69  C    0.654495
    70  C    0.122333
    71  H    0.149351
    72  O   -0.546996
    73  C   -0.485538
    74  H    0.207148
    75  H    0.158007
    76  H    0.136569
    77  O   -0.642276
    78  H    0.398251
    79  N   -0.612094
    80  H    0.358679
    81  C   -0.030146
    82  H    0.198533
    83  C    0.579948
    84  C   -0.285231
    85  H    0.150260
    86  H    0.159979
    87  O   -0.546881
    88  C   -0.400798
    89  H    0.209439
    90  H    0.152672
    91  C    0.637400
    92  N   -0.761369
    93  H    0.333086
    94  H    0.397949
    95  O   -0.550166
    96  N   -0.618574
    97  H    0.388831
    98  C   -0.104332
    99  H    0.199731
   100  C    0.628293
   101  C    0.156270
   102  H    0.128357
   103  O   -0.547524
   104  C   -0.504003
   105  H    0.167992
   106  H    0.148498
   107  H    0.179057
   108  O   -0.654802
   109  H    0.439262
   110  N   -0.596943
   111  H    0.346506
   112  C   -0.045067
   113  H    0.168138
   114  C    0.612304
   115  C   -0.473653
   116  H    0.169129
   117  H    0.158983
   118  H    0.177967
   119  O   -0.534574
   120  N   -0.597020
   121  H    0.362791
   122  C   -0.067358
   123  H    0.174398
   124  C    0.647111
   125  C   -0.298863
   126  H    0.153759
   127  H    0.180099
   128  O   -0.568025
   129  C   -0.080301
   130  H    0.125543
   131  C   -0.445635
   132  H    0.149351
   133  H    0.131548
   134  H    0.146632
   135  C   -0.468353
   136  H    0.139730
   137  H    0.135762
   138  H    0.182389
   139  N   -0.611691
   140  H    0.364823
   141  C   -0.025706
   142  H    0.198254
   143  C    0.582092
   144  C   -0.451589
   145  H    0.172857
   146  H    0.189680
   147  H    0.160085
   148  O   -0.464430
   149  O   -0.561066
   150  H    0.422393
 Sum of Mulliken charges =   1.00000

 Dipole moment (field-independent basis, Debye):
    X=            -23.1098    Y=             -8.2130    Z=            -43.7362  Tot=             50.1436
 Quadrupole moment (field-independent basis, Debye-Ang):
   XX=            -89.0950   YY=           -383.9437   ZZ=             33.5242
   XY=             42.3769   XZ=            278.6460   YZ=             88.6359

 Normal termination of Gaussian 16 at Mon Jul 18 20:41:49 2022.
