 Gaussian 16, Revision C.01,
 Gaussian 16:  ES64L-G16RevC.01  3-Jul-2019

 ----------------------------------------------------------------------
 # B3LYP/6-31G* empiricaldispersion=gd3 guess=read geom=check nosymm in
 tegral(ultrafinegrid)
 ----------------------------------------------------------------------

 ------------------------------------------------------
 Candidate Structure: Conf:242 Charge calc in gas phase
 ------------------------------------------------------
 Structure from the checkpoint file:  "conf-242.chk"
 Charge =  1 Multiplicity = 1

                          Input orientation:
 ---------------------------------------------------------------------
 Center     Atomic      Atomic             Coordinates (Angstroms)
 Number     Number       Type             X           Y           Z
 ---------------------------------------------------------------------
      1          7           0       -8.990878   -6.852675   -7.843044
      2          1           0       -9.139312   -6.889393   -8.856065
      3          1           0       -9.807188   -7.255096   -7.373997
      4          1           0       -8.106053   -7.392599   -7.615624
      5          6           0       -8.636428   -5.463777   -7.339413
      6          1           0       -9.032278   -4.729891   -8.043182
      7          6           0       -7.087324   -5.509294   -7.328449
      8          6           0       -9.222196   -5.281595   -5.925825
      9          1           0       -8.835693   -6.094618   -5.295841
     10          1           0      -10.313449   -5.404714   -5.992909
     11          8           0       -6.555356   -6.629032   -7.278636
     12          6           0       -8.921887   -3.926275   -5.248058
     13          1           0       -7.836753   -3.806016   -5.166311
     14          6           0       -9.475427   -2.735851   -6.043608
     15          1           0      -10.566735   -2.799289   -6.139602
     16          1           0       -9.055030   -2.656207   -7.054174
     17          1           0       -9.232073   -1.799707   -5.533727
     18          6           0       -9.490955   -3.940248   -3.821952
     19          1           0      -10.583620   -4.038697   -3.829866
     20          1           0       -9.077818   -4.766119   -3.231738
     21          1           0       -9.241788   -3.006795   -3.308074
     22          7           0       -6.460830   -4.339419   -7.342010
     23          1           0       -6.986566   -3.468151   -7.262997
     24          6           0       -5.051776   -4.146607   -6.979292
     25          1           0       -4.693070   -5.071963   -6.517478
     26          6           0       -5.105353   -2.989979   -5.955405
     27          6           0       -4.176460   -3.812471   -8.216144
     28          1           0       -4.552933   -2.864803   -8.626404
     29          8           0       -6.019877   -2.160074   -6.032969
     30          6           0       -2.702440   -3.629556   -7.822238
     31          1           0       -2.304932   -4.540091   -7.355042
     32          1           0       -2.546865   -2.798973   -7.128707
     33          1           0       -2.101017   -3.432547   -8.715146
     34          6           0       -4.318686   -4.906924   -9.283339
     35          1           0       -3.991322   -5.878160   -8.894237
     36          1           0       -3.702485   -4.665748  -10.155378
     37          1           0       -5.353610   -5.010553   -9.624964
     38          7           0       -4.149288   -2.981456   -5.017815
     39          1           0       -3.368852   -3.631243   -5.057354
     40          6           0       -3.967199   -1.903099   -4.049205
     41          1           0       -4.507895   -1.025528   -4.417242
     42          6           0       -2.451675   -1.655621   -3.999780
     43          6           0       -4.516449   -2.300403   -2.647411
     44          1           0       -3.947285   -3.184945   -2.328658
     45          8           0       -1.671844   -2.595921   -4.166290
     46          6           0       -4.307145   -1.185877   -1.610078
     47          1           0       -4.765233   -0.244952   -1.942158
     48          1           0       -3.253826   -0.988897   -1.397397
     49          1           0       -4.781642   -1.465994   -0.663938
     50          6           0       -6.001290   -2.683168   -2.742075
     51          1           0       -6.599159   -1.845123   -3.119043
     52          1           0       -6.156299   -3.535439   -3.411429
     53          1           0       -6.382844   -2.959949   -1.753453
     54          7           0       -2.065419   -0.386777   -3.752278
     55          1           0       -2.754282    0.315968   -3.503532
     56          6           0       -0.719636   -0.067368   -3.309274
     57          1           0       -0.220216   -1.008003   -3.053641
     58          6           0       -0.867640    0.811460   -2.052758
     59          6           0        0.103772    0.630903   -4.395073
     60          1           0        0.140298   -0.030855   -5.273524
     61          1           0        1.133406    0.769071   -4.027014
     62          8           0       -1.934832    1.379626   -1.798266
     63          8           0       -0.528390    1.867159   -4.679584
     64          1           0       -0.028760    2.312846   -5.379760
     65          7           0        0.229332    0.902875   -1.280495
     66          1           0        1.068439    0.366598   -1.473149
     67          6           0        0.232165    1.619868   -0.016599
     68          1           0       -0.382811    2.519105   -0.139791
     69          6           0        1.691505    1.977042    0.276753
     70          6           0       -0.369703    0.747451    1.129047
     71          1           0        0.313411   -0.089195    1.306367
     72          8           0        2.595116    1.213140   -0.073233
     73          6           0       -0.528775    1.542479    2.427200
     74          1           0        0.441350    1.829215    2.845144
     75          1           0       -1.132520    2.446587    2.270163
     76          1           0       -1.053252    0.919704    3.157945
     77          8           0       -1.603383    0.168772    0.724983
     78          1           0       -2.098619    0.823826    0.202366
     79          7           0        1.911440    3.133430    0.942631
     80          1           0        1.115618    3.643539    1.304612
     81          6           0        3.247455    3.543820    1.400390
     82          1           0        3.957031    3.193374    0.647512
     83          6           0        3.575964    2.862617    2.746841
     84          6           0        3.338111    5.065703    1.516195
     85          1           0        4.325291    5.303382    1.919305
     86          1           0        2.612188    5.415731    2.259651
     87          8           0        3.699074    3.504132    3.793503
     88          6           0        3.131474    5.799355    0.188963
     89          1           0        3.043510    6.877836    0.376187
     90          1           0        2.191447    5.494864   -0.290863
     91          6           0        4.276840    5.566046   -0.800771
     92          7           0        4.160123    6.243582   -1.984499
     93          1           0        3.510964    7.009724   -2.090778
     94          1           0        4.952112    6.212186   -2.612586
     95          8           0        5.210729    4.808897   -0.573746
     96          7           0        3.696270    1.517648    2.676958
     97          1           0        3.561871    1.060235    1.779556
     98          6           0        3.842984    0.687188    3.869538
     99          1           0        3.309581    1.196191    4.683487
    100          6           0        5.332312    0.580867    4.269641
    101          6           0        3.208457   -0.696232    3.634024
    102          1           0        3.793703   -1.219795    2.871843
    103          8           0        5.965160   -0.471288    4.189326
    104          6           0        3.157968   -1.537344    4.906128
    105          1           0        4.163882   -1.750915    5.270982
    106          1           0        2.607556   -1.010536    5.698121
    107          1           0        2.644281   -2.480672    4.697539
    108          8           0        1.901758   -0.541885    3.063752
    109          1           0        1.310792   -0.236115    3.770522
    110          7           0        5.875763    1.743048    4.698693
    111          1           0        5.269044    2.551606    4.801686
    112          6           0        7.213589    1.767286    5.267634
    113          1           0        7.904302    1.332235    4.536225
    114          6           0        7.219045    0.924738    6.562153
    115          6           0        7.613452    3.208279    5.591043
    116          1           0        8.635484    3.240319    5.980645
    117          1           0        7.561819    3.833781    4.693895
    118          1           0        6.942281    3.617325    6.353671
    119          8           0        6.333573    1.065516    7.401549
    120          7           0        8.264779    0.075263    6.694258
    121          1           0        8.971093    0.004344    5.972697
    122          6           0        8.442105   -0.801135    7.836091
    123          1           0        7.847053   -0.385897    8.654219
    124          6           0        9.934337   -0.809375    8.188208
    125          6           0        8.000951   -2.254881    7.532502
    126          1           0        8.664805   -2.638510    6.745891
    127          1           0        8.189246   -2.866157    8.427556
    128          8           0       10.796739   -0.652076    7.326305
    129          6           0        6.535846   -2.420151    7.090853
    130          1           0        6.372595   -1.755290    6.234111
    131          6           0        6.299457   -3.861917    6.617306
    132          1           0        6.456551   -4.578113    7.435103
    133          1           0        6.976456   -4.131681    5.798075
    134          1           0        5.271390   -3.989424    6.257653
    135          6           0        5.544963   -2.040356    8.200208
    136          1           0        5.712331   -2.648565    9.100245
    137          1           0        4.514283   -2.219593    7.870074
    138          1           0        5.624539   -0.982208    8.463103
    139          7           0       10.227093   -1.066793    9.489013
    140          1           0        9.484275   -1.182421   10.163604
    141          6           0       11.605254   -1.218701    9.935590
    142          1           0       12.148347   -1.752858    9.148038
    143          6           0       11.717045   -2.069031   11.192385
    144          6           0       12.302457    0.135543   10.159826
    145          1           0       13.335867   -0.023724   10.478867
    146          1           0       12.292503    0.691407    9.219348
    147          1           0       11.778399    0.717878   10.925191
    148          8           0       12.770402   -2.393448   11.686651
    149          8           0       10.514316   -2.402685   11.728796
    150          1           0       10.704318   -2.920974   12.533601
 ---------------------------------------------------------------------

 SCF Done:  E(RB3LYP) =  -3455.67882265     A.U. after    2 cycles

 Alpha  occ. eigenvalues --  -19.26759 -19.24212 -19.21659 -19.21493 -19.19523
 Alpha  occ. eigenvalues --  -19.19380 -19.18963 -19.18957 -19.18920 -19.17767
 Alpha  occ. eigenvalues --  -19.16691 -19.16345 -19.14873 -19.14827 -19.13487
 Alpha  occ. eigenvalues --  -14.60496 -14.49334 -14.45471 -14.43566 -14.43258
 Alpha  occ. eigenvalues --  -14.43077 -14.40595 -14.40464 -14.39699 -14.38409
 Alpha  occ. eigenvalues --  -14.38402 -10.43493 -10.40801 -10.38757 -10.36420
 Alpha  occ. eigenvalues --  -10.36152 -10.36111 -10.36069 -10.34122 -10.33996
 Alpha  occ. eigenvalues --  -10.33505 -10.33460 -10.31913 -10.31789 -10.31298
 Alpha  occ. eigenvalues --  -10.30817 -10.30783 -10.30632 -10.30525 -10.30076
 Alpha  occ. eigenvalues --  -10.29387 -10.29277 -10.28456 -10.28214 -10.28013
 Alpha  occ. eigenvalues --  -10.27656 -10.27317 -10.27177 -10.27164 -10.26343
 Alpha  occ. eigenvalues --  -10.26279 -10.26035 -10.25979 -10.25139 -10.24935
 Alpha  occ. eigenvalues --  -10.24215 -10.23876 -10.23416 -10.21607 -10.21264
 Alpha  occ. eigenvalues --  -10.21202 -10.21151 -10.20328 -10.19204 -10.18475
 Alpha  occ. eigenvalues --   -1.19278  -1.14752  -1.14285  -1.13573  -1.11712
 Alpha  occ. eigenvalues --   -1.11141  -1.10481  -1.08845  -1.08461  -1.08121
 Alpha  occ. eigenvalues --   -1.07022  -1.06852  -1.06551  -1.06488  -1.06095
 Alpha  occ. eigenvalues --   -1.05666  -1.05244  -1.01995  -0.99944  -0.99721
 Alpha  occ. eigenvalues --   -0.99412  -0.96862  -0.96224  -0.95271  -0.95113
 Alpha  occ. eigenvalues --   -0.94957  -0.94858  -0.90889  -0.88370  -0.87953
 Alpha  occ. eigenvalues --   -0.86064  -0.84509  -0.83422  -0.82817  -0.82430
 Alpha  occ. eigenvalues --   -0.82228  -0.81238  -0.80131  -0.79956  -0.78764
 Alpha  occ. eigenvalues --   -0.78469  -0.78054  -0.77129  -0.76637  -0.76444
 Alpha  occ. eigenvalues --   -0.75357  -0.74204  -0.74170  -0.73358  -0.72200
 Alpha  occ. eigenvalues --   -0.71399  -0.71214  -0.69760  -0.69219  -0.68852
 Alpha  occ. eigenvalues --   -0.68517  -0.68128  -0.67482  -0.67357  -0.67207
 Alpha  occ. eigenvalues --   -0.66911  -0.66041  -0.65826  -0.65576  -0.65232
 Alpha  occ. eigenvalues --   -0.64720  -0.63841  -0.63388  -0.63186  -0.62846
 Alpha  occ. eigenvalues --   -0.62525  -0.61983  -0.61258  -0.60820  -0.59992
 Alpha  occ. eigenvalues --   -0.59409  -0.59158  -0.58907  -0.58551  -0.58468
 Alpha  occ. eigenvalues --   -0.57940  -0.57228  -0.56720  -0.56605  -0.56326
 Alpha  occ. eigenvalues --   -0.56087  -0.55680  -0.55359  -0.55154  -0.54839
 Alpha  occ. eigenvalues --   -0.54330  -0.54242  -0.53960  -0.53686  -0.53324
 Alpha  occ. eigenvalues --   -0.52979  -0.52862  -0.52470  -0.51953  -0.51932
 Alpha  occ. eigenvalues --   -0.51733  -0.51402  -0.51233  -0.51050  -0.50675
 Alpha  occ. eigenvalues --   -0.50471  -0.50417  -0.50355  -0.50100  -0.49924
 Alpha  occ. eigenvalues --   -0.49632  -0.49499  -0.49109  -0.48890  -0.48498
 Alpha  occ. eigenvalues --   -0.48418  -0.48085  -0.47856  -0.47708  -0.47602
 Alpha  occ. eigenvalues --   -0.47530  -0.47367  -0.46975  -0.46809  -0.46754
 Alpha  occ. eigenvalues --   -0.46265  -0.46169  -0.46108  -0.45926  -0.45866
 Alpha  occ. eigenvalues --   -0.45758  -0.45274  -0.45074  -0.45035  -0.44856
 Alpha  occ. eigenvalues --   -0.44703  -0.44636  -0.44509  -0.44275  -0.44125
 Alpha  occ. eigenvalues --   -0.44029  -0.43869  -0.43682  -0.43644  -0.43243
 Alpha  occ. eigenvalues --   -0.42950  -0.42854  -0.42679  -0.42660  -0.42608
 Alpha  occ. eigenvalues --   -0.42247  -0.41972  -0.41875  -0.41757  -0.41336
 Alpha  occ. eigenvalues --   -0.41173  -0.41163  -0.40939  -0.40888  -0.40827
 Alpha  occ. eigenvalues --   -0.40752  -0.40727  -0.40604  -0.40402  -0.40108
 Alpha  occ. eigenvalues --   -0.39902  -0.39653  -0.39454  -0.39020  -0.38800
 Alpha  occ. eigenvalues --   -0.38613  -0.38371  -0.37646  -0.36778  -0.35848
 Alpha  occ. eigenvalues --   -0.35831  -0.35044  -0.34647  -0.34419  -0.34338
 Alpha  occ. eigenvalues --   -0.34109  -0.33982  -0.33737  -0.33348  -0.33066
 Alpha  occ. eigenvalues --   -0.32583  -0.32264  -0.32133  -0.31932  -0.31895
 Alpha  occ. eigenvalues --   -0.31509  -0.30955  -0.30043  -0.29483  -0.29398
 Alpha  occ. eigenvalues --   -0.29073  -0.28840  -0.27686  -0.27055  -0.26716
 Alpha virt. eigenvalues --   -0.12546  -0.11224  -0.07687  -0.06556  -0.05829
 Alpha virt. eigenvalues --   -0.05578  -0.04925  -0.04450  -0.03046  -0.03031
 Alpha virt. eigenvalues --   -0.02485  -0.02461  -0.01325  -0.01300  -0.00724

 Mulliken charges:
               1
     1  N   -0.751763
     2  H    0.417103
     3  H    0.413837
     4  H    0.431163
     5  C   -0.123164
     6  H    0.213200
     7  C    0.645465
     8  C   -0.284260
     9  H    0.172364
    10  H    0.162679
    11  O   -0.539947
    12  C   -0.113277
    13  H    0.169148
    14  C   -0.455722
    15  H    0.153553
    16  H    0.131729
    17  H    0.191974
    18  C   -0.451675
    19  H    0.153350
    20  H    0.155730
    21  H    0.177921
    22  N   -0.597333
    23  H    0.382884
    24  C   -0.076116
    25  H    0.185838
    26  C    0.632825
    27  C   -0.076178
    28  H    0.149080
    29  O   -0.557174
    30  C   -0.474114
    31  H    0.155545
    32  H    0.170774
    33  H    0.169461
    34  C   -0.445542
    35  H    0.162545
    36  H    0.167832
    37  H    0.131449
    38  N   -0.600752
    39  H    0.362422
    40  C   -0.064059
    41  H    0.179348
    42  C    0.617427
    43  C   -0.073212
    44  H    0.147517
    45  O   -0.547019
    46  C   -0.475538
    47  H    0.146252
    48  H    0.181209
    49  H    0.161038
    50  C   -0.452096
    51  H    0.155675
    52  H    0.135130
    53  H    0.155833
    54  N   -0.582954
    55  H    0.365506
    56  C   -0.099842
    57  H    0.197263
    58  C    0.671203
    59  C   -0.023006
    60  H    0.150465
    61  H    0.139037
    62  O   -0.568134
    63  O   -0.612612
    64  H    0.406139
    65  N   -0.602870
    66  H    0.358125
    67  C   -0.100182
    68  H    0.166085
    69  C    0.639368
    70  C    0.162422
    71  H    0.184250
    72  O   -0.550197
    73  C   -0.491878
    74  H    0.153233
    75  H    0.136278
    76  H    0.171339
    77  O   -0.643213
    78  H    0.411316
    79  N   -0.603305
    80  H    0.338093
    81  C   -0.084675
    82  H    0.230094
    83  C    0.631145
    84  C   -0.273607
    85  H    0.188578
    86  H    0.150222
    87  O   -0.547968
    88  C   -0.381322
    89  H    0.166693
    90  H    0.161962
    91  C    0.597334
    92  N   -0.744411
    93  H    0.336365
    94  H    0.346327
    95  O   -0.495874
    96  N   -0.613558
    97  H    0.378555
    98  C   -0.082909
    99  H    0.168008
   100  C    0.652291
   101  C    0.118334
   102  H    0.167172
   103  O   -0.539925
   104  C   -0.496796
   105  H    0.210936
   106  H    0.135846
   107  H    0.160104
   108  O   -0.629770
   109  H    0.391567
   110  N   -0.608057
   111  H    0.371462
   112  C   -0.026856
   113  H    0.156986
   114  C    0.639213
   115  C   -0.481281
   116  H    0.165976
   117  H    0.164294
   118  H    0.176387
   119  O   -0.544576
   120  N   -0.590846
   121  H    0.345804
   122  C   -0.076455
   123  H    0.173445
   124  C    0.631184
   125  C   -0.251992
   126  H    0.145192
   127  H    0.129117
   128  O   -0.540566
   129  C   -0.094127
   130  H    0.180479
   131  C   -0.443885
   132  H    0.133386
   133  H    0.142692
   134  H    0.137217
   135  C   -0.471051
   136  H    0.121958
   137  H    0.132909
   138  H    0.185457
   139  N   -0.618420
   140  H    0.350754
   141  C   -0.036638
   142  H    0.208382
   143  C    0.587429
   144  C   -0.447892
   145  H    0.178261
   146  H    0.185446
   147  H    0.150722
   148  O   -0.452130
   149  O   -0.582419
   150  H    0.420035
 Sum of Mulliken charges =   1.00000

 Dipole moment (field-independent basis, Debye):
    X=            -34.8136    Y=            -15.9943    Z=            -30.5085  Tot=             48.9753
 Quadrupole moment (field-independent basis, Debye-Ang):
   XX=           -137.7714   YY=           -227.5143   ZZ=           -127.9483
   XY=            230.0699   XZ=            253.2866   YZ=            153.7936

 Normal termination of Gaussian 16 at Mon Jul 18 20:42:07 2022.
