 Gaussian 16, Revision C.01,
 Gaussian 16:  ES64L-G16RevC.01  3-Jul-2019

 ----------------------------------------------------------------------
 # B3LYP/6-31G* empiricaldispersion=gd3 guess=read geom=check nosymm in
 tegral(ultrafinegrid)
 ----------------------------------------------------------------------

 ------------------------------------------------------
 Candidate Structure: Conf:745 Charge calc in gas phase
 ------------------------------------------------------
 Structure from the checkpoint file:  "conf-745.chk"
 Charge =  1 Multiplicity = 1

                          Input orientation:
 ---------------------------------------------------------------------
 Center     Atomic      Atomic             Coordinates (Angstroms)
 Number     Number       Type             X           Y           Z
 ---------------------------------------------------------------------
      1          7           0       -6.251898   -8.003148   -4.494466
      2          1           0       -5.414488   -8.524174   -4.771216
      3          1           0       -7.074167   -8.462073   -4.896293
      4          1           0       -6.297108   -7.981262   -3.432734
      5          6           0       -6.171846   -6.522292   -4.825300
      6          1           0       -5.434221   -6.389136   -5.618289
      7          6           0       -5.698485   -5.917015   -3.477722
      8          6           0       -7.564241   -6.023826   -5.252910
      9          1           0       -8.265134   -6.229357   -4.432210
     10          1           0       -7.884384   -6.622576   -6.118613
     11          8           0       -5.861522   -6.605308   -2.457702
     12          6           0       -7.651988   -4.530174   -5.638926
     13          1           0       -7.376020   -3.923752   -4.768464
     14          6           0       -6.711097   -4.168497   -6.797777
     15          1           0       -6.943159   -4.759437   -7.692839
     16          1           0       -5.650471   -4.323329   -6.561612
     17          1           0       -6.820065   -3.111065   -7.054560
     18          6           0       -9.107595   -4.195774   -5.998175
     19          1           0       -9.438491   -4.761693   -6.877900
     20          1           0       -9.789792   -4.423016   -5.171107
     21          1           0       -9.206044   -3.131025   -6.230975
     22          7           0       -5.168214   -4.702911   -3.527629
     23          1           0       -5.182592   -4.159210   -4.389837
     24          6           0       -4.859954   -3.877308   -2.357562
     25          1           0       -5.417346   -4.279436   -1.505045
     26          6           0       -5.368593   -2.476293   -2.756861
     27          6           0       -3.333240   -3.880107   -2.024448
     28          1           0       -2.829354   -3.309515   -2.815290
     29          8           0       -5.520446   -2.191527   -3.946853
     30          6           0       -3.042194   -3.197269   -0.679117
     31          1           0       -3.593087   -3.683417    0.137581
     32          1           0       -3.271200   -2.131547   -0.701171
     33          1           0       -1.974922   -3.262758   -0.450085
     34          6           0       -2.787211   -5.315922   -2.015726
     35          1           0       -3.315755   -5.934525   -1.281305
     36          1           0       -1.725303   -5.305418   -1.751624
     37          1           0       -2.878580   -5.795634   -2.995656
     38          7           0       -5.623037   -1.606293   -1.753643
     39          1           0       -5.318119   -1.876094   -0.827356
     40          6           0       -5.650170   -0.169535   -2.020911
     41          1           0       -6.468568    0.036787   -2.719860
     42          6           0       -4.308502    0.212077   -2.690785
     43          6           0       -5.904500    0.589846   -0.689346
     44          1           0       -5.092355    0.307705   -0.002154
     45          8           0       -3.298963   -0.471937   -2.517871
     46          6           0       -5.868475    2.117150   -0.852873
     47          1           0       -6.608288    2.448028   -1.595982
     48          1           0       -4.882591    2.498127   -1.133198
     49          1           0       -6.141070    2.590944    0.095321
     50          6           0       -7.248026    0.154888   -0.080055
     51          1           0       -8.077313    0.440004   -0.739153
     52          1           0       -7.310881   -0.925337    0.084269
     53          1           0       -7.401454    0.650587    0.883724
     54          7           0       -4.304614    1.323006   -3.469746
     55          1           0       -5.078848    1.966873   -3.357603
     56          6           0       -3.025610    1.902992   -3.906842
     57          1           0       -2.507657    1.139818   -4.493962
     58          6           0       -2.220257    2.291787   -2.652810
     59          6           0       -3.293182    3.114711   -4.805284
     60          1           0       -2.338812    3.585759   -5.056286
     61          1           0       -3.885461    3.855129   -4.243342
     62          8           0       -2.678698    3.095677   -1.841612
     63          8           0       -3.891452    2.750421   -6.035048
     64          1           0       -4.730006    2.300862   -5.846934
     65          7           0       -1.045565    1.645888   -2.514925
     66          1           0       -0.724306    0.998877   -3.225988
     67          6           0       -0.214423    1.671512   -1.328332
     68          1           0       -0.247226    2.672364   -0.886222
     69          6           0        1.210407    1.316272   -1.780915
     70          6           0       -0.697018    0.611200   -0.277065
     71          1           0        0.110324    0.483533    0.453819
     72          8           0        1.407048    0.780709   -2.876414
     73          6           0       -1.967957    1.032761    0.461718
     74          1           0       -1.841535    1.995860    0.966133
     75          1           0       -2.806022    1.131463   -0.231358
     76          1           0       -2.212535    0.269098    1.207464
     77          8           0       -0.846249   -0.654455   -0.899981
     78          1           0       -1.604837   -0.589902   -1.509962
     79          7           0        2.171799    1.604530   -0.883832
     80          1           0        1.916227    1.960916    0.034105
     81          6           0        3.536513    1.096089   -0.924974
     82          1           0        3.553213    0.198864   -1.552542
     83          6           0        3.904611    0.741060    0.522871
     84          6           0        4.534162    2.142160   -1.474353
     85          1           0        5.559936    1.813109   -1.273710
     86          1           0        4.376982    3.079870   -0.928418
     87          8           0        3.276796    1.226949    1.470343
     88          6           0        4.386404    2.357494   -2.988188
     89          1           0        5.016296    3.198712   -3.292942
     90          1           0        3.349607    2.592206   -3.248159
     91          6           0        4.903960    1.120749   -3.727766
     92          7           0        3.947682    0.353369   -4.326510
     93          1           0        2.975534    0.449716   -4.046803
     94          1           0        4.254791   -0.532867   -4.705740
     95          8           0        6.097737    0.847301   -3.739916
     96          7           0        4.963234   -0.077314    0.673635
     97          1           0        5.510514   -0.391015   -0.122614
     98          6           0        5.565337   -0.352052    1.977312
     99          1           0        4.760693   -0.387414    2.717709
    100          6           0        6.540626    0.799284    2.306852
    101          6           0        6.315080   -1.697665    1.903025
    102          1           0        6.876428   -1.809553    2.842277
    103          8           0        7.762004    0.675239    2.156801
    104          6           0        5.375337   -2.881498    1.723898
    105          1           0        4.690244   -2.968763    2.574259
    106          1           0        4.784054   -2.770537    0.809101
    107          1           0        5.960535   -3.801819    1.644375
    108          8           0        7.203979   -1.674724    0.790737
    109          1           0        7.851312   -0.973535    1.006432
    110          7           0        5.956999    1.945075    2.710385
    111          1           0        4.942890    2.029541    2.753209
    112          6           0        6.719678    3.170730    2.883941
    113          1           0        7.618192    2.935505    3.464858
    114          6           0        5.831775    4.158780    3.650605
    115          6           0        7.140681    3.776992    1.530853
    116          1           0        7.723418    4.693152    1.673913
    117          1           0        7.752615    3.052784    0.987395
    118          1           0        6.252344    4.017680    0.936649
    119          8           0        4.606339    4.047620    3.656189
    120          7           0        6.505559    5.157030    4.269579
    121          1           0        7.502276    5.271084    4.114044
    122          6           0        5.854165    6.328465    4.831135
    123          1           0        4.846951    6.385518    4.407393
    124          6           0        6.682447    7.549975    4.408537
    125          6           0        5.782323    6.272777    6.374995
    126          1           0        6.812401    6.196881    6.747571
    127          1           0        5.392613    7.230236    6.748251
    128          8           0        7.863433    7.442734    4.092030
    129          6           0        4.934872    5.120774    6.943546
    130          1           0        5.312213    4.182230    6.515231
    131          6           0        5.111686    5.057456    8.467809
    132          1           0        4.748879    5.978942    8.942175
    133          1           0        6.164477    4.929891    8.746751
    134          1           0        4.546188    4.220840    8.893764
    135          6           0        3.451937    5.251424    6.567758
    136          1           0        3.047142    6.215669    6.905635
    137          1           0        2.863518    4.461084    7.048114
    138          1           0        3.302944    5.158179    5.488510
    139          7           0        6.016935    8.740011    4.435721
    140          1           0        5.093193    8.751151    4.848910
    141          6           0        6.723088   10.008260    4.372028
    142          1           0        7.653906    9.815099    3.830288
    143          6           0        7.149257   10.537556    5.746061
    144          6           0        5.907049   11.074834    3.632295
    145          1           0        6.459243   12.017115    3.618102
    146          1           0        5.712716   10.751004    2.606339
    147          1           0        4.945706   11.250170    4.130452
    148          8           0        7.724328   11.588547    5.905188
    149          8           0        6.809120    9.712334    6.765720
    150          1           0        7.142127   10.134227    7.580682
 ---------------------------------------------------------------------

 SCF Done:  E(RB3LYP) =  -3455.68888689     A.U. after    1 cycles

 Alpha  occ. eigenvalues --  -19.27177 -19.24699 -19.22980 -19.22051 -19.21984
 Alpha  occ. eigenvalues --  -19.19830 -19.19302 -19.18706 -19.18448 -19.18406
 Alpha  occ. eigenvalues --  -19.17773 -19.16986 -19.16641 -19.16391 -19.14077
 Alpha  occ. eigenvalues --  -14.60696 -14.49817 -14.46585 -14.45945 -14.43162
 Alpha  occ. eigenvalues --  -14.42755 -14.42369 -14.41411 -14.40459 -14.40198
 Alpha  occ. eigenvalues --  -14.38199 -10.43913 -10.41156 -10.39784 -10.38756
 Alpha  occ. eigenvalues --  -10.36613 -10.36170 -10.36082 -10.35268 -10.34732
 Alpha  occ. eigenvalues --  -10.33909 -10.33906 -10.33481 -10.33449 -10.33308
 Alpha  occ. eigenvalues --  -10.31855 -10.31364 -10.31264 -10.31244 -10.30485
 Alpha  occ. eigenvalues --  -10.30101 -10.29788 -10.29344 -10.29298 -10.28859
 Alpha  occ. eigenvalues --  -10.28656 -10.28374 -10.28178 -10.27939 -10.27926
 Alpha  occ. eigenvalues --  -10.27881 -10.26507 -10.26153 -10.25694 -10.25563
 Alpha  occ. eigenvalues --  -10.24851 -10.23632 -10.23437 -10.23294 -10.22864
 Alpha  occ. eigenvalues --  -10.22545 -10.22467 -10.21922 -10.20766 -10.20248
 Alpha  occ. eigenvalues --   -1.19688  -1.15304  -1.15295  -1.14377  -1.13665
 Alpha  occ. eigenvalues --   -1.11373  -1.10553  -1.10117  -1.09439  -1.09126
 Alpha  occ. eigenvalues --   -1.08579  -1.07910  -1.07628  -1.06628  -1.06250
 Alpha  occ. eigenvalues --   -1.05919  -1.05363  -1.03344  -1.01915  -0.99691
 Alpha  occ. eigenvalues --   -0.99475  -0.98666  -0.98099  -0.97204  -0.96737
 Alpha  occ. eigenvalues --   -0.95311  -0.93144  -0.91324  -0.89630  -0.88464
 Alpha  occ. eigenvalues --   -0.86456  -0.85382  -0.85065  -0.83376  -0.82932
 Alpha  occ. eigenvalues --   -0.82749  -0.82541  -0.81111  -0.80743  -0.79411
 Alpha  occ. eigenvalues --   -0.78914  -0.78723  -0.78057  -0.77170  -0.77061
 Alpha  occ. eigenvalues --   -0.76894  -0.74946  -0.74515  -0.73673  -0.72880
 Alpha  occ. eigenvalues --   -0.72142  -0.72044  -0.71468  -0.70800  -0.70350
 Alpha  occ. eigenvalues --   -0.69103  -0.68696  -0.68671  -0.68554  -0.67703
 Alpha  occ. eigenvalues --   -0.67293  -0.67125  -0.66768  -0.65724  -0.65153
 Alpha  occ. eigenvalues --   -0.64860  -0.64741  -0.64496  -0.63826  -0.63673
 Alpha  occ. eigenvalues --   -0.62941  -0.62742  -0.62235  -0.61563  -0.60633
 Alpha  occ. eigenvalues --   -0.60621  -0.60433  -0.60087  -0.59338  -0.59016
 Alpha  occ. eigenvalues --   -0.58479  -0.58173  -0.57693  -0.57495  -0.57211
 Alpha  occ. eigenvalues --   -0.57029  -0.56274  -0.56172  -0.55507  -0.55380
 Alpha  occ. eigenvalues --   -0.55048  -0.54705  -0.54437  -0.54243  -0.54034
 Alpha  occ. eigenvalues --   -0.53618  -0.53348  -0.53054  -0.52939  -0.52815
 Alpha  occ. eigenvalues --   -0.52375  -0.52244  -0.51807  -0.51631  -0.51502
 Alpha  occ. eigenvalues --   -0.51409  -0.51231  -0.50783  -0.50748  -0.50594
 Alpha  occ. eigenvalues --   -0.50430  -0.50234  -0.49858  -0.49644  -0.49451
 Alpha  occ. eigenvalues --   -0.49313  -0.49108  -0.49023  -0.48817  -0.48602
 Alpha  occ. eigenvalues --   -0.48298  -0.48269  -0.48150  -0.47781  -0.47659
 Alpha  occ. eigenvalues --   -0.47437  -0.47303  -0.47078  -0.46789  -0.46675
 Alpha  occ. eigenvalues --   -0.46635  -0.46422  -0.46392  -0.45845  -0.45769
 Alpha  occ. eigenvalues --   -0.45427  -0.45198  -0.45114  -0.44867  -0.44820
 Alpha  occ. eigenvalues --   -0.44682  -0.44659  -0.44371  -0.44162  -0.43980
 Alpha  occ. eigenvalues --   -0.43882  -0.43696  -0.43367  -0.43175  -0.42995
 Alpha  occ. eigenvalues --   -0.42818  -0.42723  -0.42677  -0.42610  -0.42421
 Alpha  occ. eigenvalues --   -0.42235  -0.42207  -0.42075  -0.41845  -0.41573
 Alpha  occ. eigenvalues --   -0.41555  -0.41521  -0.41312  -0.41156  -0.40984
 Alpha  occ. eigenvalues --   -0.40825  -0.40613  -0.40394  -0.39951  -0.39427
 Alpha  occ. eigenvalues --   -0.39290  -0.39125  -0.38399  -0.37320  -0.37297
 Alpha  occ. eigenvalues --   -0.36891  -0.36578  -0.36568  -0.36344  -0.36070
 Alpha  occ. eigenvalues --   -0.35919  -0.35371  -0.34961  -0.34137  -0.34057
 Alpha  occ. eigenvalues --   -0.33893  -0.33541  -0.32967  -0.31980  -0.31934
 Alpha  occ. eigenvalues --   -0.31401  -0.31304  -0.31009  -0.30768  -0.29814
 Alpha  occ. eigenvalues --   -0.29766  -0.29713  -0.29338  -0.28941  -0.27777
 Alpha virt. eigenvalues --   -0.12811  -0.11549  -0.09344  -0.07906  -0.06895
 Alpha virt. eigenvalues --   -0.05818  -0.05312  -0.05019  -0.04543  -0.03730
 Alpha virt. eigenvalues --   -0.02881  -0.02529  -0.02476  -0.01952  -0.01756

 Mulliken charges:
               1
     1  N   -0.754109
     2  H    0.417834
     3  H    0.413790
     4  H    0.432357
     5  C   -0.121956
     6  H    0.215347
     7  C    0.648552
     8  C   -0.285131
     9  H    0.173313
    10  H    0.163277
    11  O   -0.541967
    12  C   -0.107983
    13  H    0.165493
    14  C   -0.459271
    15  H    0.156214
    16  H    0.134436
    17  H    0.189752
    18  C   -0.451456
    19  H    0.155919
    20  H    0.156787
    21  H    0.174369
    22  N   -0.598483
    23  H    0.385117
    24  C   -0.088905
    25  H    0.186891
    26  C    0.652887
    27  C   -0.072866
    28  H    0.164486
    29  O   -0.546941
    30  C   -0.485777
    31  H    0.137935
    32  H    0.166070
    33  H    0.192267
    34  C   -0.449356
    35  H    0.161966
    36  H    0.173826
    37  H    0.123964
    38  N   -0.600591
    39  H    0.346618
    40  C   -0.046485
    41  H    0.174171
    42  C    0.656068
    43  C   -0.118019
    44  H    0.151156
    45  O   -0.554334
    46  C   -0.507200
    47  H    0.136392
    48  H    0.209930
    49  H    0.172268
    50  C   -0.444983
    51  H    0.154386
    52  H    0.146773
    53  H    0.169592
    54  N   -0.607290
    55  H    0.344002
    56  C   -0.068571
    57  H    0.178166
    58  C    0.632140
    59  C   -0.059175
    60  H    0.180832
    61  H    0.152236
    62  O   -0.541610
    63  O   -0.601932
    64  H    0.393910
    65  N   -0.604721
    66  H    0.357859
    67  C   -0.074161
    68  H    0.185305
    69  C    0.644951
    70  C    0.122659
    71  H    0.156255
    72  O   -0.557543
    73  C   -0.468380
    74  H    0.159829
    75  H    0.155920
    76  H    0.151406
    77  O   -0.664411
    78  H    0.441671
    79  N   -0.599523
    80  H    0.361083
    81  C   -0.076342
    82  H    0.182315
    83  C    0.627165
    84  C   -0.272649
    85  H    0.177012
    86  H    0.157052
    87  O   -0.551162
    88  C   -0.343504
    89  H    0.177011
    90  H    0.153709
    91  C    0.551606
    92  N   -0.762595
    93  H    0.382191
    94  H    0.328956
    95  O   -0.507277
    96  N   -0.599487
    97  H    0.360370
    98  C   -0.082499
    99  H    0.179941
   100  C    0.637349
   101  C    0.121334
   102  H    0.143229
   103  O   -0.553066
   104  C   -0.449049
   105  H    0.143035
   106  H    0.149065
   107  H    0.169435
   108  O   -0.649717
   109  H    0.422928
   110  N   -0.625086
   111  H    0.382171
   112  C   -0.039971
   113  H    0.180106
   114  C    0.614148
   115  C   -0.460179
   116  H    0.162339
   117  H    0.190842
   118  H    0.154572
   119  O   -0.534537
   120  N   -0.602266
   121  H    0.353751
   122  C   -0.083422
   123  H    0.177190
   124  C    0.622736
   125  C   -0.251665
   126  H    0.147025
   127  H    0.137803
   128  O   -0.526469
   129  C   -0.065859
   130  H    0.138946
   131  C   -0.443921
   132  H    0.138081
   133  H    0.143034
   134  H    0.145578
   135  C   -0.464411
   136  H    0.123424
   137  H    0.142860
   138  H    0.179100
   139  N   -0.590857
   140  H    0.333925
   141  C   -0.063442
   142  H    0.222473
   143  C    0.597709
   144  C   -0.457403
   145  H    0.193349
   146  H    0.169613
   147  H    0.148851
   148  O   -0.450940
   149  O   -0.569562
   150  H    0.418702
 Sum of Mulliken charges =   1.00000

 Dipole moment (field-independent basis, Debye):
    X=            -32.0790    Y=            -21.6140    Z=            -13.6719  Tot=             41.0262
 Quadrupole moment (field-independent basis, Debye-Ang):
   XX=           -266.3571   YY=           -174.7185   ZZ=           -304.0345
   XY=            173.4509   XZ=            158.3845   YZ=            161.7776

 Normal termination of Gaussian 16 at Mon Jul 18 20:48:35 2022.
