 Gaussian 16, Revision C.01,
 Gaussian 16:  ES64L-G16RevC.01  3-Jul-2019

 ----------------------------------------------------------------------
 # B3LYP/6-31G* empiricaldispersion=gd3 guess=read geom=check nosymm in
 tegral(ultrafinegrid)
 ----------------------------------------------------------------------

 ------------------------------------------------------
 Candidate Structure: Conf:367 Charge calc in gas phase
 ------------------------------------------------------
 Structure from the checkpoint file:  "conf-367.chk"
 Charge =  1 Multiplicity = 1

                          Input orientation:
 ---------------------------------------------------------------------
 Center     Atomic      Atomic             Coordinates (Angstroms)
 Number     Number       Type             X           Y           Z
 ---------------------------------------------------------------------
      1          7           0       -8.006480   -5.896553   -7.163008
      2          1           0       -7.396913   -6.432726   -7.787793
      3          1           0       -8.958223   -5.908388   -7.540369
      4          1           0       -7.965543   -6.336268   -6.197202
      5          6           0       -7.492394   -4.494113   -6.883352
      6          1           0       -6.813988   -4.211973   -7.690071
      7          6           0       -6.751096   -4.685213   -5.534335
      8          6           0       -8.688291   -3.529663   -6.781130
      9          1           0       -9.353702   -3.897024   -5.987838
     10          1           0       -9.243687   -3.582703   -7.729377
     11          8           0       -7.043466   -5.685705   -4.861736
     12          6           0       -8.335812   -2.050038   -6.508829
     13          1           0       -7.822141   -1.980692   -5.543013
     14          6           0       -7.416934   -1.458589   -7.588195
     15          1           0       -7.885527   -1.514456   -8.578900
     16          1           0       -6.441826   -1.958687   -7.652259
     17          1           0       -7.211767   -0.406499   -7.371589
     18          6           0       -9.637987   -1.241958   -6.403709
     19          1           0      -10.191537   -1.257302   -7.350841
     20          1           0      -10.294580   -1.635172   -5.619291
     21          1           0       -9.417734   -0.197310   -6.163516
     22          7           0       -5.870005   -3.748769   -5.204854
     23          1           0       -5.795239   -2.893278   -5.753224
     24          6           0       -5.252098   -3.618045   -3.884893
     25          1           0       -5.864097   -4.176668   -3.169505
     26          6           0       -5.300045   -2.110051   -3.574066
     27          6           0       -3.796526   -4.165600   -3.859230
     28          1           0       -3.411474   -3.957451   -2.851637
     29          8           0       -5.521889   -1.292610   -4.471344
     30          6           0       -3.789778   -5.684106   -4.075455
     31          1           0       -4.137020   -5.936994   -5.084152
     32          1           0       -4.436044   -6.203303   -3.359852
     33          1           0       -2.772896   -6.074860   -3.968539
     34          6           0       -2.891057   -3.443467   -4.865889
     35          1           0       -3.251527   -3.587894   -5.891949
     36          1           0       -1.877777   -3.853512   -4.812998
     37          1           0       -2.825071   -2.372441   -4.659341
     38          7           0       -5.072358   -1.761755   -2.289868
     39          1           0       -4.703600   -2.470786   -1.668206
     40          6           0       -4.738215   -0.379744   -1.945834
     41          1           0       -5.521200    0.263168   -2.361210
     42          6           0       -3.385471   -0.053954   -2.604700
     43          6           0       -4.686688   -0.212046   -0.404959
     44          1           0       -3.904788   -0.887709   -0.029637
     45          8           0       -2.507656   -0.919560   -2.683092
     46          6           0       -4.290056    1.215856   -0.003902
     47          1           0       -4.976422    1.954189   -0.441987
     48          1           0       -3.266438    1.468451   -0.286788
     49          1           0       -4.356074    1.320370    1.083414
     50          6           0       -6.037524   -0.595452    0.218499
     51          1           0       -6.828758    0.081554   -0.127345
     52          1           0       -6.342571   -1.617841   -0.027777
     53          1           0       -5.982261   -0.515099    1.308768
     54          7           0       -3.218613    1.205801   -3.079261
     55          1           0       -3.841232    1.918102   -2.710719
     56          6           0       -1.876662    1.681512   -3.456882
     57          1           0       -1.420031    0.892214   -4.057731
     58          6           0       -1.117326    1.932135   -2.145877
     59          6           0       -2.017565    2.944436   -4.309876
     60          1           0       -1.022226    3.317408   -4.567549
     61          1           0       -2.518250    3.725763   -3.716241
     62          8           0       -1.526193    2.785278   -1.361418
     63          8           0       -2.680168    2.676031   -5.532182
     64          1           0       -3.527309    2.252869   -5.317990
     65          7           0       -0.072703    1.103896   -1.910542
     66          1           0        0.228035    0.440829   -2.613980
     67          6           0        0.539662    0.969101   -0.602663
     68          1           0        0.225081    1.831020   -0.009509
     69          6           0        2.051170    0.876889   -0.783667
     70          6           0        0.043694   -0.350433    0.085780
     71          1           0        0.536163   -1.186191   -0.435622
     72          8           0        2.517444    0.197911   -1.700547
     73          6           0        0.397791   -0.391483    1.566318
     74          1           0        1.479121   -0.366234    1.734533
     75          1           0       -0.065562    0.454761    2.087140
     76          1           0        0.004771   -1.312416    2.006324
     77          8           0       -1.366682   -0.473381   -0.030341
     78          1           0       -1.571823   -0.717643   -0.950331
     79          7           0        2.820453    1.505327    0.141246
     80          1           0        2.370196    1.913349    0.950999
     81          6           0        4.234908    1.148126    0.278115
     82          1           0        4.664262    1.154878   -0.728107
     83          6           0        4.298819   -0.268266    0.877590
     84          6           0        4.971953    2.138906    1.182148
     85          1           0        4.489220    2.157523    2.164661
     86          1           0        4.903122    3.145636    0.759286
     87          8           0        4.076266   -0.452668    2.078089
     88          6           0        6.435882    1.735921    1.367098
     89          1           0        6.938083    1.621206    0.395962
     90          1           0        6.488774    0.767572    1.875851
     91          6           0        7.216954    2.742165    2.208781
     92          7           0        8.540018    2.430477    2.383302
     93          1           0        8.911663    1.517292    2.163642
     94          1           0        9.073642    2.998615    3.026482
     95          8           0        6.718038    3.755931    2.675223
     96          7           0        4.605813   -1.265823    0.023317
     97          1           0        4.682097   -1.095228   -0.972928
     98          6           0        4.739816   -2.650188    0.464520
     99          1           0        4.113154   -2.777481    1.353539
    100          6           0        6.223899   -2.877482    0.839119
    101          6           0        4.289059   -3.597601   -0.661512
    102          1           0        4.472754   -4.625382   -0.313231
    103          8           0        6.970713   -3.583169    0.152111
    104          6           0        2.813881   -3.425073   -1.004727
    105          1           0        2.185187   -3.624010   -0.128996
    106          1           0        2.616867   -2.407145   -1.357045
    107          1           0        2.542034   -4.124165   -1.801152
    108          8           0        5.039485   -3.329400   -1.841288
    109          1           0        5.961801   -3.542946   -1.597687
    110          7           0        6.626986   -2.174934    1.919046
    111          1           0        5.948763   -1.631954    2.455374
    112          6           0        8.018188   -1.965060    2.291452
    113          1           0        8.467878   -2.916624    2.606032
    114          6           0        7.989113   -1.004337    3.499765
    115          6           0        8.847352   -1.384588    1.128578
    116          1           0        9.891444   -1.226060    1.416463
    117          1           0        8.825294   -2.077605    0.286448
    118          1           0        8.423288   -0.428837    0.802153
    119          8           0        6.928535   -0.570388    3.948490
    120          7           0        9.195458   -0.647549    3.999054
    121          1           0       10.061273   -0.948401    3.568050
    122          6           0        9.334200    0.354447    5.046802
    123          1           0        8.403353    0.926258    5.061916
    124          6           0       10.512051    1.250179    4.644953
    125          6           0        9.565202   -0.319771    6.419936
    126          1           0        8.741224   -1.032123    6.556623
    127          1           0       10.489364   -0.908904    6.352576
    128          8           0       11.424276    0.824797    3.938031
    129          6           0        9.634792    0.612235    7.644695
    130          1           0       10.460219    1.322431    7.503622
    131          6           0        8.338096    1.412987    7.842769
    132          1           0        7.482105    0.738998    7.971454
    133          1           0        8.101635    2.070095    6.996619
    134          1           0        8.406305    2.046355    8.733883
    135          6           0        9.944959   -0.216223    8.900560
    136          1           0        9.147128   -0.944222    9.095331
    137          1           0       10.032175    0.427111    9.783410
    138          1           0       10.885081   -0.769447    8.792232
    139          7           0       10.475130    2.526155    5.113864
    140          1           0        9.736118    2.796826    5.748597
    141          6           0       11.612955    3.427571    4.959899
    142          1           0       12.507230    2.799275    4.874372
    143          6           0       11.820944    4.309933    6.186059
    144          6           0       11.508398    4.291699    3.693733
    145          1           0       12.377205    4.949735    3.616767
    146          1           0       11.472922    3.639564    2.816768
    147          1           0       10.604064    4.910029    3.717354
    148          8           0       12.645243    5.189875    6.240501
    149          8           0       10.984063    4.009997    7.212896
    150          1           0       11.197186    4.629485    7.936709
 ---------------------------------------------------------------------

 SCF Done:  E(RB3LYP) =  -3455.69364675     A.U. after    2 cycles

 Alpha  occ. eigenvalues --  -19.27254 -19.25894 -19.23009 -19.21358 -19.21092
 Alpha  occ. eigenvalues --  -19.19869 -19.19485 -19.18123 -19.17932 -19.17820
 Alpha  occ. eigenvalues --  -19.17611 -19.17284 -19.16846 -19.16639 -19.14902
 Alpha  occ. eigenvalues --  -14.60754 -14.49911 -14.46503 -14.45473 -14.42837
 Alpha  occ. eigenvalues --  -14.42630 -14.42342 -14.41569 -14.41337 -14.40176
 Alpha  occ. eigenvalues --  -14.39057 -10.44009 -10.41175 -10.39717 -10.38157
 Alpha  occ. eigenvalues --  -10.37874 -10.35436 -10.35032 -10.34740 -10.34714
 Alpha  occ. eigenvalues --  -10.34455 -10.33865 -10.33646 -10.33615 -10.32630
 Alpha  occ. eigenvalues --  -10.32452 -10.31150 -10.30645 -10.30298 -10.29932
 Alpha  occ. eigenvalues --  -10.29751 -10.29641 -10.29075 -10.29022 -10.28744
 Alpha  occ. eigenvalues --  -10.28584 -10.28583 -10.28256 -10.27748 -10.27743
 Alpha  occ. eigenvalues --  -10.27697 -10.26578 -10.25807 -10.25091 -10.23897
 Alpha  occ. eigenvalues --  -10.23614 -10.23607 -10.23568 -10.23535 -10.23490
 Alpha  occ. eigenvalues --  -10.23270 -10.22663 -10.22024 -10.21846 -10.21492
 Alpha  occ. eigenvalues --   -1.19760  -1.16424  -1.15101  -1.14391  -1.13127
 Alpha  occ. eigenvalues --   -1.10507  -1.10045  -1.09789  -1.09323  -1.08796
 Alpha  occ. eigenvalues --   -1.08593  -1.08063  -1.07447  -1.07395  -1.06711
 Alpha  occ. eigenvalues --   -1.06679  -1.05217  -1.03108  -1.01325  -0.99031
 Alpha  occ. eigenvalues --   -0.98858  -0.98800  -0.98137  -0.97861  -0.96606
 Alpha  occ. eigenvalues --   -0.95296  -0.93855  -0.91385  -0.88933  -0.88374
 Alpha  occ. eigenvalues --   -0.86332  -0.85729  -0.84428  -0.83494  -0.83176
 Alpha  occ. eigenvalues --   -0.83004  -0.82514  -0.81381  -0.80551  -0.79091
 Alpha  occ. eigenvalues --   -0.78679  -0.78433  -0.77980  -0.77383  -0.76281
 Alpha  occ. eigenvalues --   -0.75605  -0.74900  -0.74536  -0.73678  -0.73265
 Alpha  occ. eigenvalues --   -0.72848  -0.72712  -0.71663  -0.71499  -0.70038
 Alpha  occ. eigenvalues --   -0.69651  -0.68794  -0.68380  -0.67744  -0.67214
 Alpha  occ. eigenvalues --   -0.66735  -0.66541  -0.66228  -0.65552  -0.65535
 Alpha  occ. eigenvalues --   -0.64688  -0.64211  -0.64067  -0.63855  -0.63629
 Alpha  occ. eigenvalues --   -0.63446  -0.62507  -0.61979  -0.61343  -0.61162
 Alpha  occ. eigenvalues --   -0.60704  -0.60578  -0.60047  -0.59877  -0.58534
 Alpha  occ. eigenvalues --   -0.58092  -0.57697  -0.57403  -0.57238  -0.57087
 Alpha  occ. eigenvalues --   -0.56991  -0.56696  -0.56183  -0.55743  -0.55672
 Alpha  occ. eigenvalues --   -0.55308  -0.54910  -0.54395  -0.54377  -0.54248
 Alpha  occ. eigenvalues --   -0.54050  -0.53904  -0.53488  -0.53338  -0.52816
 Alpha  occ. eigenvalues --   -0.52702  -0.52227  -0.52173  -0.51730  -0.51581
 Alpha  occ. eigenvalues --   -0.51187  -0.50993  -0.50886  -0.50807  -0.50615
 Alpha  occ. eigenvalues --   -0.50107  -0.49837  -0.49474  -0.49376  -0.49337
 Alpha  occ. eigenvalues --   -0.49109  -0.49025  -0.48663  -0.48574  -0.48354
 Alpha  occ. eigenvalues --   -0.48200  -0.47847  -0.47822  -0.47466  -0.47314
 Alpha  occ. eigenvalues --   -0.47288  -0.47139  -0.46896  -0.46704  -0.46369
 Alpha  occ. eigenvalues --   -0.46330  -0.46120  -0.45763  -0.45482  -0.45336
 Alpha  occ. eigenvalues --   -0.45236  -0.45128  -0.45032  -0.44915  -0.44790
 Alpha  occ. eigenvalues --   -0.44703  -0.44602  -0.44368  -0.44280  -0.44184
 Alpha  occ. eigenvalues --   -0.43951  -0.43352  -0.43209  -0.43158  -0.43071
 Alpha  occ. eigenvalues --   -0.42923  -0.42740  -0.42714  -0.42619  -0.42360
 Alpha  occ. eigenvalues --   -0.42315  -0.42094  -0.41887  -0.41789  -0.41676
 Alpha  occ. eigenvalues --   -0.41569  -0.41327  -0.41116  -0.41002  -0.40916
 Alpha  occ. eigenvalues --   -0.40729  -0.40586  -0.40268  -0.39868  -0.39785
 Alpha  occ. eigenvalues --   -0.39350  -0.38688  -0.38357  -0.37996  -0.37660
 Alpha  occ. eigenvalues --   -0.37205  -0.37165  -0.37141  -0.36899  -0.36624
 Alpha  occ. eigenvalues --   -0.35894  -0.34683  -0.34226  -0.33891  -0.33789
 Alpha  occ. eigenvalues --   -0.33583  -0.33130  -0.32370  -0.32216  -0.31587
 Alpha  occ. eigenvalues --   -0.31159  -0.31106  -0.30948  -0.30793  -0.30415
 Alpha  occ. eigenvalues --   -0.30307  -0.29869  -0.29655  -0.28644  -0.28554
 Alpha virt. eigenvalues --   -0.12897  -0.11569  -0.09116  -0.07840  -0.06896
 Alpha virt. eigenvalues --   -0.05395  -0.05073  -0.04779  -0.04733  -0.04320
 Alpha virt. eigenvalues --   -0.03965  -0.02908  -0.02794  -0.02090  -0.01549

 Mulliken charges:
               1
     1  N   -0.753721
     2  H    0.417931
     3  H    0.414332
     4  H    0.432324
     5  C   -0.122266
     6  H    0.215759
     7  C    0.648584
     8  C   -0.285418
     9  H    0.173690
    10  H    0.163454
    11  O   -0.540586
    12  C   -0.109192
    13  H    0.167621
    14  C   -0.459407
    15  H    0.156368
    16  H    0.133385
    17  H    0.190087
    18  C   -0.451634
    19  H    0.155584
    20  H    0.157136
    21  H    0.175464
    22  N   -0.594084
    23  H    0.386533
    24  C   -0.093145
    25  H    0.192398
    26  C    0.652702
    27  C   -0.081287
    28  H    0.152984
    29  O   -0.553129
    30  C   -0.443194
    31  H    0.132109
    32  H    0.159964
    33  H    0.170394
    34  C   -0.470819
    35  H    0.128658
    36  H    0.169999
    37  H    0.193481
    38  N   -0.594586
    39  H    0.347692
    40  C   -0.045450
    41  H    0.168905
    42  C    0.646238
    43  C   -0.119467
    44  H    0.165061
    45  O   -0.566275
    46  C   -0.489372
    47  H    0.129408
    48  H    0.209879
    49  H    0.167412
    50  C   -0.443942
    51  H    0.149554
    52  H    0.139175
    53  H    0.169150
    54  N   -0.599175
    55  H    0.350968
    56  C   -0.086732
    57  H    0.178167
    58  C    0.629909
    59  C   -0.045592
    60  H    0.176017
    61  H    0.152053
    62  O   -0.533579
    63  O   -0.609254
    64  H    0.395566
    65  N   -0.599416
    66  H    0.350342
    67  C   -0.069990
    68  H    0.184208
    69  C    0.634913
    70  C    0.117249
    71  H    0.139781
    72  O   -0.545292
    73  C   -0.483643
    74  H    0.180477
    75  H    0.155430
    76  H    0.164321
    77  O   -0.658654
    78  H    0.430985
    79  N   -0.599901
    80  H    0.345747
    81  C   -0.040377
    82  H    0.166743
    83  C    0.626183
    84  C   -0.275815
    85  H    0.177987
    86  H    0.170581
    87  O   -0.554536
    88  C   -0.413050
    89  H    0.160001
    90  H    0.196246
    91  C    0.607989
    92  N   -0.783712
    93  H    0.343010
    94  H    0.352841
    95  O   -0.506808
    96  N   -0.584806
    97  H    0.363154
    98  C   -0.083634
    99  H    0.182662
   100  C    0.639548
   101  C    0.120469
   102  H    0.136642
   103  O   -0.552910
   104  C   -0.473223
   105  H    0.136852
   106  H    0.181751
   107  H    0.155995
   108  O   -0.651467
   109  H    0.418090
   110  N   -0.645583
   111  H    0.399805
   112  C   -0.021320
   113  H    0.184251
   114  C    0.603884
   115  C   -0.486493
   116  H    0.155983
   117  H    0.208630
   118  H    0.151344
   119  O   -0.524403
   120  N   -0.619348
   121  H    0.353461
   122  C   -0.076146
   123  H    0.194776
   124  C    0.604827
   125  C   -0.248692
   126  H    0.159378
   127  H    0.145776
   128  O   -0.535034
   129  C   -0.098495
   130  H    0.139159
   131  C   -0.452740
   132  H    0.157659
   133  H    0.134835
   134  H    0.151623
   135  C   -0.444091
   136  H    0.146634
   137  H    0.147467
   138  H    0.147797
   139  N   -0.623555
   140  H    0.365501
   141  C   -0.048200
   142  H    0.217855
   143  C    0.591908
   144  C   -0.459238
   145  H    0.191318
   146  H    0.176106
   147  H    0.163079
   148  O   -0.443624
   149  O   -0.578128
   150  H    0.424282
 Sum of Mulliken charges =   1.00000

 Dipole moment (field-independent basis, Debye):
    X=            -27.2913    Y=            -19.1963    Z=            -21.5633  Tot=             39.7277
 Quadrupole moment (field-independent basis, Debye-Ang):
   XX=            -94.9623   YY=           -324.4060   ZZ=           -181.2300
   XY=            157.2120   XZ=            280.7147   YZ=            147.2457

 Normal termination of Gaussian 16 at Mon Jul 18 20:42:22 2022.
