 Gaussian 16, Revision C.01,
 Gaussian 16:  ES64L-G16RevC.01  3-Jul-2019

 ----------------------------------------------------------------------
 # B3LYP/6-31G* empiricaldispersion=gd3 guess=read geom=check nosymm in
 tegral(ultrafinegrid)
 ----------------------------------------------------------------------

 ------------------------------------------------------
 Candidate Structure: Conf:961 Charge calc in gas phase
 ------------------------------------------------------
 Structure from the checkpoint file:  "conf-961.chk"
 Charge =  1 Multiplicity = 1

                          Input orientation:
 ---------------------------------------------------------------------
 Center     Atomic      Atomic             Coordinates (Angstroms)
 Number     Number       Type             X           Y           Z
 ---------------------------------------------------------------------
      1          7           0       -4.537093   -8.389424   -4.632451
      2          1           0       -4.672814   -8.913544   -5.502633
      3          1           0       -4.773004   -8.995605   -3.841379
      4          1           0       -3.527357   -8.075638   -4.589572
      5          6           0       -5.278065   -7.063204   -4.611024
      6          1           0       -6.144209   -7.140969   -5.270171
      7          6           0       -4.203681   -6.079577   -5.135932
      8          6           0       -5.682214   -6.745758   -3.157563
      9          1           0       -4.772401   -6.779285   -2.542632
     10          1           0       -6.349230   -7.547571   -2.808107
     11          8           0       -3.018146   -6.413517   -5.001702
     12          6           0       -6.387626   -5.388410   -2.941958
     13          1           0       -5.711926   -4.590084   -3.267850
     14          6           0       -7.695284   -5.270845   -3.737446
     15          1           0       -8.413782   -6.039755   -3.427210
     16          1           0       -7.555821   -5.364782   -4.821832
     17          1           0       -8.151540   -4.291490   -3.568885
     18          6           0       -6.644328   -5.188903   -1.441085
     19          1           0       -7.326418   -5.953282   -1.049096
     20          1           0       -5.713691   -5.230949   -0.864733
     21          1           0       -7.102686   -4.210756   -1.263867
     22          7           0       -4.644556   -4.935758   -5.651722
     23          1           0       -5.637834   -4.711968   -5.633594
     24          6           0       -3.807554   -3.743001   -5.839406
     25          1           0       -2.837550   -3.945240   -5.374954
     26          6           0       -4.582617   -2.642461   -5.085777
     27          6           0       -3.606435   -3.405739   -7.336639
     28          1           0       -4.604176   -3.215842   -7.756324
     29          8           0       -5.817346   -2.638485   -5.125555
     30          6           0       -2.755276   -2.137424   -7.496539
     31          1           0       -1.763484   -2.270969   -7.045345
     32          1           0       -3.223909   -1.262740   -7.035609
     33          1           0       -2.606575   -1.916690   -8.557906
     34          6           0       -2.969573   -4.591466   -8.073301
     35          1           0       -1.982723   -4.826830   -7.657359
     36          1           0       -2.841375   -4.353385   -9.133949
     37          1           0       -3.589271   -5.491617   -8.005745
     38          7           0       -3.845223   -1.753289   -4.403080
     39          1           0       -2.836700   -1.848718   -4.328076
     40          6           0       -4.423328   -0.734460   -3.533687
     41          1           0       -5.180790   -0.180552   -4.099968
     42          6           0       -3.253836    0.183623   -3.158351
     43          6           0       -5.118098   -1.369821   -2.284345
     44          1           0       -5.941583   -1.954378   -2.711418
     45          8           0       -2.101792   -0.253750   -3.120605
     46          6           0       -4.193238   -2.320218   -1.512717
     47          1           0       -3.322763   -1.819166   -1.079194
     48          1           0       -3.825214   -3.127720   -2.156302
     49          1           0       -4.745918   -2.781724   -0.687365
     50          6           0       -5.728514   -0.303631   -1.364608
     51          1           0       -4.957030    0.279622   -0.851061
     52          1           0       -6.383433    0.385129   -1.915264
     53          1           0       -6.340862   -0.781685   -0.593370
     54          7           0       -3.557289    1.472935   -2.858950
     55          1           0       -4.531956    1.727271   -2.754601
     56          6           0       -2.558277    2.422545   -2.360641
     57          1           0       -1.606128    2.124842   -2.816361
     58          6           0       -2.314678    2.357015   -0.838041
     59          6           0       -2.878130    3.840643   -2.840827
     60          1           0       -2.302228    4.557637   -2.256737
     61          1           0       -3.943390    4.072473   -2.682548
     62          8           0       -2.176001    3.385524   -0.177336
     63          8           0       -2.496155    4.026433   -4.197916
     64          1           0       -2.951980    3.365350   -4.742796
     65          7           0       -2.159018    1.108600   -0.325934
     66          1           0       -2.044069    0.328577   -0.968082
     67          6           0       -1.476022    0.912944    0.959316
     68          1           0       -1.806045    1.698729    1.642830
     69          6           0        0.034375    1.045746    0.683821
     70          6           0       -1.800434   -0.477499    1.532928
     71          1           0       -1.138856   -0.618262    2.398533
     72          8           0        0.757454    0.046025    0.545879
     73          6           0       -3.252267   -0.611833    1.965040
     74          1           0       -3.485151    0.092358    2.770676
     75          1           0       -3.928683   -0.418277    1.127084
     76          1           0       -3.431989   -1.628674    2.325904
     77          8           0       -1.542727   -1.470722    0.537727
     78          1           0       -0.579977   -1.407175    0.373547
     79          7           0        0.480512    2.303873    0.513218
     80          1           0       -0.171412    3.069134    0.649390
     81          6           0        1.864537    2.625229    0.131545
     82          1           0        2.227561    1.771830   -0.452758
     83          6           0        2.681885    2.717941    1.439956
     84          6           0        1.915546    3.901814   -0.702797
     85          1           0        2.953656    4.106158   -0.976075
     86          1           0        1.603176    4.754348   -0.089772
     87          8           0        3.126218    3.773029    1.880292
     88          6           0        1.060627    3.808444   -1.972005
     89          1           0       -0.004642    3.764790   -1.718525
     90          1           0        1.291556    2.880252   -2.516572
     91          6           0        1.316216    4.983525   -2.922387
     92          7           0        0.334990    5.210112   -3.844996
     93          1           0       -0.483919    4.628108   -3.975758
     94          1           0        0.502555    5.943919   -4.519495
     95          8           0        2.330827    5.663098   -2.861006
     96          7           0        2.776705    1.527580    2.090905
     97          1           0        2.311071    0.726179    1.673476
     98          6           0        3.022184    1.469322    3.528018
     99          1           0        2.853527    2.480223    3.922157
    100          6           0        4.493284    1.084359    3.781141
    101          6           0        2.023659    0.494526    4.180811
    102          1           0        2.216413   -0.510294    3.792964
    103          8           0        4.824780   -0.029238    4.188113
    104          6           0        2.129093    0.483662    5.701688
    105          1           0        3.117237    0.136083    6.011033
    106          1           0        1.968367    1.491274    6.109819
    107          1           0        1.367490   -0.181718    6.119274
    108          8           0        0.685471    0.807052    3.752531
    109          1           0        0.453623    1.661870    4.151335
    110          7           0        5.367877    2.071147    3.483786
    111          1           0        5.050317    2.959976    3.099754
    112          6           0        6.802708    1.864767    3.559375
    113          1           0        7.022177    1.347609    4.501134
    114          6           0        7.467080    3.248074    3.551784
    115          6           0        7.323184    1.005357    2.391503
    116          1           0        8.401768    0.836107    2.478761
    117          1           0        6.812104    0.039414    2.405808
    118          1           0        7.123514    1.506122    1.438289
    119          8           0        6.876640    4.249215    3.148945
    120          7           0        8.753492    3.267250    3.971484
    121          1           0        9.218144    2.440910    4.330506
    122          6           0        9.550194    4.483087    3.962511
    123          1           0        9.316171    5.027652    3.042426
    124          6           0       11.017644    4.043638    3.980089
    125          6           0        9.211035    5.370061    5.187361
    126          1           0        8.122966    5.506230    5.170302
    127          1           0        9.454388    4.792920    6.088868
    128          8           0       11.360394    2.976237    4.487266
    129          6           0        9.889183    6.751414    5.255973
    130          1           0       10.978610    6.613850    5.269866
    131          6           0        9.531286    7.637919    4.052616
    132          1           0        8.444835    7.768694    3.976606
    133          1           0        9.870641    7.220573    3.096431
    134          1           0        9.987073    8.629451    4.151466
    135          6           0        9.491679    7.449593    6.565424
    136          1           0        8.408029    7.619374    6.603182
    137          1           0        9.985937    8.423579    6.658233
    138          1           0        9.767168    6.846682    7.438607
    139          7           0       11.901702    4.917996    3.436955
    140          1           0       11.571732    5.800187    3.072356
    141          6           0       13.338865    4.701677    3.536165
    142          1           0       13.517649    4.166431    4.476727
    143          6           0       14.112428    6.010626    3.635218
    144          6           0       13.885297    3.841263    2.386346
    145          1           0       14.962738    3.700968    2.503138
    146          1           0       13.385920    2.869494    2.407247
    147          1           0       13.693457    4.319201    1.419847
    148          8           0       15.318332    6.076793    3.631629
    149          8           0       13.311888    7.104814    3.727237
    150          1           0       13.905071    7.877715    3.786730
 ---------------------------------------------------------------------

 SCF Done:  E(RB3LYP) =  -3455.68598191     A.U. after    2 cycles

 Alpha  occ. eigenvalues --  -19.27639 -19.24759 -19.24136 -19.23060 -19.22984
 Alpha  occ. eigenvalues --  -19.20666 -19.20130 -19.19999 -19.19272 -19.18357
 Alpha  occ. eigenvalues --  -19.16232 -19.15843 -19.14667 -19.14477 -19.14447
 Alpha  occ. eigenvalues --  -14.61433 -14.50513 -14.47646 -14.47157 -14.44190
 Alpha  occ. eigenvalues --  -14.42882 -14.40500 -14.39623 -14.39068 -14.38747
 Alpha  occ. eigenvalues --  -14.38279 -10.44467 -10.41731 -10.40095 -10.40041
 Alpha  occ. eigenvalues --  -10.37689 -10.36711 -10.35935 -10.35170 -10.34345
 Alpha  occ. eigenvalues --  -10.34050 -10.32984 -10.32866 -10.32840 -10.32448
 Alpha  occ. eigenvalues --  -10.32195 -10.31817 -10.31733 -10.31611 -10.30209
 Alpha  occ. eigenvalues --  -10.30131 -10.30005 -10.29187 -10.29022 -10.28687
 Alpha  occ. eigenvalues --  -10.28427 -10.28309 -10.28300 -10.27132 -10.27106
 Alpha  occ. eigenvalues --  -10.26928 -10.26902 -10.26819 -10.26436 -10.25658
 Alpha  occ. eigenvalues --  -10.24287 -10.23896 -10.23263 -10.22148 -10.21767
 Alpha  occ. eigenvalues --  -10.21615 -10.21549 -10.21181 -10.20711 -10.20244
 Alpha  occ. eigenvalues --   -1.20198  -1.15543  -1.15288  -1.15134  -1.14613
 Alpha  occ. eigenvalues --   -1.12616  -1.11265  -1.10924  -1.08116  -1.07951
 Alpha  occ. eigenvalues --   -1.07444  -1.07189  -1.06941  -1.06721  -1.06362
 Alpha  occ. eigenvalues --   -1.06227  -1.05914  -1.03824  -1.03498  -1.00603
 Alpha  occ. eigenvalues --   -0.99169  -0.97102  -0.96453  -0.95824  -0.95699
 Alpha  occ. eigenvalues --   -0.94855  -0.93439  -0.92052  -0.90164  -0.89120
 Alpha  occ. eigenvalues --   -0.86593  -0.84949  -0.84599  -0.83910  -0.83434
 Alpha  occ. eigenvalues --   -0.82225  -0.81872  -0.81510  -0.80154  -0.80015
 Alpha  occ. eigenvalues --   -0.79240  -0.78930  -0.78100  -0.77455  -0.77042
 Alpha  occ. eigenvalues --   -0.76659  -0.75123  -0.74254  -0.74056  -0.73651
 Alpha  occ. eigenvalues --   -0.73020  -0.71866  -0.71387  -0.71062  -0.70487
 Alpha  occ. eigenvalues --   -0.69674  -0.69194  -0.68472  -0.68279  -0.68088
 Alpha  occ. eigenvalues --   -0.67467  -0.66680  -0.66495  -0.65890  -0.65853
 Alpha  occ. eigenvalues --   -0.65244  -0.64323  -0.64263  -0.63525  -0.63364
 Alpha  occ. eigenvalues --   -0.62562  -0.61905  -0.61802  -0.61440  -0.60604
 Alpha  occ. eigenvalues --   -0.60412  -0.60207  -0.59823  -0.59644  -0.59274
 Alpha  occ. eigenvalues --   -0.58534  -0.58462  -0.57913  -0.57637  -0.57383
 Alpha  occ. eigenvalues --   -0.57133  -0.56710  -0.56509  -0.56301  -0.56029
 Alpha  occ. eigenvalues --   -0.55811  -0.55341  -0.54913  -0.54550  -0.53832
 Alpha  occ. eigenvalues --   -0.53429  -0.53334  -0.53167  -0.52713  -0.52606
 Alpha  occ. eigenvalues --   -0.52541  -0.52228  -0.52094  -0.51552  -0.51382
 Alpha  occ. eigenvalues --   -0.51299  -0.51125  -0.50997  -0.50791  -0.50553
 Alpha  occ. eigenvalues --   -0.50382  -0.50301  -0.49907  -0.49735  -0.49344
 Alpha  occ. eigenvalues --   -0.49224  -0.49191  -0.48743  -0.48709  -0.48627
 Alpha  occ. eigenvalues --   -0.48498  -0.48152  -0.47883  -0.47788  -0.47740
 Alpha  occ. eigenvalues --   -0.47735  -0.47550  -0.47098  -0.46871  -0.46560
 Alpha  occ. eigenvalues --   -0.46233  -0.46007  -0.45660  -0.45531  -0.45468
 Alpha  occ. eigenvalues --   -0.45350  -0.45237  -0.45143  -0.45099  -0.44889
 Alpha  occ. eigenvalues --   -0.44855  -0.44684  -0.44424  -0.44131  -0.43946
 Alpha  occ. eigenvalues --   -0.43610  -0.43555  -0.43474  -0.43348  -0.43184
 Alpha  occ. eigenvalues --   -0.43014  -0.42955  -0.42711  -0.42683  -0.42217
 Alpha  occ. eigenvalues --   -0.42015  -0.41995  -0.41695  -0.41487  -0.41420
 Alpha  occ. eigenvalues --   -0.41179  -0.41033  -0.40757  -0.40564  -0.40470
 Alpha  occ. eigenvalues --   -0.40229  -0.39954  -0.39915  -0.39492  -0.39309
 Alpha  occ. eigenvalues --   -0.38866  -0.38839  -0.38657  -0.38057  -0.37324
 Alpha  occ. eigenvalues --   -0.37280  -0.36840  -0.36685  -0.36611  -0.36207
 Alpha  occ. eigenvalues --   -0.36116  -0.35736  -0.35712  -0.35489  -0.33841
 Alpha  occ. eigenvalues --   -0.33456  -0.33073  -0.32490  -0.32460  -0.31472
 Alpha  occ. eigenvalues --   -0.31174  -0.30052  -0.29982  -0.29679  -0.29202
 Alpha  occ. eigenvalues --   -0.28801  -0.28372  -0.28335  -0.27543  -0.27171
 Alpha virt. eigenvalues --   -0.13575  -0.11989  -0.09929  -0.08829  -0.07840
 Alpha virt. eigenvalues --   -0.07273  -0.05994  -0.04916  -0.04118  -0.03589
 Alpha virt. eigenvalues --   -0.02834  -0.02338  -0.02197  -0.01955  -0.01580

 Mulliken charges:
               1
     1  N   -0.749798
     2  H    0.419219
     3  H    0.416160
     4  H    0.432343
     5  C   -0.124881
     6  H    0.214042
     7  C    0.645260
     8  C   -0.285530
     9  H    0.176334
    10  H    0.165925
    11  O   -0.534258
    12  C   -0.113497
    13  H    0.165115
    14  C   -0.456585
    15  H    0.157843
    16  H    0.131229
    17  H    0.191075
    18  C   -0.453429
    19  H    0.156935
    20  H    0.163058
    21  H    0.171302
    22  N   -0.596590
    23  H    0.379444
    24  C   -0.070838
    25  H    0.186420
    26  C    0.635995
    27  C   -0.079324
    28  H    0.152453
    29  O   -0.554888
    30  C   -0.466588
    31  H    0.154963
    32  H    0.159190
    33  H    0.174450
    34  C   -0.447107
    35  H    0.162600
    36  H    0.171415
    37  H    0.133886
    38  N   -0.617347
    39  H    0.367333
    40  C   -0.030139
    41  H    0.174647
    42  C    0.612764
    43  C   -0.097707
    44  H    0.166853
    45  O   -0.538480
    46  C   -0.480815
    47  H    0.207823
    48  H    0.124465
    49  H    0.154140
    50  C   -0.487155
    51  H    0.170402
    52  H    0.142557
    53  H    0.169763
    54  N   -0.618186
    55  H    0.345919
    56  C   -0.113776
    57  H    0.217699
    58  C    0.629729
    59  C   -0.057141
    60  H    0.213165
    61  H    0.144610
    62  O   -0.531766
    63  O   -0.609421
    64  H    0.400957
    65  N   -0.610770
    66  H    0.375344
    67  C   -0.090469
    68  H    0.182726
    69  C    0.664894
    70  C    0.117902
    71  H    0.176441
    72  O   -0.580370
    73  C   -0.464651
    74  H    0.153630
    75  H    0.151883
    76  H    0.163142
    77  O   -0.656909
    78  H    0.423213
    79  N   -0.606369
    80  H    0.368990
    81  C   -0.084301
    82  H    0.181220
    83  C    0.616884
    84  C   -0.276391
    85  H    0.199647
    86  H    0.172624
    87  O   -0.517531
    88  C   -0.396022
    89  H    0.147220
    90  H    0.160401
    91  C    0.606787
    92  N   -0.789307
    93  H    0.367706
    94  H    0.338792
    95  O   -0.500071
    96  N   -0.606447
    97  H    0.374860
    98  C   -0.086721
    99  H    0.164358
   100  C    0.645472
   101  C    0.117395
   102  H    0.164924
   103  O   -0.548893
   104  C   -0.478009
   105  H    0.194222
   106  H    0.132842
   107  H    0.158019
   108  O   -0.634023
   109  H    0.387145
   110  N   -0.622458
   111  H    0.375915
   112  C   -0.033652
   113  H    0.171300
   114  C    0.618925
   115  C   -0.449469
   116  H    0.149342
   117  H    0.183785
   118  H    0.157174
   119  O   -0.536437
   120  N   -0.625324
   121  H    0.350923
   122  C   -0.047336
   123  H    0.173350
   124  C    0.613608
   125  C   -0.255860
   126  H    0.169698
   127  H    0.143066
   128  O   -0.539461
   129  C   -0.094685
   130  H    0.135336
   131  C   -0.449450
   132  H    0.161078
   133  H    0.127524
   134  H    0.146383
   135  C   -0.443315
   136  H    0.145733
   137  H    0.143143
   138  H    0.145274
   139  N   -0.616222
   140  H    0.358111
   141  C   -0.045361
   142  H    0.213210
   143  C    0.588084
   144  C   -0.442714
   145  H    0.181361
   146  H    0.178969
   147  H    0.151190
   148  O   -0.448997
   149  O   -0.578545
   150  H    0.421139
 Sum of Mulliken charges =   1.00000

 Dipole moment (field-independent basis, Debye):
    X=            -26.1974    Y=            -26.5406    Z=            -21.2468  Tot=             42.9200
 Quadrupole moment (field-independent basis, Debye-Ang):
   XX=           -267.2546   YY=           -165.7543   ZZ=           -291.5802
   XY=            177.9766   XZ=            110.6534   YZ=            156.0236

 Normal termination of Gaussian 16 at Sat Jul  2 15:27:01 2022.
