 Gaussian 16, Revision C.01,
 Gaussian 16:  ES64L-G16RevC.01  3-Jul-2019

 ----------------------------------------------------------------------
 # B3LYP/6-31G* empiricaldispersion=gd3 guess=read geom=check nosymm in
 tegral(ultrafinegrid)
 ----------------------------------------------------------------------

 ------------------------------------------------------
 Candidate Structure: Conf:474 Charge calc in gas phase
 ------------------------------------------------------
 Structure from the checkpoint file:  "conf-474.chk"
 Charge =  1 Multiplicity = 1

                          Input orientation:
 ---------------------------------------------------------------------
 Center     Atomic      Atomic             Coordinates (Angstroms)
 Number     Number       Type             X           Y           Z
 ---------------------------------------------------------------------
      1          7           0       -2.329807   -4.847636  -10.217164
      2          1           0       -1.933540   -4.814517  -11.159960
      3          1           0       -3.224098   -5.343972  -10.257571
      4          1           0       -1.638290   -5.334779   -9.563250
      5          6           0       -2.439914   -3.484838   -9.561691
      6          1           0       -2.269154   -2.724378  -10.325726
      7          6           0       -1.280243   -3.516688   -8.529501
      8          6           0       -3.804503   -3.307668   -8.881974
      9          1           0       -3.771423   -2.356170   -8.337046
     10          1           0       -3.911052   -4.089611   -8.116795
     11          8           0       -0.724152   -4.608534   -8.325052
     12          6           0       -5.029192   -3.305968   -9.820572
     13          1           0       -5.073601   -4.271451  -10.355286
     14          6           0       -6.309113   -3.197296   -8.977749
     15          1           0       -6.332356   -2.246013   -8.432768
     16          1           0       -6.381037   -4.008832   -8.244979
     17          1           0       -7.196847   -3.238840   -9.616234
     18          6           0       -4.960527   -2.183350  -10.865665
     19          1           0       -4.888123   -1.203836  -10.377416
     20          1           0       -4.106469   -2.284394  -11.546903
     21          1           0       -5.863574   -2.179695  -11.483610
     22          7           0       -1.005765   -2.366865   -7.935397
     23          1           0       -1.572499   -1.533657   -8.097143
     24          6           0       -0.100451   -2.186988   -6.794411
     25          1           0        0.065760   -3.160463   -6.323111
     26          6           0       -0.878769   -1.223292   -5.875221
     27          6           0        1.254413   -1.573062   -7.243842
     28          1           0        1.021668   -0.591028   -7.678871
     29          8           0       -1.604680   -0.365492   -6.391220
     30          6           0        2.202096   -1.375150   -6.052398
     31          1           0        2.454592   -2.339914   -5.600579
     32          1           0        1.782124   -0.734372   -5.272663
     33          1           0        3.137409   -0.917370   -6.388190
     34          6           0        1.919565   -2.448067   -8.315506
     35          1           0        2.114999   -3.456177   -7.931555
     36          1           0        2.875847   -2.009464   -8.618081
     37          1           0        1.299587   -2.542024   -9.213138
     38          7           0       -0.700099   -1.390951   -4.558020
     39          1           0       -0.063935   -2.107349   -4.214417
     40          6           0       -1.197484   -0.458976   -3.552339
     41          1           0       -1.394602    0.493118   -4.054468
     42          6           0       -0.082034   -0.302550   -2.510447
     43          6           0       -2.509453   -0.953132   -2.877439
     44          1           0       -2.722289   -0.234118   -2.073981
     45          8           0        0.703034   -1.231332   -2.288104
     46          6           0       -3.676227   -0.925462   -3.873209
     47          1           0       -3.497251   -1.623628   -4.699125
     48          1           0       -3.813991    0.069852   -4.307659
     49          1           0       -4.607430   -1.219414   -3.376470
     50          6           0       -2.349868   -2.346483   -2.251183
     51          1           0       -2.206788   -3.097867   -3.039087
     52          1           0       -1.497709   -2.405433   -1.567971
     53          1           0       -3.254965   -2.620526   -1.699872
     54          7           0       -0.054654    0.861741   -1.841043
     55          1           0       -0.720582    1.611935   -2.006478
     56          6           0        0.847954    1.081630   -0.727950
     57          1           0        0.849134    0.192183   -0.087320
     58          6           0        0.341877    2.304721    0.046187
     59          6           0        2.303162    1.308517   -1.202258
     60          1           0        2.385990    2.296744   -1.667514
     61          1           0        2.559446    0.534101   -1.931934
     62          8           0       -0.518612    3.050316   -0.418561
     63          8           0        3.153854    1.198670   -0.066696
     64          1           0        3.801208    1.928095   -0.080974
     65          7           0        0.944771    2.461223    1.250099
     66          1           0        1.769182    1.884692    1.401647
     67          6           0        0.998686    3.734796    1.934833
     68          1           0        0.075004    4.283063    1.721533
     69          6           0        2.191337    4.536178    1.349023
     70          6           0        1.130789    3.448605    3.456147
     71          1           0        1.297109    4.395984    3.993544
     72          8           0        2.737457    4.184281    0.301331
     73          6           0       -0.134705    2.804103    4.012756
     74          1           0       -1.006269    3.453944    3.875295
     75          1           0       -0.320929    1.854305    3.504018
     76          1           0       -0.001699    2.605886    5.079768
     77          8           0        2.213716    2.556609    3.661122
     78          1           0        3.030942    3.032857    3.925698
     79          7           0        2.608199    5.633231    2.036845
     80          1           0        2.231125    5.809556    2.958612
     81          6           0        3.859810    6.338017    1.699952
     82          1           0        3.923054    6.350126    0.607756
     83          6           0        5.009646    5.486105    2.281978
     84          6           0        3.862950    7.756775    2.256012
     85          1           0        4.832298    8.217528    2.047978
     86          1           0        3.789963    7.722929    3.349082
     87          8           0        5.546800    5.756510    3.361149
     88          6           0        2.755490    8.630431    1.663742
     89          1           0        1.761432    8.252254    1.932821
     90          1           0        2.804997    8.605451    0.565269
     91          6           0        2.910836   10.090327    2.099706
     92          7           0        1.761400   10.830924    2.063002
     93          1           0        0.910203   10.482532    1.647857
     94          1           0        1.840255   11.826322    2.221088
     95          8           0        3.982225   10.558318    2.453132
     96          7           0        5.285150    4.378000    1.558760
     97          1           0        4.714885    4.180798    0.738223
     98          6           0        6.098905    3.274628    2.040831
     99          1           0        7.026819    3.673083    2.469127
    100          6           0        6.379101    2.387089    0.818994
    101          6           0        5.357872    2.429195    3.126768
    102          1           0        4.508350    1.939046    2.636343
    103          8           0        5.602233    2.391942   -0.145879
    104          6           0        6.242006    1.378616    3.795485
    105          1           0        6.512051    0.565167    3.116891
    106          1           0        7.153556    1.834584    4.202716
    107          1           0        5.685405    0.944033    4.629650
    108          8           0        4.782802    3.271436    4.130142
    109          1           0        5.259883    4.127540    4.170438
    110          7           0        7.457749    1.585339    0.866153
    111          1           0        8.037870    1.582446    1.695128
    112          6           0        7.710556    0.546143   -0.144873
    113          1           0        7.351679    0.952705   -1.094291
    114          6           0        6.901750   -0.736759    0.196846
    115          6           0        9.202050    0.242685   -0.216630
    116          1           0        9.395852   -0.486280   -1.007575
    117          1           0        9.767632    1.155046   -0.429069
    118          1           0        9.548845   -0.200764    0.721528
    119          8           0        7.444113   -1.698828    0.734799
    120          7           0        5.584148   -0.679749   -0.121002
    121          1           0        5.221957    0.135000   -0.601832
    122          6           0        4.713375   -1.840707   -0.082716
    123          1           0        5.347283   -2.688125    0.194526
    124          6           0        4.157601   -2.058636   -1.503526
    125          6           0        3.529787   -1.723011    0.917930
    126          1           0        2.744353   -1.122260    0.453964
    127          1           0        3.109491   -2.726643    1.076547
    128          8           0        4.327189   -1.248225   -2.411056
    129          6           0        3.887073   -1.110422    2.278509
    130          1           0        4.358251   -0.142939    2.071077
    131          6           0        2.611154   -0.847499    3.089819
    132          1           0        2.106987   -1.789545    3.342808
    133          1           0        1.904023   -0.222570    2.533260
    134          1           0        2.835932   -0.320787    4.023251
    135          6           0        4.877707   -1.979802    3.065273
    136          1           0        4.448169   -2.971811    3.259992
    137          1           0        5.105275   -1.526328    4.036957
    138          1           0        5.821714   -2.116875    2.528027
    139          7           0        3.445760   -3.208800   -1.676956
    140          1           0        3.190346   -3.772281   -0.876201
    141          6           0        2.709366   -3.441296   -2.903324
    142          1           0        2.549893   -2.468224   -3.371768
    143          6           0        1.349693   -4.014175   -2.562329
    144          6           0        3.472788   -4.364337   -3.871834
    145          1           0        2.899741   -4.538682   -4.788111
    146          1           0        4.423072   -3.889209   -4.129556
    147          1           0        3.682119   -5.330742   -3.401719
    148          8           0        0.999887   -4.441792   -1.489333
    149          8           0        0.530350   -4.052060   -3.660646
    150          1           0       -0.303686   -4.453698   -3.350404
 ---------------------------------------------------------------------

 SCF Done:  E(RB3LYP) =  -3455.73406267     A.U. after    2 cycles

 Alpha  occ. eigenvalues --  -19.28132 -19.26929 -19.21929 -19.21134 -19.20701
 Alpha  occ. eigenvalues --  -19.19971 -19.19663 -19.19269 -19.18916 -19.18572
 Alpha  occ. eigenvalues --  -19.18262 -19.17659 -19.17026 -19.16263 -19.15370
 Alpha  occ. eigenvalues --  -14.60092 -14.49422 -14.44836 -14.44181 -14.43570
 Alpha  occ. eigenvalues --  -14.43244 -14.41900 -14.41548 -14.40651 -14.40092
 Alpha  occ. eigenvalues --  -14.40032 -10.43553 -10.40806 -10.39715 -10.38238
 Alpha  occ. eigenvalues --  -10.36976 -10.36312 -10.35794 -10.35218 -10.34453
 Alpha  occ. eigenvalues --  -10.34038 -10.33752 -10.33711 -10.33451 -10.33278
 Alpha  occ. eigenvalues --  -10.32549 -10.31159 -10.30713 -10.30630 -10.30210
 Alpha  occ. eigenvalues --  -10.30105 -10.29784 -10.29390 -10.29321 -10.29105
 Alpha  occ. eigenvalues --  -10.29047 -10.28860 -10.28472 -10.28279 -10.27804
 Alpha  occ. eigenvalues --  -10.27380 -10.26158 -10.25385 -10.24996 -10.24839
 Alpha  occ. eigenvalues --  -10.24769 -10.24730 -10.24190 -10.23468 -10.23352
 Alpha  occ. eigenvalues --  -10.22764 -10.22442 -10.22317 -10.20586 -10.20307
 Alpha  occ. eigenvalues --   -1.19350  -1.18444  -1.14006  -1.13118  -1.12086
 Alpha  occ. eigenvalues --   -1.11291  -1.11102  -1.10192  -1.09697  -1.09209
 Alpha  occ. eigenvalues --   -1.08999  -1.07908  -1.07819  -1.07289  -1.06881
 Alpha  occ. eigenvalues --   -1.06263  -1.06130  -1.01567  -1.00240  -0.99736
 Alpha  occ. eigenvalues --   -0.99583  -0.98621  -0.98357  -0.97940  -0.96793
 Alpha  occ. eigenvalues --   -0.95434  -0.94610  -0.91103  -0.88825  -0.88017
 Alpha  occ. eigenvalues --   -0.86252  -0.85681  -0.84822  -0.83900  -0.83850
 Alpha  occ. eigenvalues --   -0.82566  -0.82191  -0.81575  -0.80472  -0.79460
 Alpha  occ. eigenvalues --   -0.79306  -0.78646  -0.78017  -0.76897  -0.76725
 Alpha  occ. eigenvalues --   -0.75776  -0.75266  -0.74140  -0.74021  -0.73191
 Alpha  occ. eigenvalues --   -0.71852  -0.71611  -0.71248  -0.70665  -0.69910
 Alpha  occ. eigenvalues --   -0.69627  -0.69080  -0.68457  -0.67994  -0.67454
 Alpha  occ. eigenvalues --   -0.67408  -0.66383  -0.66284  -0.66138  -0.65763
 Alpha  occ. eigenvalues --   -0.64826  -0.64603  -0.64354  -0.64193  -0.63876
 Alpha  occ. eigenvalues --   -0.63366  -0.62992  -0.62498  -0.61416  -0.61180
 Alpha  occ. eigenvalues --   -0.60262  -0.59713  -0.59213  -0.58716  -0.58662
 Alpha  occ. eigenvalues --   -0.58179  -0.57985  -0.57938  -0.57646  -0.57127
 Alpha  occ. eigenvalues --   -0.57022  -0.56714  -0.56231  -0.55898  -0.55847
 Alpha  occ. eigenvalues --   -0.55607  -0.55078  -0.54759  -0.54514  -0.54293
 Alpha  occ. eigenvalues --   -0.54070  -0.53867  -0.53345  -0.53261  -0.52819
 Alpha  occ. eigenvalues --   -0.52559  -0.52304  -0.52094  -0.51966  -0.51812
 Alpha  occ. eigenvalues --   -0.51649  -0.51542  -0.51173  -0.50928  -0.50735
 Alpha  occ. eigenvalues --   -0.50222  -0.49973  -0.49886  -0.49634  -0.49554
 Alpha  occ. eigenvalues --   -0.49370  -0.49057  -0.48854  -0.48814  -0.48505
 Alpha  occ. eigenvalues --   -0.48365  -0.48226  -0.47889  -0.47753  -0.47721
 Alpha  occ. eigenvalues --   -0.47325  -0.47164  -0.46817  -0.46720  -0.46655
 Alpha  occ. eigenvalues --   -0.46377  -0.45881  -0.45861  -0.45757  -0.45634
 Alpha  occ. eigenvalues --   -0.45571  -0.45465  -0.45403  -0.45294  -0.45257
 Alpha  occ. eigenvalues --   -0.45194  -0.44899  -0.44657  -0.44536  -0.44322
 Alpha  occ. eigenvalues --   -0.44149  -0.43994  -0.43889  -0.43744  -0.43457
 Alpha  occ. eigenvalues --   -0.43144  -0.43067  -0.42732  -0.42623  -0.42552
 Alpha  occ. eigenvalues --   -0.42240  -0.42225  -0.42025  -0.41774  -0.41664
 Alpha  occ. eigenvalues --   -0.41578  -0.41427  -0.41362  -0.41308  -0.41222
 Alpha  occ. eigenvalues --   -0.41177  -0.41077  -0.40844  -0.40370  -0.39998
 Alpha  occ. eigenvalues --   -0.39539  -0.39484  -0.38654  -0.38518  -0.37557
 Alpha  occ. eigenvalues --   -0.36544  -0.36098  -0.35823  -0.35511  -0.35303
 Alpha  occ. eigenvalues --   -0.35010  -0.34879  -0.34654  -0.34102  -0.33752
 Alpha  occ. eigenvalues --   -0.33490  -0.33198  -0.32871  -0.32666  -0.31896
 Alpha  occ. eigenvalues --   -0.31543  -0.31386  -0.31076  -0.31002  -0.30802
 Alpha  occ. eigenvalues --   -0.30689  -0.30239  -0.29753  -0.29195  -0.29187
 Alpha virt. eigenvalues --   -0.12058  -0.11643  -0.07348  -0.06948  -0.06527
 Alpha virt. eigenvalues --   -0.06485  -0.06200  -0.05259  -0.04329  -0.03833
 Alpha virt. eigenvalues --   -0.03283  -0.02994  -0.02603  -0.02550  -0.01999

 Mulliken charges:
               1
     1  N   -0.758695
     2  H    0.415873
     3  H    0.412033
     4  H    0.433199
     5  C   -0.119061
     6  H    0.216602
     7  C    0.653911
     8  C   -0.297489
     9  H    0.197638
    10  H    0.171630
    11  O   -0.545326
    12  C   -0.098308
    13  H    0.113422
    14  C   -0.448008
    15  H    0.167890
    16  H    0.158389
    17  H    0.175490
    18  C   -0.454814
    19  H    0.170163
    20  H    0.131764
    21  H    0.184401
    22  N   -0.592857
    23  H    0.368496
    24  C   -0.079251
    25  H    0.189333
    26  C    0.626621
    27  C   -0.077571
    28  H    0.149247
    29  O   -0.559590
    30  C   -0.478893
    31  H    0.162939
    32  H    0.171423
    33  H    0.173308
    34  C   -0.446428
    35  H    0.161162
    36  H    0.168616
    37  H    0.126606
    38  N   -0.633848
    39  H    0.404242
    40  C   -0.069086
    41  H    0.180020
    42  C    0.640959
    43  C   -0.077470
    44  H    0.150464
    45  O   -0.559832
    46  C   -0.439993
    47  H    0.131560
    48  H    0.160447
    49  H    0.152829
    50  C   -0.470141
    51  H    0.113023
    52  H    0.187049
    53  H    0.161786
    54  N   -0.623847
    55  H    0.358233
    56  C   -0.075127
    57  H    0.192981
    58  C    0.608359
    59  C   -0.051650
    60  H    0.161483
    61  H    0.185307
    62  O   -0.540867
    63  O   -0.676494
    64  H    0.457945
    65  N   -0.593453
    66  H    0.385575
    67  C   -0.084969
    68  H    0.194636
    69  C    0.627917
    70  C    0.108360
    71  H    0.110538
    72  O   -0.541914
    73  C   -0.441057
    74  H    0.140491
    75  H    0.171669
    76  H    0.164664
    77  O   -0.666642
    78  H    0.447190
    79  N   -0.606415
    80  H    0.340828
    81  C   -0.071481
    82  H    0.184050
    83  C    0.630713
    84  C   -0.277738
    85  H    0.197440
    86  H    0.168459
    87  O   -0.556579
    88  C   -0.374875
    89  H    0.145628
    90  H    0.172554
    91  C    0.604438
    92  N   -0.749408
    93  H    0.335071
    94  H    0.347221
    95  O   -0.494838
    96  N   -0.620445
    97  H    0.395053
    98  C   -0.105529
    99  H    0.178977
   100  C    0.640395
   101  C    0.152828
   102  H    0.165349
   103  O   -0.564889
   104  C   -0.486544
   105  H    0.169266
   106  H    0.146305
   107  H    0.187470
   108  O   -0.677293
   109  H    0.438765
   110  N   -0.591240
   111  H    0.347530
   112  C   -0.061559
   113  H    0.190227
   114  C    0.618358
   115  C   -0.463212
   116  H    0.177302
   117  H    0.156778
   118  H    0.175501
   119  O   -0.525036
   120  N   -0.590111
   121  H    0.365856
   122  C   -0.078565
   123  H    0.192963
   124  C    0.631812
   125  C   -0.272840
   126  H    0.167401
   127  H    0.125995
   128  O   -0.539856
   129  C   -0.078778
   130  H    0.138217
   131  C   -0.446291
   132  H    0.133613
   133  H    0.138212
   134  H    0.155460
   135  C   -0.476706
   136  H    0.133296
   137  H    0.139617
   138  H    0.181640
   139  N   -0.607320
   140  H    0.350270
   141  C   -0.038247
   142  H    0.217219
   143  C    0.625236
   144  C   -0.451902
   145  H    0.152787
   146  H    0.185410
   147  H    0.162867
   148  O   -0.461423
   149  O   -0.610155
   150  H    0.419699
 Sum of Mulliken charges =   1.00000

 Dipole moment (field-independent basis, Debye):
    X=            -10.1900    Y=            -11.6185    Z=            -37.9539  Tot=             40.9795
 Quadrupole moment (field-independent basis, Debye-Ang):
   XX=           -354.3018   YY=           -318.9163   ZZ=            -23.1293
   XY=             35.9811   XZ=            105.0704   YZ=            170.0820

 Normal termination of Gaussian 16 at Mon Jul 18 20:42:46 2022.
