 Gaussian 16, Revision C.01,
 Gaussian 16:  ES64L-G16RevC.01  3-Jul-2019

 ----------------------------------------------------------------------
 # B3LYP/6-31G* empiricaldispersion=gd3 guess=read geom=check nosymm in
 tegral(ultrafinegrid)
 ----------------------------------------------------------------------

 ------------------------------------------------------
 Candidate Structure: Conf:315 Charge calc in gas phase
 ------------------------------------------------------
 Structure from the checkpoint file:  "conf-315.chk"
 Charge =  1 Multiplicity = 1

                          Input orientation:
 ---------------------------------------------------------------------
 Center     Atomic      Atomic             Coordinates (Angstroms)
 Number     Number       Type             X           Y           Z
 ---------------------------------------------------------------------
      1          7           0       -6.647939   -2.505054  -10.884884
      2          1           0       -6.116295   -2.557356  -11.757960
      3          1           0       -7.618958   -2.271020  -11.110186
      4          1           0       -6.579508   -3.441028  -10.381326
      5          6           0       -6.037375   -1.562882   -9.864650
      6          1           0       -5.273099   -0.967775  -10.367820
      7          6           0       -5.401992   -2.541100   -8.841084
      8          6           0       -7.112844   -0.674607   -9.223770
      9          1           0       -6.622111   -0.096446   -8.431176
     10          1           0       -7.840307   -1.324676   -8.717696
     11          8           0       -5.691825   -3.743237   -8.934801
     12          6           0       -7.835986    0.298800  -10.178778
     13          1           0       -8.349059   -0.283769  -10.964611
     14          6           0       -8.921613    1.055818   -9.398564
     15          1           0       -8.472002    1.672234   -8.610961
     16          1           0       -9.633664    0.369652   -8.926634
     17          1           0       -9.482177    1.719820  -10.063497
     18          6           0       -6.866337    1.273382  -10.862168
     19          1           0       -6.313161    1.856746  -10.115994
     20          1           0       -6.134874    0.769542  -11.506369
     21          1           0       -7.414760    1.978976  -11.493483
     22          7           0       -4.607992   -1.994429   -7.929569
     23          1           0       -4.490391   -0.984371   -7.862177
     24          6           0       -4.036767   -2.701242   -6.780080
     25          1           0       -4.629170   -3.605413   -6.607556
     26          6           0       -4.161902   -1.696410   -5.622124
     27          6           0       -2.547182   -3.088318   -7.025922
     28          1           0       -1.997047   -2.147175   -7.167662
     29          8           0       -4.115647   -0.485294   -5.871646
     30          6           0       -1.945513   -3.831444   -5.821689
     31          1           0       -2.526926   -4.733543   -5.586895
     32          1           0       -1.877609   -3.219184   -4.918693
     33          1           0       -0.929766   -4.159066   -6.062871
     34          6           0       -2.412135   -3.935175   -8.299416
     35          1           0       -2.985099   -4.865687   -8.216237
     36          1           0       -1.361886   -4.195209   -8.463797
     37          1           0       -2.761810   -3.399751   -9.187713
     38          7           0       -4.284907   -2.204322   -4.380727
     39          1           0       -4.188822   -3.205497   -4.259062
     40          6           0       -4.058795   -1.378911   -3.177869
     41          1           0       -4.538084   -0.413259   -3.365278
     42          6           0       -2.527162   -1.220550   -3.084523
     43          6           0       -4.657499   -2.028233   -1.923311
     44          1           0       -4.116531   -2.970478   -1.761388
     45          8           0       -1.831139   -2.056045   -2.503216
     46          6           0       -4.409602   -1.124157   -0.706306
     47          1           0       -4.922712   -0.161179   -0.826847
     48          1           0       -3.344847   -0.928410   -0.550403
     49          1           0       -4.806285   -1.599373    0.197143
     50          6           0       -6.154041   -2.317126   -2.102039
     51          1           0       -6.712550   -1.388122   -2.272834
     52          1           0       -6.354708   -2.987415   -2.945229
     53          1           0       -6.557781   -2.786549   -1.199248
     54          7           0       -2.013077   -0.182178   -3.780475
     55          1           0       -2.654977    0.406218   -4.298386
     56          6           0       -0.587015   -0.069077   -4.092096
     57          1           0       -0.182321   -1.082062   -4.202641
     58          6           0        0.195262    0.630383   -2.959987
     59          6           0       -0.421501    0.689705   -5.419064
     60          1           0       -0.869673    1.691711   -5.313101
     61          1           0       -0.976216    0.154385   -6.199277
     62          8           0        0.844443    1.665137   -3.176936
     63          8           0        0.924283    0.752230   -5.819311
     64          1           0        1.358591    1.304734   -5.142331
     65          7           0        0.117036    0.032920   -1.760414
     66          1           0       -0.443514   -0.811345   -1.672006
     67          6           0        0.667208    0.645875   -0.553053
     68          1           0        0.574309    1.731056   -0.671738
     69          6           0        2.161077    0.300054   -0.396040
     70          6           0       -0.122566    0.214356    0.687429
     71          1           0        0.075275   -0.851664    0.869333
     72          8           0        2.559222   -0.473450    0.476741
     73          6           0        0.273552    1.026362    1.919790
     74          1           0        1.327686    0.888422    2.170135
     75          1           0        0.082447    2.091143    1.747040
     76          1           0       -0.320718    0.704502    2.784271
     77          8           0       -1.507179    0.413249    0.354708
     78          1           0       -2.015922    0.269452    1.167556
     79          7           0        2.995517    0.922120   -1.266238
     80          1           0        2.596405    1.644653   -1.856401
     81          6           0        4.403178    0.983567   -0.895624
     82          1           0        4.783558   -0.035136   -0.837343
     83          6           0        4.476761    1.619383    0.513133
     84          6           0        5.236210    1.766095   -1.922536
     85          1           0        4.728425    2.716025   -2.136294
     86          1           0        5.265671    1.193595   -2.856929
     87          8           0        3.731729    2.527835    0.865893
     88          6           0        6.667313    2.110544   -1.466677
     89          1           0        6.633694    2.735019   -0.564071
     90          1           0        7.145083    2.716921   -2.245652
     91          6           0        7.579147    0.937226   -1.103428
     92          7           0        8.905213    1.182544   -1.201244
     93          1           0        9.223773    2.130644   -1.344385
     94          1           0        9.550376    0.568806   -0.702478
     95          8           0        7.143309   -0.154723   -0.714100
     96          7           0        5.405273    1.026415    1.294514
     97          1           0        6.052193    0.384063    0.841329
     98          6           0        5.645262    1.354778    2.676572
     99          1           0        4.940624    2.144058    2.960888
    100          6           0        7.090378    1.878598    2.788351
    101          6           0        5.270069    0.069514    3.491239
    102          1           0        5.897139   -0.749688    3.099397
    103          8           0        7.809952    1.973824    1.790641
    104          6           0        5.453868    0.139914    5.003865
    105          1           0        6.508441    0.084890    5.291647
    106          1           0        4.991891    1.044829    5.419317
    107          1           0        4.942770   -0.718453    5.448406
    108          8           0        3.897568   -0.207185    3.268369
    109          1           0        3.741903   -0.317041    2.311277
    110          7           0        7.535477    2.227711    4.025050
    111          1           0        6.949201    2.017172    4.820538
    112          6           0        8.976185    2.351590    4.302227
    113          1           0        9.400557    2.996118    3.527804
    114          6           0        9.553713    0.919543    4.196715
    115          6           0        9.198781    2.943903    5.687114
    116          1           0       10.267470    3.100495    5.861013
    117          1           0        8.683357    3.904579    5.782259
    118          1           0        8.837480    2.252006    6.454241
    119          8           0        9.483004    0.130999    5.135122
    120          7           0       10.049325    0.601437    2.966888
    121          1           0        9.794324    1.225138    2.206119
    122          6           0       10.187602   -0.797794    2.570774
    123          1           0       10.592273   -1.338711    3.429107
    124          6           0       11.137621   -0.855888    1.378185
    125          6           0        8.810563   -1.374800    2.167248
    126          1           0        8.171498   -1.305269    3.057404
    127          1           0        8.389255   -0.714056    1.402113
    128          8           0       10.994056   -0.115709    0.398181
    129          6           0        8.793841   -2.819507    1.640873
    130          1           0        9.457928   -2.872907    0.764921
    131          6           0        9.286699   -3.832766    2.683450
    132          1           0        8.687499   -3.767707    3.600541
    133          1           0       10.335573   -3.675149    2.960066
    134          1           0        9.206112   -4.856752    2.301303
    135          6           0        7.373616   -3.159379    1.163446
    136          1           0        6.660994   -3.105976    1.997876
    137          1           0        7.327569   -4.175730    0.754570
    138          1           0        7.047689   -2.457845    0.388613
    139          7           0       12.110268   -1.788733    1.437812
    140          1           0       12.186341   -2.411637    2.232883
    141          6           0       12.981869   -2.068677    0.308992
    142          1           0       12.379699   -2.057880   -0.607230
    143          6           0       13.536904   -3.471247    0.502977
    144          6           0       14.109943   -1.031051    0.165365
    145          1           0       14.731404   -1.260388   -0.704390
    146          1           0       13.657518   -0.045186    0.036485
    147          1           0       14.738450   -1.020677    1.061715
    148          8           0       13.388041   -4.142773    1.501900
    149          8           0       14.241009   -3.875294   -0.571231
    150          1           0       14.584890   -4.765914   -0.367964
 ---------------------------------------------------------------------

 SCF Done:  E(RB3LYP) =  -3455.70149842     A.U. after    2 cycles

 Alpha  occ. eigenvalues --  -19.27960 -19.25138 -19.23766 -19.20333 -19.19748
 Alpha  occ. eigenvalues --  -19.19668 -19.19551 -19.18460 -19.16578 -19.16272
 Alpha  occ. eigenvalues --  -19.16021 -19.15991 -19.15005 -19.14832 -19.13853
 Alpha  occ. eigenvalues --  -14.60983 -14.50705 -14.47741 -14.44707 -14.41750
 Alpha  occ. eigenvalues --  -14.41037 -14.40479 -14.39189 -14.38770 -14.37951
 Alpha  occ. eigenvalues --  -14.37837 -10.44673 -10.41701 -10.40628 -10.37565
 Alpha  occ. eigenvalues --  -10.37307 -10.35623 -10.35148 -10.34511 -10.33472
 Alpha  occ. eigenvalues --  -10.33177 -10.33168 -10.32757 -10.32507 -10.32451
 Alpha  occ. eigenvalues --  -10.31759 -10.30866 -10.30473 -10.30355 -10.30184
 Alpha  occ. eigenvalues --  -10.29892 -10.28984 -10.28967 -10.28543 -10.27857
 Alpha  occ. eigenvalues --  -10.27399 -10.27393 -10.27288 -10.27274 -10.27010
 Alpha  occ. eigenvalues --  -10.26624 -10.26321 -10.25825 -10.25246 -10.23947
 Alpha  occ. eigenvalues --  -10.23606 -10.23346 -10.22640 -10.21857 -10.21705
 Alpha  occ. eigenvalues --  -10.21078 -10.21077 -10.21041 -10.20074 -10.19277
 Alpha  occ. eigenvalues --   -1.20397  -1.16150  -1.15733  -1.14812  -1.12300
 Alpha  occ. eigenvalues --   -1.10138  -1.08542  -1.08302  -1.07959  -1.07422
 Alpha  occ. eigenvalues --   -1.07211  -1.07201  -1.06826  -1.06487  -1.06343
 Alpha  occ. eigenvalues --   -1.05580  -1.03946  -1.03802  -1.00973  -0.98149
 Alpha  occ. eigenvalues --   -0.97594  -0.96807  -0.96223  -0.95880  -0.95615
 Alpha  occ. eigenvalues --   -0.95138  -0.93148  -0.92348  -0.89731  -0.88860
 Alpha  occ. eigenvalues --   -0.84635  -0.84360  -0.83806  -0.83373  -0.82559
 Alpha  occ. eigenvalues --   -0.81899  -0.81763  -0.81203  -0.80105  -0.79381
 Alpha  occ. eigenvalues --   -0.78711  -0.78023  -0.77206  -0.76635  -0.75698
 Alpha  occ. eigenvalues --   -0.75126  -0.75018  -0.74111  -0.73504  -0.73017
 Alpha  occ. eigenvalues --   -0.72031  -0.70996  -0.70795  -0.70319  -0.70032
 Alpha  occ. eigenvalues --   -0.69687  -0.68813  -0.68587  -0.67627  -0.67500
 Alpha  occ. eigenvalues --   -0.67297  -0.66172  -0.65256  -0.64671  -0.64116
 Alpha  occ. eigenvalues --   -0.63890  -0.63576  -0.63263  -0.62854  -0.61996
 Alpha  occ. eigenvalues --   -0.61613  -0.61281  -0.60897  -0.60796  -0.60356
 Alpha  occ. eigenvalues --   -0.60034  -0.59716  -0.59315  -0.59012  -0.58469
 Alpha  occ. eigenvalues --   -0.58278  -0.57747  -0.57561  -0.56635  -0.56472
 Alpha  occ. eigenvalues --   -0.56360  -0.56051  -0.55516  -0.55254  -0.54683
 Alpha  occ. eigenvalues --   -0.54641  -0.54429  -0.54293  -0.54125  -0.53614
 Alpha  occ. eigenvalues --   -0.53292  -0.52846  -0.52657  -0.52532  -0.52509
 Alpha  occ. eigenvalues --   -0.52376  -0.51776  -0.51372  -0.51256  -0.51092
 Alpha  occ. eigenvalues --   -0.50756  -0.50561  -0.50555  -0.50126  -0.50100
 Alpha  occ. eigenvalues --   -0.49928  -0.49585  -0.49427  -0.49337  -0.49047
 Alpha  occ. eigenvalues --   -0.49025  -0.48704  -0.48411  -0.47798  -0.47707
 Alpha  occ. eigenvalues --   -0.47624  -0.47404  -0.47236  -0.46901  -0.46793
 Alpha  occ. eigenvalues --   -0.46669  -0.46544  -0.46008  -0.45903  -0.45881
 Alpha  occ. eigenvalues --   -0.45759  -0.45688  -0.45600  -0.45508  -0.45376
 Alpha  occ. eigenvalues --   -0.45231  -0.44995  -0.44708  -0.44537  -0.44002
 Alpha  occ. eigenvalues --   -0.43829  -0.43732  -0.43698  -0.43232  -0.43033
 Alpha  occ. eigenvalues --   -0.42868  -0.42687  -0.42498  -0.42357  -0.42107
 Alpha  occ. eigenvalues --   -0.41981  -0.41966  -0.41839  -0.41688  -0.41506
 Alpha  occ. eigenvalues --   -0.41327  -0.41262  -0.40940  -0.40802  -0.40722
 Alpha  occ. eigenvalues --   -0.40601  -0.40527  -0.40241  -0.40023  -0.39864
 Alpha  occ. eigenvalues --   -0.39745  -0.39471  -0.39464  -0.39234  -0.38316
 Alpha  occ. eigenvalues --   -0.38262  -0.38120  -0.37846  -0.37467  -0.37424
 Alpha  occ. eigenvalues --   -0.37285  -0.36111  -0.35736  -0.35571  -0.35090
 Alpha  occ. eigenvalues --   -0.34993  -0.33605  -0.33263  -0.33033  -0.32685
 Alpha  occ. eigenvalues --   -0.32094  -0.31715  -0.31122  -0.31087  -0.30683
 Alpha  occ. eigenvalues --   -0.30588  -0.30187  -0.29886  -0.29276  -0.28829
 Alpha  occ. eigenvalues --   -0.28573  -0.28293  -0.27452  -0.27199  -0.27086
 Alpha virt. eigenvalues --   -0.13152  -0.12368  -0.10010  -0.07725  -0.06701
 Alpha virt. eigenvalues --   -0.05332  -0.04614  -0.04463  -0.03345  -0.03186
 Alpha virt. eigenvalues --   -0.02736  -0.02534  -0.02444  -0.02317  -0.02221

 Mulliken charges:
               1
     1  N   -0.757450
     2  H    0.418247
     3  H    0.414319
     4  H    0.434393
     5  C   -0.120050
     6  H    0.218789
     7  C    0.656150
     8  C   -0.296835
     9  H    0.194191
    10  H    0.175220
    11  O   -0.539743
    12  C   -0.100167
    13  H    0.115139
    14  C   -0.448187
    15  H    0.167568
    16  H    0.160263
    17  H    0.177656
    18  C   -0.455124
    19  H    0.169588
    20  H    0.131870
    21  H    0.187099
    22  N   -0.595376
    23  H    0.369784
    24  C   -0.072970
    25  H    0.186314
    26  C    0.634785
    27  C   -0.081953
    28  H    0.158121
    29  O   -0.560547
    30  C   -0.495388
    31  H    0.148217
    32  H    0.185091
    33  H    0.181727
    34  C   -0.445849
    35  H    0.164861
    36  H    0.175044
    37  H    0.128947
    38  N   -0.598703
    39  H    0.352073
    40  C   -0.045757
    41  H    0.174269
    42  C    0.644933
    43  C   -0.101456
    44  H    0.155980
    45  O   -0.556137
    46  C   -0.487094
    47  H    0.143689
    48  H    0.197610
    49  H    0.156686
    50  C   -0.447829
    51  H    0.147779
    52  H    0.133228
    53  H    0.167038
    54  N   -0.596799
    55  H    0.359273
    56  C   -0.089285
    57  H    0.193519
    58  C    0.650910
    59  C   -0.045675
    60  H    0.137730
    61  H    0.135865
    62  O   -0.567960
    63  O   -0.625505
    64  H    0.420599
    65  N   -0.611002
    66  H    0.386344
    67  C   -0.069223
    68  H    0.189449
    69  C    0.654493
    70  C    0.122332
    71  H    0.149351
    72  O   -0.546995
    73  C   -0.485539
    74  H    0.207148
    75  H    0.158007
    76  H    0.136569
    77  O   -0.642276
    78  H    0.398251
    79  N   -0.612092
    80  H    0.358679
    81  C   -0.030147
    82  H    0.198534
    83  C    0.579948
    84  C   -0.285231
    85  H    0.150260
    86  H    0.159979
    87  O   -0.546882
    88  C   -0.400799
    89  H    0.209439
    90  H    0.152672
    91  C    0.637400
    92  N   -0.761368
    93  H    0.333086
    94  H    0.397949
    95  O   -0.550167
    96  N   -0.618574
    97  H    0.388831
    98  C   -0.104331
    99  H    0.199731
   100  C    0.628293
   101  C    0.156269
   102  H    0.128358
   103  O   -0.547526
   104  C   -0.504004
   105  H    0.167992
   106  H    0.148498
   107  H    0.179057
   108  O   -0.654802
   109  H    0.439262
   110  N   -0.596941
   111  H    0.346505
   112  C   -0.045067
   113  H    0.168138
   114  C    0.612307
   115  C   -0.473653
   116  H    0.169128
   117  H    0.158983
   118  H    0.177966
   119  O   -0.534574
   120  N   -0.597023
   121  H    0.362792
   122  C   -0.067357
   123  H    0.174398
   124  C    0.647111
   125  C   -0.298862
   126  H    0.153759
   127  H    0.180098
   128  O   -0.568028
   129  C   -0.080301
   130  H    0.125543
   131  C   -0.445635
   132  H    0.149351
   133  H    0.131548
   134  H    0.146632
   135  C   -0.468354
   136  H    0.139730
   137  H    0.135762
   138  H    0.182389
   139  N   -0.611688
   140  H    0.364823
   141  C   -0.025706
   142  H    0.198254
   143  C    0.582091
   144  C   -0.451589
   145  H    0.172857
   146  H    0.189680
   147  H    0.160085
   148  O   -0.464430
   149  O   -0.561066
   150  H    0.422393
 Sum of Mulliken charges =   1.00000

 Dipole moment (field-independent basis, Debye):
    X=            -23.1099    Y=             -8.2128    Z=            -43.7363  Tot=             50.1436
 Quadrupole moment (field-independent basis, Debye-Ang):
   XX=            -89.0915   YY=           -383.9451   ZZ=             33.5257
   XY=             42.3753   XZ=            278.6496   YZ=             88.6320

 Normal termination of Gaussian 16 at Sat Jul  2 15:27:57 2022.
