 Gaussian 16, Revision C.01,
 Gaussian 16:  ES64L-G16RevC.01  3-Jul-2019

 ----------------------------------------------------------------------
 # B3LYP/6-31G* empiricaldispersion=gd3 guess=read geom=check nosymm in
 tegral(ultrafinegrid)
 ----------------------------------------------------------------------

 ------------------------------------------------------
 Candidate Structure: Conf:727 Charge calc in gas phase
 ------------------------------------------------------
 Structure from the checkpoint file:  "conf-727.chk"
 Charge =  1 Multiplicity = 1

                          Input orientation:
 ---------------------------------------------------------------------
 Center     Atomic      Atomic             Coordinates (Angstroms)
 Number     Number       Type             X           Y           Z
 ---------------------------------------------------------------------
      1          7           0       -8.609404   -7.251061   -4.448751
      2          1           0       -8.929936   -7.743253   -5.286905
      3          1           0       -9.250943   -7.466560   -3.680491
      4          1           0       -7.614010   -7.559573   -4.224885
      5          6           0       -8.423456   -5.760725   -4.660140
      6          1           0       -8.895341   -5.489483   -5.606182
      7          6           0       -6.879990   -5.621421   -4.738072
      8          6           0       -9.007509   -4.961557   -3.486509
      9          1           0       -8.740381   -3.909971   -3.648689
     10          1           0       -8.485024   -5.267297   -2.569060
     11          8           0       -6.195474   -6.602150   -4.408319
     12          6           0      -10.534977   -5.067809   -3.294247
     13          1           0      -10.801455   -6.123565   -3.108377
     14          6           0      -10.940743   -4.273583   -2.043258
     15          1           0      -10.717212   -3.207990   -2.173745
     16          1           0      -10.409454   -4.624257   -1.151412
     17          1           0      -12.014625   -4.369655   -1.856470
     18          6           0      -11.312549   -4.588480   -4.528208
     19          1           0      -11.057436   -3.548756   -4.766935
     20          1           0      -11.117883   -5.196974   -5.420181
     21          1           0      -12.389937   -4.630752   -4.341895
     22          7           0       -6.425989   -4.439115   -5.130360
     23          1           0       -7.056927   -3.649112   -5.271155
     24          6           0       -5.028028   -4.004962   -5.050199
     25          1           0       -4.508918   -4.660339   -4.343133
     26          6           0       -5.133684   -2.561158   -4.510416
     27          6           0       -4.320005   -4.071131   -6.433370
     28          1           0       -4.836662   -3.356015   -7.088941
     29          8           0       -6.160108   -1.909041   -4.726210
     30          6           0       -2.840828   -3.666560   -6.327730
     31          1           0       -2.303924   -4.320893   -5.628322
     32          1           0       -2.699686   -2.633323   -6.000893
     33          1           0       -2.358228   -3.770851   -7.304358
     34          6           0       -4.446547   -5.476671   -7.039078
     35          1           0       -3.990851   -6.229019   -6.385341
     36          1           0       -3.937345   -5.513974   -8.007292
     37          1           0       -5.491162   -5.758793   -7.204034
     38          7           0       -4.077066   -2.105694   -3.817131
     39          1           0       -3.223773   -2.652642   -3.759058
     40          6           0       -3.926149   -0.715226   -3.397884
     41          1           0       -4.666621   -0.121077   -3.942668
     42          6           0       -2.496691   -0.320457   -3.789441
     43          6           0       -4.159134   -0.549100   -1.867822
     44          1           0       -3.406636   -1.174257   -1.366310
     45          8           0       -1.592582   -1.159245   -3.783070
     46          6           0       -3.968155    0.906542   -1.412642
     47          1           0       -4.635037    1.581360   -1.966951
     48          1           0       -2.940603    1.262182   -1.530366
     49          1           0       -4.224975    1.001325   -0.352751
     50          6           0       -5.556845   -1.057152   -1.487174
     51          1           0       -6.334894   -0.476806   -1.996583
     52          1           0       -5.691622   -2.109497   -1.755355
     53          1           0       -5.710718   -0.961382   -0.407219
     54          7           0       -2.288335    0.975063   -4.124136
     55          1           0       -3.010458    1.668992   -3.966460
     56          6           0       -0.929604    1.490714   -4.249798
     57          1           0       -0.374474    0.847227   -4.938476
     58          6           0       -0.265958    1.506275   -2.864155
     59          6           0       -0.982098    2.927136   -4.797070
     60          1           0       -1.398232    2.922247   -5.808561
     61          1           0        0.041541    3.325248   -4.847093
     62          8           0       -0.644170    2.336100   -2.008912
     63          8           0       -1.829003    3.749381   -4.000467
     64          1           0       -1.567195    3.567711   -3.069570
     65          7           0        0.706618    0.623237   -2.636143
     66          1           0        0.972435   -0.065878   -3.332744
     67          6           0        1.454106    0.570005   -1.380324
     68          1           0        0.765719    0.801801   -0.561020
     69          6           0        2.564747    1.638013   -1.441371
     70          6           0        2.044492   -0.844875   -1.212607
     71          1           0        2.735135   -0.810110   -0.358225
     72          8           0        3.743394    1.332882   -1.682748
     73          6           0        0.961682   -1.888662   -0.971216
     74          1           0        0.438070   -1.689728   -0.029573
     75          1           0        0.229053   -1.892652   -1.786302
     76          1           0        1.421987   -2.878709   -0.914165
     77          8           0        2.734375   -1.201405   -2.408076
     78          1           0        3.499515   -0.596366   -2.451984
     79          7           0        2.136947    2.897143   -1.250886
     80          1           0        1.152175    3.031091   -1.043776
     81          6           0        3.009784    4.083518   -1.245443
     82          1           0        3.774357    3.920914   -2.012778
     83          6           0        3.646696    4.100913    0.165524
     84          6           0        2.195974    5.338643   -1.547630
     85          1           0        2.871625    6.196542   -1.605290
     86          1           0        1.525842    5.536069   -0.703346
     87          8           0        3.120280    4.678533    1.108625
     88          6           0        1.408052    5.236934   -2.859195
     89          1           0        0.626108    4.474019   -2.789747
     90          1           0        2.079712    4.926219   -3.672943
     91          6           0        0.805664    6.584530   -3.267345
     92          7           0       -0.389149    6.508945   -3.923295
     93          1           0       -0.938417    5.658485   -3.991490
     94          1           0       -0.820432    7.382842   -4.192059
     95          8           0        1.385370    7.640530   -3.057271
     96          7           0        4.731879    3.292753    0.262093
     97          1           0        5.148630    2.895935   -0.572825
     98          6           0        5.278077    2.805691    1.511575
     99          1           0        5.155704    3.579392    2.276316
    100          6           0        6.761195    2.490677    1.260942
    101          6           0        4.554184    1.503881    1.980378
    102          1           0        5.058413    1.165519    2.894240
    103          8           0        7.198034    2.326447    0.123694
    104          6           0        3.071225    1.718311    2.287779
    105          1           0        2.920254    2.508046    3.029897
    106          1           0        2.523357    2.007456    1.386072
    107          1           0        2.648426    0.781014    2.663510
    108          8           0        4.741144    0.448440    1.043367
    109          1           0        4.556563    0.786183    0.147845
    110          7           0        7.518531    2.362917    2.373521
    111          1           0        7.140150    2.493040    3.305336
    112          6           0        8.901290    1.926737    2.316713
    113          1           0        8.973949    1.108460    1.590453
    114          6           0        9.272589    1.430099    3.718181
    115          6           0        9.844703    3.066364    1.884991
    116          1           0       10.880943    2.718939    1.809746
    117          1           0        9.526230    3.434088    0.906747
    118          1           0        9.804308    3.885884    2.610032
    119          8           0        8.604681    1.751425    4.707733
    120          7           0       10.383970    0.663566    3.794601
    121          1           0       10.940439    0.516731    2.962193
    122          6           0       10.957767    0.240423    5.078484
    123          1           0       10.105378    0.070758    5.741136
    124          6           0       11.814672    1.393072    5.647876
    125          6           0       11.757865   -1.050744    4.910104
    126          1           0       11.080966   -1.806003    4.487119
    127          1           0       12.559499   -0.877252    4.180491
    128          8           0       13.036973    1.412329    5.555419
    129          6           0       12.390284   -1.592358    6.209561
    130          1           0       13.187343   -0.897046    6.494861
    131          6           0       11.386499   -1.669591    7.370402
    132          1           0       10.496905   -2.250164    7.090363
    133          1           0       11.059828   -0.675356    7.697141
    134          1           0       11.842129   -2.160336    8.237973
    135          6           0       13.021586   -2.964411    5.936741
    136          1           0       12.254964   -3.704995    5.672313
    137          1           0       13.551647   -3.334867    6.821472
    138          1           0       13.741030   -2.916349    5.110529
    139          7           0       11.076357    2.384107    6.217774
    140          1           0       10.065281    2.300717    6.195215
    141          6           0       11.675689    3.534608    6.860786
    142          1           0       12.740749    3.502646    6.600422
    143          6           0       11.626718    3.442239    8.389836
    144          6           0       11.060445    4.850175    6.374834
    145          1           0       11.509247    5.694126    6.902847
    146          1           0       11.227617    4.961613    5.299626
    147          1           0        9.980605    4.867854    6.562686
    148          8           0       11.729133    4.394095    9.130400
    149          8           0       11.494767    2.170687    8.835902
    150          1           0       11.528141    2.222522    9.809882
 ---------------------------------------------------------------------

 SCF Done:  E(RB3LYP) =  -3455.70009816     A.U. after    1 cycles

 Alpha  occ. eigenvalues --  -19.27736 -19.23413 -19.23071 -19.22855 -19.22022
 Alpha  occ. eigenvalues --  -19.21982 -19.20256 -19.19923 -19.17989 -19.17629
 Alpha  occ. eigenvalues --  -19.17134 -19.15835 -19.15792 -19.14869 -19.14442
 Alpha  occ. eigenvalues --  -14.60834 -14.50245 -14.46768 -14.46241 -14.45798
 Alpha  occ. eigenvalues --  -14.43580 -14.41878 -14.40239 -14.39949 -14.39093
 Alpha  occ. eigenvalues --  -14.38802 -10.44380 -10.41502 -10.39964 -10.38844
 Alpha  occ. eigenvalues --  -10.38571 -10.36608 -10.35191 -10.35161 -10.34435
 Alpha  occ. eigenvalues --  -10.34347 -10.33166 -10.33120 -10.33081 -10.33064
 Alpha  occ. eigenvalues --  -10.33058 -10.32740 -10.32442 -10.31929 -10.30957
 Alpha  occ. eigenvalues --  -10.30496 -10.30197 -10.29824 -10.29042 -10.28942
 Alpha  occ. eigenvalues --  -10.28743 -10.28422 -10.28401 -10.27581 -10.27250
 Alpha  occ. eigenvalues --  -10.27237 -10.27106 -10.26894 -10.25929 -10.25726
 Alpha  occ. eigenvalues --  -10.24331 -10.23775 -10.23590 -10.22684 -10.22140
 Alpha  occ. eigenvalues --  -10.21675 -10.21638 -10.21564 -10.20114 -10.19951
 Alpha  occ. eigenvalues --   -1.20150  -1.15138  -1.14607  -1.14267  -1.13814
 Alpha  occ. eigenvalues --   -1.13339  -1.11584  -1.10398  -1.09510  -1.08289
 Alpha  occ. eigenvalues --   -1.07859  -1.07387  -1.07046  -1.06689  -1.06335
 Alpha  occ. eigenvalues --   -1.05452  -1.04754  -1.03383  -1.02497  -1.01856
 Alpha  occ. eigenvalues --   -0.99860  -0.98061  -0.97002  -0.96534  -0.96069
 Alpha  occ. eigenvalues --   -0.95951  -0.93516  -0.92161  -0.89938  -0.89255
 Alpha  occ. eigenvalues --   -0.86956  -0.85207  -0.84837  -0.83852  -0.83528
 Alpha  occ. eigenvalues --   -0.82872  -0.81357  -0.81308  -0.80482  -0.80346
 Alpha  occ. eigenvalues --   -0.79445  -0.79109  -0.77956  -0.77465  -0.77115
 Alpha  occ. eigenvalues --   -0.76814  -0.74997  -0.74847  -0.73953  -0.73555
 Alpha  occ. eigenvalues --   -0.72655  -0.71246  -0.70885  -0.70693  -0.70533
 Alpha  occ. eigenvalues --   -0.70155  -0.69288  -0.68703  -0.68538  -0.68456
 Alpha  occ. eigenvalues --   -0.67815  -0.67431  -0.67138  -0.66089  -0.65473
 Alpha  occ. eigenvalues --   -0.65410  -0.64684  -0.64216  -0.63359  -0.63027
 Alpha  occ. eigenvalues --   -0.62779  -0.62321  -0.62037  -0.61740  -0.61052
 Alpha  occ. eigenvalues --   -0.60461  -0.60236  -0.59862  -0.59711  -0.59289
 Alpha  occ. eigenvalues --   -0.58756  -0.58482  -0.58201  -0.58032  -0.57725
 Alpha  occ. eigenvalues --   -0.56957  -0.56669  -0.56548  -0.55930  -0.55735
 Alpha  occ. eigenvalues --   -0.55466  -0.55272  -0.55046  -0.54269  -0.54183
 Alpha  occ. eigenvalues --   -0.53983  -0.53746  -0.53426  -0.52744  -0.52550
 Alpha  occ. eigenvalues --   -0.52404  -0.52321  -0.52160  -0.52120  -0.51778
 Alpha  occ. eigenvalues --   -0.51717  -0.51371  -0.51166  -0.50771  -0.50697
 Alpha  occ. eigenvalues --   -0.50662  -0.50480  -0.50244  -0.49733  -0.49500
 Alpha  occ. eigenvalues --   -0.49473  -0.49402  -0.49315  -0.49146  -0.48728
 Alpha  occ. eigenvalues --   -0.48673  -0.48589  -0.48040  -0.47787  -0.47734
 Alpha  occ. eigenvalues --   -0.47630  -0.47428  -0.47081  -0.46744  -0.46556
 Alpha  occ. eigenvalues --   -0.46493  -0.46431  -0.46170  -0.45928  -0.45904
 Alpha  occ. eigenvalues --   -0.45805  -0.45529  -0.45181  -0.44879  -0.44724
 Alpha  occ. eigenvalues --   -0.44644  -0.44522  -0.44473  -0.44276  -0.44127
 Alpha  occ. eigenvalues --   -0.43774  -0.43751  -0.43577  -0.43444  -0.43407
 Alpha  occ. eigenvalues --   -0.43170  -0.42973  -0.42834  -0.42361  -0.42195
 Alpha  occ. eigenvalues --   -0.42072  -0.42045  -0.42024  -0.41896  -0.41633
 Alpha  occ. eigenvalues --   -0.41568  -0.41047  -0.40941  -0.40675  -0.40591
 Alpha  occ. eigenvalues --   -0.40054  -0.40030  -0.39711  -0.39678  -0.39522
 Alpha  occ. eigenvalues --   -0.39367  -0.39290  -0.38824  -0.38017  -0.37255
 Alpha  occ. eigenvalues --   -0.36780  -0.36563  -0.36491  -0.36199  -0.35955
 Alpha  occ. eigenvalues --   -0.35503  -0.35179  -0.35122  -0.34997  -0.34450
 Alpha  occ. eigenvalues --   -0.34207  -0.33816  -0.32602  -0.32219  -0.32100
 Alpha  occ. eigenvalues --   -0.31565  -0.31439  -0.30371  -0.30072  -0.29843
 Alpha  occ. eigenvalues --   -0.28983  -0.28442  -0.28289  -0.27884  -0.27696
 Alpha virt. eigenvalues --   -0.12911  -0.12244  -0.09014  -0.08662  -0.07713
 Alpha virt. eigenvalues --   -0.07492  -0.05877  -0.05016  -0.03786  -0.03183
 Alpha virt. eigenvalues --   -0.02503  -0.02375  -0.02193  -0.01865  -0.01607

 Mulliken charges:
               1
     1  N   -0.757479
     2  H    0.417364
     3  H    0.413723
     4  H    0.433691
     5  C   -0.119718
     6  H    0.217502
     7  C    0.653085
     8  C   -0.298482
     9  H    0.197463
    10  H    0.173663
    11  O   -0.540632
    12  C   -0.099413
    13  H    0.114566
    14  C   -0.448109
    15  H    0.167477
    16  H    0.159437
    17  H    0.176864
    18  C   -0.454974
    19  H    0.169750
    20  H    0.131686
    21  H    0.186024
    22  N   -0.594798
    23  H    0.370768
    24  C   -0.075083
    25  H    0.185656
    26  C    0.629117
    27  C   -0.075654
    28  H    0.149725
    29  O   -0.549552
    30  C   -0.476744
    31  H    0.155341
    32  H    0.168503
    33  H    0.172817
    34  C   -0.446416
    35  H    0.165198
    36  H    0.170028
    37  H    0.130936
    38  N   -0.602238
    39  H    0.362578
    40  C   -0.066490
    41  H    0.183641
    42  C    0.634889
    43  C   -0.071548
    44  H    0.145399
    45  O   -0.545579
    46  C   -0.492164
    47  H    0.145598
    48  H    0.178524
    49  H    0.168744
    50  C   -0.444836
    51  H    0.158569
    52  H    0.135927
    53  H    0.159336
    54  N   -0.591677
    55  H    0.356896
    56  C   -0.084269
    57  H    0.181157
    58  C    0.664996
    59  C   -0.060680
    60  H    0.176219
    61  H    0.163624
    62  O   -0.589822
    63  O   -0.647997
    64  H    0.439004
    65  N   -0.574149
    66  H    0.370570
    67  C   -0.082995
    68  H    0.185368
    69  C    0.637876
    70  C    0.094247
    71  H    0.169618
    72  O   -0.564106
    73  C   -0.467818
    74  H    0.144775
    75  H    0.164167
    76  H    0.174145
    77  O   -0.646927
    78  H    0.422120
    79  N   -0.600596
    80  H    0.375292
    81  C   -0.064511
    82  H    0.172208
    83  C    0.632042
    84  C   -0.292968
    85  H    0.199033
    86  H    0.175824
    87  O   -0.526811
    88  C   -0.382037
    89  H    0.128259
    90  H    0.166035
    91  C    0.602201
    92  N   -0.788055
    93  H    0.365901
    94  H    0.338423
    95  O   -0.502984
    96  N   -0.613591
    97  H    0.364589
    98  C   -0.101389
    99  H    0.179862
   100  C    0.655033
   101  C    0.146723
   102  H    0.142239
   103  O   -0.541867
   104  C   -0.455716
   105  H    0.164321
   106  H    0.134590
   107  H    0.148837
   108  O   -0.657041
   109  H    0.421280
   110  N   -0.623901
   111  H    0.353038
   112  C   -0.033943
   113  H    0.181699
   114  C    0.627470
   115  C   -0.450732
   116  H    0.147888
   117  H    0.196137
   118  H    0.163136
   119  O   -0.557636
   120  N   -0.609061
   121  H    0.340813
   122  C   -0.069578
   123  H    0.182772
   124  C    0.632247
   125  C   -0.271662
   126  H    0.136320
   127  H    0.146543
   128  O   -0.523687
   129  C   -0.079446
   130  H    0.167688
   131  C   -0.462719
   132  H    0.135541
   133  H    0.155497
   134  H    0.146891
   135  C   -0.446755
   136  H    0.135631
   137  H    0.146557
   138  H    0.144358
   139  N   -0.606955
   140  H    0.361350
   141  C   -0.061310
   142  H    0.217131
   143  C    0.593597
   144  C   -0.450749
   145  H    0.186764
   146  H    0.157362
   147  H    0.153259
   148  O   -0.458327
   149  O   -0.560653
   150  H    0.414269
 Sum of Mulliken charges =   1.00000

 Dipole moment (field-independent basis, Debye):
    X=            -37.7045    Y=            -28.8453    Z=            -20.9476  Tot=             51.8891
 Quadrupole moment (field-independent basis, Debye-Ang):
   XX=            -92.4275   YY=           -301.6363   ZZ=           -303.1137
   XY=            199.9890   XZ=            164.2643   YZ=             98.0172

 Normal termination of Gaussian 16 at Mon Jul 18 20:48:46 2022.
