 Gaussian 16, Revision C.01,
 Gaussian 16:  ES64L-G16RevC.01  3-Jul-2019

 ----------------------------------------------------------------------
 # B3LYP/6-31G* empiricaldispersion=gd3 guess=read geom=check nosymm in
 tegral(ultrafinegrid)
 ----------------------------------------------------------------------

 ------------------------------------------------------
 Candidate Structure: Conf:684 Charge calc in gas phase
 ------------------------------------------------------
 Structure from the checkpoint file:  "conf-684.chk"
 Charge =  1 Multiplicity = 1

                          Input orientation:
 ---------------------------------------------------------------------
 Center     Atomic      Atomic             Coordinates (Angstroms)
 Number     Number       Type             X           Y           Z
 ---------------------------------------------------------------------
      1          7           0       -0.108725   -5.768382   -6.435787
      2          1           0        0.640991   -5.583660   -7.106535
      3          1           0       -0.556197   -6.654863   -6.682733
      4          1           0        0.298785   -5.794128   -5.442404
      5          6           0       -1.095188   -4.625163   -6.301440
      6          1           0       -0.892178   -3.904490   -7.095539
      7          6           0       -0.730940   -4.038516   -4.909255
      8          6           0       -2.541826   -5.132904   -6.354284
      9          1           0       -3.192797   -4.277799   -6.134671
     10          1           0       -2.687588   -5.841506   -5.526710
     11          8           0        0.060527   -4.690331   -4.206249
     12          6           0       -2.982004   -5.769708   -7.689019
     13          1           0       -2.337051   -6.640809   -7.901171
     14          6           0       -4.419030   -6.294265   -7.548138
     15          1           0       -5.113516   -5.468456   -7.352635
     16          1           0       -4.508346   -7.012642   -6.725536
     17          1           0       -4.741166   -6.791812   -8.468111
     18          6           0       -2.866031   -4.791853   -8.867006
     19          1           0       -3.470333   -3.894540   -8.686065
     20          1           0       -1.834234   -4.470485   -9.055945
     21          1           0       -3.230111   -5.256802   -9.788320
     22          7           0       -1.319854   -2.899227   -4.591524
     23          1           0       -2.043550   -2.490296   -5.184816
     24          6           0       -1.285247   -2.256297   -3.275863
     25          1           0       -1.054862   -3.014991   -2.523232
     26          6           0       -2.708649   -1.700243   -3.087925
     27          6           0       -0.229717   -1.112290   -3.206596
     28          1           0       -0.350521   -0.655723   -2.218568
     29          8           0       -3.410242   -1.476816   -4.080906
     30          6           0        1.191131   -1.679771   -3.329657
     31          1           0        1.358676   -2.106651   -4.326278
     32          1           0        1.398982   -2.455939   -2.588241
     33          1           0        1.922366   -0.876072   -3.188994
     34          6           0       -0.482668   -0.020586   -4.254341
     35          1           0       -0.384247   -0.416969   -5.273242
     36          1           0        0.257135    0.777150   -4.135309
     37          1           0       -1.473337    0.426072   -4.147692
     38          7           0       -3.081082   -1.453464   -1.816394
     39          1           0       -2.350020   -1.536612   -1.104848
     40          6           0       -4.141991   -0.486474   -1.548834
     41          1           0       -4.924653   -0.638410   -2.299475
     42          6           0       -3.503597    0.912214   -1.742216
     43          6           0       -4.736254   -0.706661   -0.129900
     44          1           0       -3.960834   -0.446290    0.601611
     45          8           0       -2.267548    1.006790   -1.730951
     46          6           0       -5.954676    0.191010    0.129655
     47          1           0       -6.737864    0.020352   -0.621597
     48          1           0       -5.698322    1.252610    0.130821
     49          1           0       -6.384701   -0.039925    1.109446
     50          6           0       -5.121175   -2.182185    0.058417
     51          1           0       -5.883288   -2.482916   -0.671848
     52          1           0       -4.262923   -2.849289   -0.059924
     53          1           0       -5.536570   -2.335733    1.060137
     54          7           0       -4.304371    1.988762   -1.876433
     55          1           0       -5.279619    1.842720   -2.108554
     56          6           0       -3.789105    3.346515   -2.148057
     57          1           0       -3.012799    3.263757   -2.918181
     58          6           0       -3.194463    3.967500   -0.848306
     59          6           0       -4.940115    4.213643   -2.647455
     60          1           0       -4.529519    5.172931   -2.989508
     61          1           0       -5.618349    4.423442   -1.810121
     62          8           0       -3.781224    4.840636   -0.221340
     63          8           0       -5.589504    3.495717   -3.694267
     64          1           0       -6.361936    4.009504   -3.974012
     65          7           0       -2.016102    3.402618   -0.483894
     66          1           0       -1.634890    2.682658   -1.096106
     67          6           0       -1.464174    3.384917    0.856843
     68          1           0       -1.424634    4.395071    1.277180
     69          6           0       -0.071974    2.735679    0.730427
     70          6           0       -2.269575    2.448393    1.814832
     71          1           0       -1.740382    2.449512    2.777458
     72          8           0        0.219159    2.073571   -0.271237
     73          6           0       -3.717427    2.854395    2.067151
     74          1           0       -3.790668    3.884816    2.426422
     75          1           0       -4.312919    2.773147    1.157239
     76          1           0       -4.141131    2.177582    2.815955
     77          8           0       -2.202360    1.101780    1.342355
     78          1           0       -2.083601    1.084044    0.375373
     79          7           0        0.747228    2.805644    1.803764
     80          1           0        0.460370    3.304023    2.636033
     81          6           0        1.977198    2.011188    1.854975
     82          1           0        2.308983    1.928595    0.813822
     83          6           0        1.713361    0.561147    2.347615
     84          6           0        3.072304    2.677101    2.690615
     85          1           0        2.854438    2.538760    3.754323
     86          1           0        3.091598    3.751924    2.489175
     87          8           0        2.279324    0.111252    3.343525
     88          6           0        4.444865    2.067188    2.363405
     89          1           0        4.766298    2.402744    1.367312
     90          1           0        4.381566    0.978485    2.342129
     91          6           0        5.508481    2.510592    3.364698
     92          7           0        6.377280    1.521770    3.750718
     93          1           0        6.125237    0.545673    3.621843
     94          1           0        6.994994    1.749127    4.519357
     95          8           0        5.590651    3.666108    3.756571
     96          7           0        0.896327   -0.204097    1.571266
     97          1           0        0.510611    0.181709    0.713696
     98          6           0        0.893394   -1.659317    1.730853
     99          1           0        1.054855   -1.872543    2.790854
    100          6           0        2.082788   -2.192816    0.898878
    101          6           0       -0.422247   -2.308411    1.270718
    102          1           0       -0.261685   -3.396271    1.306798
    103          8           0        1.909203   -2.716988   -0.213731
    104          6           0       -1.614433   -1.939121    2.133769
    105          1           0       -1.454080   -2.278403    3.162903
    106          1           0       -1.775480   -0.859852    2.131744
    107          1           0       -2.513477   -2.432132    1.748509
    108          8           0       -0.693280   -1.927373   -0.090570
    109          1           0        0.109208   -2.224879   -0.571072
    110          7           0        3.297794   -1.956603    1.427760
    111          1           0        3.371102   -1.487959    2.331250
    112          6           0        4.534448   -2.037946    0.663245
    113          1           0        4.680784   -3.066479    0.311586
    114          6           0        5.673795   -1.640705    1.618179
    115          6           0        4.520993   -1.081272   -0.547914
    116          1           0        5.447465   -1.163805   -1.124294
    117          1           0        3.679847   -1.327578   -1.198602
    118          1           0        4.417938   -0.046017   -0.204797
    119          8           0        5.432327   -1.138061    2.723183
    120          7           0        6.918314   -1.805331    1.143534
    121          1           0        7.105235   -2.228805    0.239685
    122          6           0        8.094871   -1.283294    1.828703
    123          1           0        7.836687   -0.299346    2.232412
    124          6           0        9.177685   -1.144485    0.750242
    125          6           0        8.530723   -2.227828    2.975274
    126          1           0        7.636009   -2.403038    3.585291
    127          1           0        8.809110   -3.189570    2.525680
    128          8           0        9.148780   -1.832242   -0.271076
    129          6           0        9.667765   -1.730195    3.888077
    130          1           0       10.563565   -1.554619    3.278349
    131          6           0        9.308825   -0.419054    4.606475
    132          1           0        8.403426   -0.548808    5.213814
    133          1           0        9.121214    0.412871    3.916349
    134          1           0       10.118923   -0.109456    5.275473
    135          6           0       10.010234   -2.820939    4.914178
    136          1           0        9.148156   -3.036118    5.558335
    137          1           0       10.838678   -2.506953    5.558946
    138          1           0       10.302247   -3.755234    4.420979
    139          7           0       10.155553   -0.247809    1.014269
    140          1           0       10.128537    0.286481    1.871412
    141          6           0       11.317769   -0.103624    0.146186
    142          1           0       11.510136   -1.087330   -0.296797
    143          6           0       12.573030    0.271393    0.925563
    144          6           0       11.079612    0.900190   -0.993222
    145          1           0       11.973862    0.974555   -1.616883
    146          1           0       10.239802    0.553114   -1.600483
    147          1           0       10.843721    1.892089   -0.593579
    148          8           0       13.642310    0.475071    0.404353
    149          8           0       12.367495    0.366316    2.265097
    150          1           0       13.223311    0.618465    2.661651
 ---------------------------------------------------------------------

 SCF Done:  E(RB3LYP) =  -3455.71748610     A.U. after    1 cycles

 Alpha  occ. eigenvalues --  -19.26679 -19.25933 -19.22125 -19.21943 -19.21043
 Alpha  occ. eigenvalues --  -19.20481 -19.20341 -19.20243 -19.19640 -19.19638
 Alpha  occ. eigenvalues --  -19.19634 -19.18695 -19.18432 -19.17862 -19.14713
 Alpha  occ. eigenvalues --  -14.59078 -14.48219 -14.44656 -14.44239 -14.43274
 Alpha  occ. eigenvalues --  -14.43156 -14.43151 -14.42631 -14.42428 -14.41330
 Alpha  occ. eigenvalues --  -14.38708 -10.42489 -10.39866 -10.38643 -10.37126
 Alpha  occ. eigenvalues --  -10.37124 -10.36785 -10.36540 -10.36100 -10.35743
 Alpha  occ. eigenvalues --  -10.35360 -10.35223 -10.32918 -10.32432 -10.32335
 Alpha  occ. eigenvalues --  -10.31855 -10.31052 -10.30994 -10.30979 -10.30871
 Alpha  occ. eigenvalues --  -10.30773 -10.30768 -10.30534 -10.30422 -10.30098
 Alpha  occ. eigenvalues --  -10.30067 -10.29904 -10.28718 -10.27870 -10.26872
 Alpha  occ. eigenvalues --  -10.26671 -10.25240 -10.24772 -10.24633 -10.24355
 Alpha  occ. eigenvalues --  -10.24304 -10.24227 -10.24056 -10.23948 -10.23938
 Alpha  occ. eigenvalues --  -10.23649 -10.23360 -10.23013 -10.22945 -10.22518
 Alpha  occ. eigenvalues --   -1.18375  -1.17189  -1.13072  -1.12776  -1.12119
 Alpha  occ. eigenvalues --   -1.11881  -1.11734  -1.11282  -1.10485  -1.10118
 Alpha  occ. eigenvalues --   -1.09763  -1.09191  -1.08645  -1.08360  -1.08167
 Alpha  occ. eigenvalues --   -1.06473  -1.05035  -1.00617  -1.00371  -1.00252
 Alpha  occ. eigenvalues --   -1.00027  -0.99748  -0.99613  -0.98553  -0.98308
 Alpha  occ. eigenvalues --   -0.94606  -0.93525  -0.89949  -0.88030  -0.87620
 Alpha  occ. eigenvalues --   -0.86993  -0.86405  -0.85108  -0.84474  -0.84226
 Alpha  occ. eigenvalues --   -0.83382  -0.82681  -0.81290  -0.80094  -0.79817
 Alpha  occ. eigenvalues --   -0.79123  -0.78823  -0.77726  -0.77209  -0.75953
 Alpha  occ. eigenvalues --   -0.75272  -0.75158  -0.74109  -0.73881  -0.73287
 Alpha  occ. eigenvalues --   -0.73207  -0.72216  -0.71502  -0.71154  -0.70660
 Alpha  occ. eigenvalues --   -0.69276  -0.68928  -0.68648  -0.67561  -0.67413
 Alpha  occ. eigenvalues --   -0.66583  -0.66311  -0.66301  -0.65932  -0.65426
 Alpha  occ. eigenvalues --   -0.65214  -0.65146  -0.65003  -0.64502  -0.63943
 Alpha  occ. eigenvalues --   -0.62630  -0.62442  -0.62383  -0.61827  -0.61404
 Alpha  occ. eigenvalues --   -0.61035  -0.60298  -0.60081  -0.59052  -0.58941
 Alpha  occ. eigenvalues --   -0.58758  -0.58326  -0.57766  -0.57491  -0.57243
 Alpha  occ. eigenvalues --   -0.56755  -0.56268  -0.56069  -0.55923  -0.55660
 Alpha  occ. eigenvalues --   -0.55349  -0.55051  -0.54960  -0.54573  -0.54521
 Alpha  occ. eigenvalues --   -0.54407  -0.53860  -0.53851  -0.53288  -0.53116
 Alpha  occ. eigenvalues --   -0.52648  -0.52424  -0.52109  -0.51972  -0.51650
 Alpha  occ. eigenvalues --   -0.51458  -0.51182  -0.51167  -0.50951  -0.50585
 Alpha  occ. eigenvalues --   -0.50543  -0.50374  -0.50073  -0.49927  -0.49777
 Alpha  occ. eigenvalues --   -0.49666  -0.49629  -0.49400  -0.49297  -0.49105
 Alpha  occ. eigenvalues --   -0.48670  -0.48251  -0.48207  -0.48187  -0.48017
 Alpha  occ. eigenvalues --   -0.47859  -0.47217  -0.47110  -0.47026  -0.46902
 Alpha  occ. eigenvalues --   -0.46498  -0.46329  -0.46255  -0.46005  -0.45821
 Alpha  occ. eigenvalues --   -0.45658  -0.45485  -0.45244  -0.45056  -0.44866
 Alpha  occ. eigenvalues --   -0.44807  -0.44764  -0.44714  -0.44634  -0.44574
 Alpha  occ. eigenvalues --   -0.44474  -0.44375  -0.44257  -0.44119  -0.44033
 Alpha  occ. eigenvalues --   -0.43839  -0.43714  -0.43561  -0.43084  -0.43068
 Alpha  occ. eigenvalues --   -0.42844  -0.42563  -0.42444  -0.42227  -0.42188
 Alpha  occ. eigenvalues --   -0.41481  -0.41467  -0.41313  -0.40986  -0.40934
 Alpha  occ. eigenvalues --   -0.40825  -0.40621  -0.40549  -0.40372  -0.40062
 Alpha  occ. eigenvalues --   -0.39745  -0.39447  -0.39035  -0.38934  -0.38625
 Alpha  occ. eigenvalues --   -0.38431  -0.37941  -0.37474  -0.35553  -0.35360
 Alpha  occ. eigenvalues --   -0.35031  -0.34714  -0.34629  -0.34600  -0.34388
 Alpha  occ. eigenvalues --   -0.34341  -0.33917  -0.33711  -0.33508  -0.33449
 Alpha  occ. eigenvalues --   -0.33172  -0.32614  -0.32365  -0.31534  -0.31521
 Alpha  occ. eigenvalues --   -0.31198  -0.30691  -0.30543  -0.30252  -0.28320
 Alpha virt. eigenvalues --   -0.11029  -0.10817  -0.07243  -0.06907  -0.06317
 Alpha virt. eigenvalues --   -0.06113  -0.05954  -0.05591  -0.05423  -0.04784
 Alpha virt. eigenvalues --   -0.04136  -0.03433  -0.03405  -0.01627  -0.01382

 Mulliken charges:
               1
     1  N   -0.760741
     2  H    0.413181
     3  H    0.409893
     4  H    0.433731
     5  C   -0.117025
     6  H    0.215371
     7  C    0.657438
     8  C   -0.298007
     9  H    0.198225
    10  H    0.172070
    11  O   -0.546733
    12  C   -0.096489
    13  H    0.111835
    14  C   -0.447634
    15  H    0.167184
    16  H    0.158208
    17  H    0.173114
    18  C   -0.454329
    19  H    0.169436
    20  H    0.131523
    21  H    0.181908
    22  N   -0.589578
    23  H    0.370113
    24  C   -0.093188
    25  H    0.187318
    26  C    0.632783
    27  C   -0.096161
    28  H    0.191782
    29  O   -0.561386
    30  C   -0.468153
    31  H    0.120634
    32  H    0.189077
    33  H    0.158042
    34  C   -0.459311
    35  H    0.118585
    36  H    0.163126
    37  H    0.176582
    38  N   -0.620038
    39  H    0.404086
    40  C   -0.067933
    41  H    0.179484
    42  C    0.630760
    43  C   -0.121646
    44  H    0.176287
    45  O   -0.553786
    46  C   -0.475146
    47  H    0.140908
    48  H    0.165477
    49  H    0.165082
    50  C   -0.442155
    51  H    0.144132
    52  H    0.156207
    53  H    0.156944
    54  N   -0.596513
    55  H    0.358076
    56  C   -0.065081
    57  H    0.185928
    58  C    0.629696
    59  C   -0.069290
    60  H    0.162053
    61  H    0.166984
    62  O   -0.521504
    63  O   -0.631976
    64  H    0.410822
    65  N   -0.636932
    66  H    0.405578
    67  C   -0.114686
    68  H    0.183097
    69  C    0.646714
    70  C    0.156239
    71  H    0.133437
    72  O   -0.550533
    73  C   -0.450777
    74  H    0.164674
    75  H    0.165251
    76  H    0.155436
    77  O   -0.661306
    78  H    0.426052
    79  N   -0.610892
    80  H    0.344712
    81  C   -0.063098
    82  H    0.188015
    83  C    0.617983
    84  C   -0.271000
    85  H    0.172507
    86  H    0.168663
    87  O   -0.525796
    88  C   -0.392224
    89  H    0.159327
    90  H    0.177264
    91  C    0.589958
    92  N   -0.795226
    93  H    0.388130
    94  H    0.333508
    95  O   -0.507154
    96  N   -0.604934
    97  H    0.374247
    98  C   -0.089840
    99  H    0.193111
   100  C    0.638013
   101  C    0.134639
   102  H    0.138692
   103  O   -0.568219
   104  C   -0.507368
   105  H    0.151007
   106  H    0.224399
   107  H    0.151494
   108  O   -0.690413
   109  H    0.441392
   110  N   -0.632638
   111  H    0.400508
   112  C   -0.032301
   113  H    0.179744
   114  C    0.630815
   115  C   -0.474644
   116  H    0.158530
   117  H    0.196123
   118  H    0.161288
   119  O   -0.548292
   120  N   -0.615443
   121  H    0.358886
   122  C   -0.066888
   123  H    0.180072
   124  C    0.616310
   125  C   -0.256136
   126  H    0.166020
   127  H    0.148555
   128  O   -0.541097
   129  C   -0.097130
   130  H    0.141371
   131  C   -0.465320
   132  H    0.151304
   133  H    0.136673
   134  H    0.157593
   135  C   -0.444706
   136  H    0.147619
   137  H    0.150134
   138  H    0.148566
   139  N   -0.612344
   140  H    0.362113
   141  C   -0.049869
   142  H    0.214639
   143  C    0.591914
   144  C   -0.444739
   145  H    0.186560
   146  H    0.175427
   147  H    0.156565
   148  O   -0.443643
   149  O   -0.580333
   150  H    0.424776
 Sum of Mulliken charges =   1.00000

 Dipole moment (field-independent basis, Debye):
    X=             -1.3663    Y=            -18.4540    Z=            -21.2861  Tot=             28.2049
 Quadrupole moment (field-independent basis, Debye-Ang):
   XX=           -300.1349   YY=           -308.2255   ZZ=           -236.2406
   XY=             -5.0744   XZ=             63.3727   YZ=            116.7792

 Normal termination of Gaussian 16 at Mon Jul 18 20:49:19 2022.
