 Gaussian 16, Revision C.01,
 Gaussian 16:  ES64L-G16RevC.01  3-Jul-2019

 ----------------------------------------------------------------------
 # B3LYP/6-31G* empiricaldispersion=gd3 guess=read geom=check nosymm in
 tegral(ultrafinegrid)
 ----------------------------------------------------------------------

 ------------------------------------------------------
 Candidate Structure: Conf:669 Charge calc in gas phase
 ------------------------------------------------------
 Structure from the checkpoint file:  "conf-669.chk"
 Charge =  1 Multiplicity = 1

                          Input orientation:
 ---------------------------------------------------------------------
 Center     Atomic      Atomic             Coordinates (Angstroms)
 Number     Number       Type             X           Y           Z
 ---------------------------------------------------------------------
      1          7           0       -8.977333   -6.918908   -6.917389
      2          1           0       -8.649249   -7.726487   -7.453763
      3          1           0       -9.875393   -6.615750   -7.304600
      4          1           0       -9.068308   -7.196791   -5.892653
      5          6           0       -7.960910   -5.795645   -6.838702
      6          1           0       -7.170070   -6.002529   -7.561960
      7          6           0       -7.435711   -5.917956   -5.383357
      8          6           0       -8.622554   -4.435252   -7.099278
      9          1           0       -7.859701   -3.666938   -6.922688
     10          1           0       -9.394739   -4.275670   -6.333584
     11          8           0       -8.049218   -6.669163   -4.610104
     12          6           0       -9.216725   -4.236725   -8.509834
     13          1           0      -10.001116   -4.995721   -8.679316
     14          6           0       -9.897989   -2.861481   -8.580116
     15          1           0       -9.163805   -2.059468   -8.437933
     16          1           0      -10.671182   -2.753114   -7.811330
     17          1           0      -10.369405   -2.713873   -9.556477
     18          6           0       -8.160418   -4.386191   -9.613906
     19          1           0       -7.345111   -3.666675   -9.470052
     20          1           0       -7.720885   -5.390727   -9.653416
     21          1           0       -8.603130   -4.192780  -10.595646
     22          7           0       -6.373178   -5.181630   -5.086765
     23          1           0       -5.996204   -4.504211   -5.749458
     24          6           0       -5.829757   -4.992327   -3.738296
     25          1           0       -6.608637   -5.262706   -3.017720
     26          6           0       -5.511500   -3.484165   -3.684380
     27          6           0       -4.571313   -5.874637   -3.496875
     28          1           0       -3.816228   -5.553986   -4.228022
     29          8           0       -5.256749   -2.875257   -4.725835
     30          6           0       -4.000430   -5.664205   -2.085546
     31          1           0       -4.761286   -5.867705   -1.318889
     32          1           0       -3.606503   -4.654505   -1.947254
     33          1           0       -3.177697   -6.364802   -1.912059
     34          6           0       -4.898347   -7.355550   -3.735814
     35          1           0       -5.682439   -7.700993   -3.052385
     36          1           0       -4.006108   -7.966291   -3.565849
     37          1           0       -5.236167   -7.542580   -4.760089
     38          7           0       -5.546736   -2.891136   -2.473243
     39          1           0       -5.604320   -3.474798   -1.648950
     40          6           0       -5.054064   -1.528576   -2.294683
     41          1           0       -5.598547   -0.883485   -2.993484
     42          6           0       -3.554838   -1.484697   -2.630440
     43          6           0       -5.328221   -1.058726   -0.840223
     44          1           0       -4.861797   -1.789760   -0.165700
     45          8           0       -2.803305   -2.423916   -2.318526
     46          6           0       -4.682840    0.301639   -0.542689
     47          1           0       -5.007012    1.068516   -1.258115
     48          1           0       -3.592364    0.246665   -0.552103
     49          1           0       -4.980224    0.636093    0.455638
     50          6           0       -6.841001   -1.013233   -0.575620
     51          1           0       -7.321652   -0.256421   -1.207948
     52          1           0       -7.331452   -1.972591   -0.772027
     53          1           0       -7.032485   -0.747595    0.468775
     54          7           0       -3.118884   -0.360603   -3.223007
     55          1           0       -3.747997    0.423991   -3.365787
     56          6           0       -1.704755   -0.017879   -3.389226
     57          1           0       -1.171762   -0.882612   -3.796395
     58          6           0       -1.143546    0.346622   -2.000982
     59          6           0       -1.611702    1.179121   -4.344848
     60          1           0       -1.925174    0.871028   -5.346289
     61          1           0       -0.567078    1.512892   -4.394362
     62          8           0       -1.059864    1.518053   -1.608783
     63          8           0       -2.495904    2.210190   -3.934422
     64          1           0       -2.140302    2.530139   -3.083591
     65          7           0       -0.801720   -0.715693   -1.241536
     66          1           0       -1.019269   -1.630050   -1.625610
     67          6           0       -0.555822   -0.612675    0.201764
     68          1           0       -1.093656    0.271803    0.559691
     69          6           0        0.959833   -0.426093    0.379128
     70          6           0       -1.107211   -1.859476    0.922838
     71          1           0       -0.500800   -2.724031    0.617394
     72          8           0        1.708826   -1.369481    0.635056
     73          6           0       -1.033459   -1.695907    2.432902
     74          1           0       -0.006641   -1.531739    2.770373
     75          1           0       -1.656482   -0.848835    2.744616
     76          1           0       -1.424719   -2.596353    2.914415
     77          8           0       -2.480702   -2.055576    0.573532
     78          1           0       -2.537391   -2.424306   -0.325074
     79          7           0        1.399162    0.829871    0.117372
     80          1           0        0.711364    1.536794   -0.119555
     81          6           0        2.823780    1.150198   -0.051630
     82          1           0        3.294742    0.247895   -0.460417
     83          6           0        3.477549    1.439084    1.320313
     84          6           0        3.013268    2.329974   -1.010137
     85          1           0        4.088455    2.463875   -1.159974
     86          1           0        2.658054    3.244212   -0.523082
     87          8           0        3.929136    2.550445    1.606309
     88          6           0        2.320491    2.167948   -2.378712
     89          1           0        2.560083    3.043894   -2.987956
     90          1           0        1.232416    2.129838   -2.264215
     91          6           0        2.830629    0.951373   -3.144578
     92          7           0        2.034974   -0.180774   -3.062791
     93          1           0        1.435898   -0.295628   -2.255643
     94          1           0        2.485618   -1.029306   -3.386530
     95          8           0        3.858292    0.972161   -3.799618
     96          7           0        3.497848    0.380853    2.159224
     97          1           0        3.044391   -0.480939    1.863149
     98          6           0        3.878687    0.515257    3.563141
     99          1           0        3.602294    1.530896    3.878930
    100          6           0        5.408440    0.373597    3.731039
    101          6           0        3.110718   -0.510927    4.418054
    102          1           0        3.479833   -1.511013    4.172457
    103          8           0        5.922567   -0.571918    4.326624
    104          6           0        3.276880   -0.256676    5.913306
    105          1           0        4.323605   -0.350037    6.208273
    106          1           0        2.932444    0.753115    6.175967
    107          1           0        2.680059   -0.981604    6.474835
    108          8           0        1.726763   -0.522617    4.042895
    109          1           0        1.343154    0.324279    4.323552
    110          7           0        6.125691    1.371262    3.162745
    111          1           0        5.620354    2.160692    2.769878
    112          6           0        7.549795    1.491775    3.428892
    113          1           0        8.035830    0.557108    3.126508
    114          6           0        7.755469    1.721635    4.942915
    115          6           0        8.126787    2.673232    2.645935
    116          1           0        9.206146    2.746881    2.809862
    117          1           0        7.943875    2.552419    1.573216
    118          1           0        7.663762    3.606103    2.985059
    119          8           0        7.045120    2.513336    5.556731
    120          7           0        8.771847    1.022006    5.499324
    121          1           0        9.338395    0.394173    4.942800
    122          6           0        9.122883    1.104220    6.904000
    123          1           0        8.722797    2.049513    7.281454
    124          6           0       10.652872    1.076826    7.001676
    125          6           0        8.555066   -0.084351    7.719687
    126          1           0        9.022056   -0.998787    7.329310
    127          1           0        8.892210    0.019542    8.761707
    128          8           0       11.339217    0.497856    6.161788
    129          6           0        7.023666   -0.235875    7.684832
    130          1           0        6.718197   -0.276268    6.632314
    131          6           0        6.621991   -1.565271    8.340702
    132          1           0        6.909467   -1.586926    9.400562
    133          1           0        7.099492   -2.418454    7.844372
    134          1           0        5.536598   -1.712087    8.288115
    135          6           0        6.306539    0.943231    8.357409
    136          1           0        6.630097    1.054425    9.401895
    137          1           0        5.222274    0.777409    8.365922
    138          1           0        6.489298    1.879545    7.823633
    139          7           0       11.178493    1.672746    8.102705
    140          1           0       10.573863    2.135389    8.766515
    141          6           0       12.606570    1.612860    8.383595
    142          1           0       12.957304    0.617718    8.087775
    143          6           0       12.912014    1.755778    9.867509
    144          6           0       13.406666    2.656424    7.583377
    145          1           0       14.471761    2.567883    7.813006
    146          1           0       13.246695    2.475079    6.517948
    147          1           0       13.072166    3.670280    7.827729
    148          8           0       14.024018    1.667244   10.330875
    149          8           0       11.815147    2.024340   10.622618
    150          1           0       12.127946    2.115856   11.542534
 ---------------------------------------------------------------------

 SCF Done:  E(RB3LYP) =  -3455.69405006     A.U. after    1 cycles

 Alpha  occ. eigenvalues --  -19.27939 -19.24198 -19.23470 -19.22678 -19.22149
 Alpha  occ. eigenvalues --  -19.22013 -19.21016 -19.19472 -19.19219 -19.17753
 Alpha  occ. eigenvalues --  -19.16800 -19.16222 -19.14889 -19.14878 -19.13504
 Alpha  occ. eigenvalues --  -14.60988 -14.50564 -14.47416 -14.46580 -14.45436
 Alpha  occ. eigenvalues --  -14.43344 -14.40661 -14.40334 -14.39705 -14.38397
 Alpha  occ. eigenvalues --  -14.38351 -10.44617 -10.41690 -10.40341 -10.39361
 Alpha  occ. eigenvalues --  -10.38463 -10.36165 -10.36142 -10.35453 -10.34525
 Alpha  occ. eigenvalues --  -10.33742 -10.33652 -10.33575 -10.33220 -10.32707
 Alpha  occ. eigenvalues --  -10.31949 -10.31775 -10.31640 -10.30828 -10.30802
 Alpha  occ. eigenvalues --  -10.30750 -10.30261 -10.29956 -10.29407 -10.29055
 Alpha  occ. eigenvalues --  -10.29033 -10.28101 -10.27658 -10.27210 -10.27120
 Alpha  occ. eigenvalues --  -10.26710 -10.26301 -10.26247 -10.25994 -10.25731
 Alpha  occ. eigenvalues --  -10.24719 -10.24404 -10.22532 -10.21683 -10.21247
 Alpha  occ. eigenvalues --  -10.21139 -10.21034 -10.20277 -10.19122 -10.18428
 Alpha  occ. eigenvalues --   -1.20362  -1.15725  -1.14829  -1.14739  -1.14373
 Alpha  occ. eigenvalues --   -1.13337  -1.11111  -1.09623  -1.08570  -1.08416
 Alpha  occ. eigenvalues --   -1.08060  -1.07334  -1.07056  -1.06850  -1.06471
 Alpha  occ. eigenvalues --   -1.05653  -1.05248  -1.03912  -1.02910  -1.01601
 Alpha  occ. eigenvalues --   -0.99625  -0.96856  -0.96244  -0.96237  -0.95215
 Alpha  occ. eigenvalues --   -0.95097  -0.94966  -0.92354  -0.90211  -0.89412
 Alpha  occ. eigenvalues --   -0.87000  -0.85326  -0.83954  -0.83662  -0.83412
 Alpha  occ. eigenvalues --   -0.82196  -0.81400  -0.81219  -0.80382  -0.79946
 Alpha  occ. eigenvalues --   -0.79499  -0.78885  -0.77986  -0.77071  -0.77044
 Alpha  occ. eigenvalues --   -0.76443  -0.75027  -0.74144  -0.74077  -0.73331
 Alpha  occ. eigenvalues --   -0.72491  -0.71209  -0.70990  -0.70314  -0.69704
 Alpha  occ. eigenvalues --   -0.69435  -0.69139  -0.68970  -0.68634  -0.68003
 Alpha  occ. eigenvalues --   -0.67972  -0.67309  -0.66437  -0.65773  -0.65457
 Alpha  occ. eigenvalues --   -0.64921  -0.64265  -0.63826  -0.63393  -0.63080
 Alpha  occ. eigenvalues --   -0.62510  -0.62375  -0.61234  -0.61154  -0.60819
 Alpha  occ. eigenvalues --   -0.60714  -0.60596  -0.59936  -0.59737  -0.59484
 Alpha  occ. eigenvalues --   -0.58711  -0.58542  -0.58460  -0.58173  -0.57505
 Alpha  occ. eigenvalues --   -0.57386  -0.57205  -0.56579  -0.56504  -0.55946
 Alpha  occ. eigenvalues --   -0.55640  -0.55297  -0.54682  -0.54377  -0.54107
 Alpha  occ. eigenvalues --   -0.53982  -0.53486  -0.53404  -0.53033  -0.52620
 Alpha  occ. eigenvalues --   -0.52519  -0.51933  -0.51837  -0.51675  -0.51503
 Alpha  occ. eigenvalues --   -0.51273  -0.51235  -0.50927  -0.50610  -0.50571
 Alpha  occ. eigenvalues --   -0.50445  -0.50131  -0.49792  -0.49566  -0.49515
 Alpha  occ. eigenvalues --   -0.49480  -0.49244  -0.48950  -0.48661  -0.48484
 Alpha  occ. eigenvalues --   -0.48223  -0.48032  -0.47872  -0.47754  -0.47570
 Alpha  occ. eigenvalues --   -0.47335  -0.47013  -0.46601  -0.46579  -0.46537
 Alpha  occ. eigenvalues --   -0.46231  -0.46127  -0.46052  -0.45935  -0.45822
 Alpha  occ. eigenvalues --   -0.45668  -0.45363  -0.45217  -0.45139  -0.45075
 Alpha  occ. eigenvalues --   -0.44840  -0.44709  -0.44258  -0.43718  -0.43655
 Alpha  occ. eigenvalues --   -0.43617  -0.43429  -0.43170  -0.43127  -0.42683
 Alpha  occ. eigenvalues --   -0.42633  -0.42494  -0.42238  -0.42107  -0.41992
 Alpha  occ. eigenvalues --   -0.41886  -0.41773  -0.41750  -0.41139  -0.41050
 Alpha  occ. eigenvalues --   -0.40907  -0.40727  -0.40615  -0.40387  -0.40121
 Alpha  occ. eigenvalues --   -0.39993  -0.39984  -0.39831  -0.39447  -0.39428
 Alpha  occ. eigenvalues --   -0.39015  -0.38360  -0.38129  -0.37880  -0.37573
 Alpha  occ. eigenvalues --   -0.37219  -0.36638  -0.36486  -0.35835  -0.35689
 Alpha  occ. eigenvalues --   -0.35588  -0.34624  -0.34437  -0.34257  -0.34071
 Alpha  occ. eigenvalues --   -0.33937  -0.33872  -0.32528  -0.32197  -0.31931
 Alpha  occ. eigenvalues --   -0.31885  -0.31468  -0.29826  -0.29446  -0.29434
 Alpha  occ. eigenvalues --   -0.29058  -0.28858  -0.27693  -0.27095  -0.26780
 Alpha virt. eigenvalues --   -0.13117  -0.12396  -0.09736  -0.09044  -0.07741
 Alpha virt. eigenvalues --   -0.07634  -0.05562  -0.05231  -0.03336  -0.03324
 Alpha virt. eigenvalues --   -0.03019  -0.02851  -0.02641  -0.02326  -0.02054

 Mulliken charges:
               1
     1  N   -0.757633
     2  H    0.417788
     3  H    0.414034
     4  H    0.434119
     5  C   -0.119462
     6  H    0.218119
     7  C    0.654471
     8  C   -0.297831
     9  H    0.195741
    10  H    0.174245
    11  O   -0.540417
    12  C   -0.099682
    13  H    0.114983
    14  C   -0.448180
    15  H    0.167413
    16  H    0.159786
    17  H    0.177436
    18  C   -0.455042
    19  H    0.169429
    20  H    0.131636
    21  H    0.186738
    22  N   -0.595019
    23  H    0.370227
    24  C   -0.081194
    25  H    0.185488
    26  C    0.644793
    27  C   -0.069079
    28  H    0.152432
    29  O   -0.547137
    30  C   -0.501754
    31  H    0.141790
    32  H    0.194564
    33  H    0.173322
    34  C   -0.445335
    35  H    0.163873
    36  H    0.170915
    37  H    0.129117
    38  N   -0.603368
    39  H    0.349507
    40  C   -0.038337
    41  H    0.171127
    42  C    0.657774
    43  C   -0.123524
    44  H    0.169920
    45  O   -0.578315
    46  C   -0.475421
    47  H    0.142528
    48  H    0.175994
    49  H    0.171980
    50  C   -0.447801
    51  H    0.153243
    52  H    0.140566
    53  H    0.172511
    54  N   -0.579667
    55  H    0.363455
    56  C   -0.083348
    57  H    0.188039
    58  C    0.635930
    59  C   -0.063915
    60  H    0.167750
    61  H    0.174883
    62  O   -0.558359
    63  O   -0.632308
    64  H    0.423370
    65  N   -0.624702
    66  H    0.365353
    67  C   -0.052758
    68  H    0.178968
    69  C    0.632189
    70  C    0.101009
    71  H    0.148897
    72  O   -0.539086
    73  C   -0.486675
    74  H    0.216949
    75  H    0.141855
    76  H    0.162674
    77  O   -0.661364
    78  H    0.416161
    79  N   -0.614947
    80  H    0.362908
    81  C   -0.081464
    82  H    0.188662
    83  C    0.635468
    84  C   -0.291605
    85  H    0.189191
    86  H    0.173616
    87  O   -0.543500
    88  C   -0.382203
    89  H    0.183051
    90  H    0.156789
    91  C    0.556800
    92  N   -0.775262
    93  H    0.358400
    94  H    0.335999
    95  O   -0.480315
    96  N   -0.615790
    97  H    0.385434
    98  C   -0.088379
    99  H    0.169137
   100  C    0.652749
   101  C    0.118232
   102  H    0.169122
   103  O   -0.538430
   104  C   -0.491235
   105  H    0.208592
   106  H    0.134697
   107  H    0.159798
   108  O   -0.626000
   109  H    0.386652
   110  N   -0.609062
   111  H    0.371540
   112  C   -0.027825
   113  H    0.156586
   114  C    0.640303
   115  C   -0.480083
   116  H    0.166437
   117  H    0.163629
   118  H    0.175982
   119  O   -0.545288
   120  N   -0.593026
   121  H    0.345276
   122  C   -0.075869
   123  H    0.173726
   124  C    0.630221
   125  C   -0.251450
   126  H    0.144435
   127  H    0.129039
   128  O   -0.540586
   129  C   -0.093835
   130  H    0.181116
   131  C   -0.443478
   132  H    0.133430
   133  H    0.142305
   134  H    0.137916
   135  C   -0.470733
   136  H    0.121723
   137  H    0.134138
   138  H    0.184362
   139  N   -0.617947
   140  H    0.350864
   141  C   -0.037267
   142  H    0.208615
   143  C    0.587695
   144  C   -0.447383
   145  H    0.178530
   146  H    0.184806
   147  H    0.150767
   148  O   -0.451927
   149  O   -0.582439
   150  H    0.420211
 Sum of Mulliken charges =   1.00000

 Dipole moment (field-independent basis, Debye):
    X=            -40.7560    Y=            -24.2828    Z=            -27.0456  Tot=             54.6092
 Quadrupole moment (field-independent basis, Debye-Ang):
   XX=           -128.9651   YY=           -258.5552   ZZ=           -175.1659
   XY=            226.9091   XZ=            272.3907   YZ=            198.3708

 Normal termination of Gaussian 16 at Sat Jul  2 15:26:18 2022.
