 Gaussian 16, Revision C.01,
 Gaussian 16:  ES64L-G16RevC.01  3-Jul-2019

 ----------------------------------------------------------------------
 # B3LYP/6-31G* empiricaldispersion=gd3 guess=read geom=check nosymm in
 tegral(ultrafinegrid)
 ----------------------------------------------------------------------

 ------------------------------------------------------
 Candidate Structure: Conf:239 Charge calc in gas phase
 ------------------------------------------------------
 Structure from the checkpoint file:  "conf-239.chk"
 Charge =  1 Multiplicity = 1

                          Input orientation:
 ---------------------------------------------------------------------
 Center     Atomic      Atomic             Coordinates (Angstroms)
 Number     Number       Type             X           Y           Z
 ---------------------------------------------------------------------
      1          7           0       -7.883387   -8.281039   -2.810299
      2          1           0       -8.461307   -8.690334   -3.550947
      3          1           0       -8.194466   -8.649470   -1.906888
      4          1           0       -6.872038   -8.530980   -3.002630
      5          6           0       -7.841425   -6.762873   -2.854486
      6          1           0       -8.750813   -6.407116   -3.341423
      7          6           0       -6.566743   -6.496782   -3.693825
      8          6           0       -7.708703   -6.225875   -1.416162
      9          1           0       -6.817454   -6.686247   -0.967924
     10          1           0       -8.582782   -6.569702   -0.843488
     11          8           0       -5.716313   -7.398024   -3.732834
     12          6           0       -7.608652   -4.689804   -1.284468
     13          1           0       -6.731374   -4.345505   -1.842487
     14          6           0       -8.844263   -3.970559   -1.843649
     15          1           0       -9.751744   -4.270237   -1.304581
     16          1           0       -9.012070   -4.161580   -2.911201
     17          1           0       -8.727949   -2.888432   -1.738113
     18          6           0       -7.387659   -4.325071    0.190764
     19          1           0       -8.242604   -4.627420    0.808059
     20          1           0       -6.488868   -4.805251    0.594158
     21          1           0       -7.264180   -3.242887    0.297241
     22          7           0       -6.478904   -5.306255   -4.276483
     23          1           0       -7.178697   -4.587618   -4.093478
     24          6           0       -5.237002   -4.734563   -4.809092
     25          1           0       -4.405746   -5.356974   -4.462740
     26          6           0       -5.187588   -3.327846   -4.174675
     27          6           0       -5.238143   -4.692280   -6.360899
     28          1           0       -6.074347   -4.045362   -6.661441
     29          8           0       -6.243872   -2.755177   -3.885609
     30          6           0       -3.931067   -4.094206   -6.904344
     31          1           0       -3.062173   -4.676073   -6.569803
     32          1           0       -3.780280   -3.054792   -6.600772
     33          1           0       -3.937078   -4.119604   -7.998237
     34          6           0       -5.467828   -6.098642   -6.932091
     35          1           0       -4.670979   -6.783560   -6.619559
     36          1           0       -5.475339   -6.063932   -8.026048
     37          1           0       -6.424119   -6.519757   -6.605619
     38          7           0       -3.965395   -2.817974   -3.953140
     39          1           0       -3.135150   -3.289772   -4.298365
     40          6           0       -3.734225   -1.451574   -3.492328
     41          1           0       -4.656815   -0.886046   -3.656779
     42          6           0       -2.584448   -0.921018   -4.361445
     43          6           0       -3.366527   -1.404976   -1.981190
     44          1           0       -2.425513   -1.962585   -1.869056
     45          8           0       -1.689447   -1.687589   -4.724636
     46          6           0       -3.142686    0.037446   -1.500162
     47          1           0       -4.038603    0.649279   -1.676209
     48          1           0       -2.288895    0.524536   -1.980687
     49          1           0       -2.956218    0.046616   -0.421390
     50          6           0       -4.449954   -2.098350   -1.142067
     51          1           0       -5.421510   -1.608933   -1.276542
     52          1           0       -4.561899   -3.151589   -1.418382
     53          1           0       -4.187864   -2.055892   -0.079677
     54          7           0       -2.621835    0.393846   -4.694330
     55          1           0       -3.231981    0.987234   -4.142670
     56          6           0       -1.441504    1.055551   -5.282709
     57          1           0       -1.140741    0.470106   -6.154285
     58          6           0       -0.350030    1.065148   -4.209056
     59          6           0       -1.821796    2.465445   -5.745513
     60          1           0       -0.919763    2.959351   -6.109123
     61          1           0       -2.191270    3.038917   -4.879020
     62          8           0       -0.509087    1.729314   -3.170685
     63          8           0       -2.750093    2.436183   -6.815132
     64          1           0       -3.554307    1.988405   -6.509576
     65          7           0        0.689584    0.245627   -4.423696
     66          1           0        0.640038   -0.410488   -5.195996
     67          6           0        1.611447   -0.144782   -3.360818
     68          1           0        1.027353   -0.223577   -2.431272
     69          6           0        2.702466    0.921970   -3.139602
     70          6           0        2.242918   -1.515780   -3.706394
     71          1           0        3.069373   -1.338049   -4.398302
     72          8           0        3.886743    0.713490   -3.408978
     73          6           0        2.773263   -2.208561   -2.455052
     74          1           0        3.547295   -1.606155   -1.967346
     75          1           0        1.962142   -2.387762   -1.735503
     76          1           0        3.208328   -3.174218   -2.727800
     77          8           0        1.325029   -2.327043   -4.444471
     78          1           0        0.499235   -2.422901   -3.940239
     79          7           0        2.261722    2.077535   -2.592582
     80          1           0        1.255720    2.178481   -2.465788
     81          6           0        3.137289    3.242506   -2.476390
     82          1           0        3.865944    3.159160   -3.292751
     83          6           0        3.943071    3.218152   -1.157978
     84          6           0        2.352284    4.552949   -2.618108
     85          1           0        3.084032    5.364483   -2.686849
     86          1           0        1.796033    4.748053   -1.695249
     87          8           0        4.060323    4.216700   -0.441307
     88          6           0        1.369185    4.575285   -3.808812
     89          1           0        1.040911    5.609924   -3.973284
     90          1           0        0.477147    3.986262   -3.586733
     91          6           0        1.918870    4.020278   -5.120463
     92          7           0        3.085978    4.574298   -5.554374
     93          1           0        3.523265    5.354483   -5.087294
     94          1           0        3.471619    4.259740   -6.434038
     95          8           0        1.357859    3.124304   -5.746222
     96          7           0        4.495453    2.020698   -0.865029
     97          1           0        4.533691    1.287429   -1.571703
     98          6           0        5.166816    1.749964    0.396140
     99          1           0        4.704015    2.381272    1.162738
    100          6           0        6.654999    2.123489    0.277947
    101          6           0        4.992450    0.260049    0.753885
    102          1           0        5.593656    0.066692    1.654550
    103          8           0        7.540822    1.260306    0.192434
    104          6           0        3.536852   -0.099671    1.020454
    105          1           0        3.148750    0.453376    1.882724
    106          1           0        2.917838    0.137288    0.148668
    107          1           0        3.457418   -1.171824    1.221783
    108          8           0        5.443578   -0.551495   -0.325317
    109          1           0        6.398780   -0.361458   -0.405545
    110          7           0        6.898190    3.448370    0.241324
    111          1           0        6.098903    4.078190    0.267653
    112          6           0        8.235225    4.002184   -0.002542
    113          1           0        8.753315    3.296615   -0.661672
    114          6           0        9.003172    4.082763    1.339014
    115          6           0        8.122494    5.373983   -0.655701
    116          1           0        9.117934    5.763628   -0.883794
    117          1           0        7.544256    5.307861   -1.582988
    118          1           0        7.643865    6.082675    0.026235
    119          8           0        9.181734    5.146631    1.925833
    120          7           0        9.436859    2.883596    1.804173
    121          1           0        9.144041    2.022363    1.345409
    122          6           0       10.012339    2.766322    3.134663
    123          1           0       10.666268    3.630141    3.283249
    124          6           0       10.795728    1.454195    3.184496
    125          6           0        8.903485    2.760157    4.215127
    126          1           0        8.310890    3.670679    4.061652
    127          1           0        8.253211    1.901665    4.002046
    128          8           0       10.363398    0.434502    2.655648
    129          6           0        9.377899    2.700161    5.678884
    130          1           0       10.001894    1.806239    5.812011
    131          6           0       10.217196    3.925733    6.070258
    132          1           0        9.647837    4.851494    5.920256
    133          1           0       11.138320    4.012517    5.482621
    134          1           0       10.511435    3.874819    7.124703
    135          6           0        8.162639    2.568239    6.608877
    136          1           0        7.504163    3.441755    6.516244
    137          1           0        8.473402    2.495045    7.657714
    138          1           0        7.572165    1.676026    6.368733
    139          7           0       11.962400    1.493523    3.887473
    140          1           0       12.230390    2.352915    4.345442
    141          6           0       12.720381    0.290848    4.186593
    142          1           0       12.057317   -0.551029    3.958374
    143          6           0       13.077833    0.170806    5.665015
    144          6           0       13.988271    0.161346    3.327034
    145          1           0       14.526204   -0.753740    3.587243
    146          1           0       13.704587    0.129918    2.271802
    147          1           0       14.654981    1.016444    3.484669
    148          8           0       13.741422   -0.729976    6.122250
    149          8           0       12.587716    1.184949    6.423933
    150          1           0       12.878872    1.007309    7.338527
 ---------------------------------------------------------------------

 SCF Done:  E(RB3LYP) =  -3455.69341454     A.U. after    3 cycles

 Alpha  occ. eigenvalues --  -19.27456 -19.24246 -19.22896 -19.22032 -19.20900
 Alpha  occ. eigenvalues --  -19.20473 -19.19470 -19.17896 -19.17836 -19.17677
 Alpha  occ. eigenvalues --  -19.16963 -19.16885 -19.16778 -19.14867 -19.13824
 Alpha  occ. eigenvalues --  -14.61200 -14.50177 -14.46888 -14.46034 -14.43135
 Alpha  occ. eigenvalues --  -14.41347 -14.41332 -14.40332 -14.40302 -14.39890
 Alpha  occ. eigenvalues --  -14.37740 -10.44239 -10.41501 -10.39989 -10.38808
 Alpha  occ. eigenvalues --  -10.36217 -10.36161 -10.35059 -10.34613 -10.34541
 Alpha  occ. eigenvalues --  -10.34152 -10.33762 -10.33275 -10.33126 -10.32026
 Alpha  occ. eigenvalues --  -10.31426 -10.30896 -10.30795 -10.30054 -10.29591
 Alpha  occ. eigenvalues --  -10.29554 -10.29353 -10.28926 -10.28828 -10.28750
 Alpha  occ. eigenvalues --  -10.28167 -10.28065 -10.27710 -10.27571 -10.26972
 Alpha  occ. eigenvalues --  -10.26777 -10.26763 -10.26321 -10.25904 -10.25677
 Alpha  occ. eigenvalues --  -10.25174 -10.24838 -10.22209 -10.22074 -10.21767
 Alpha  occ. eigenvalues --  -10.21679 -10.21450 -10.21159 -10.20346 -10.20204
 Alpha  occ. eigenvalues --   -1.19991  -1.15209  -1.14791  -1.14695  -1.13788
 Alpha  occ. eigenvalues --   -1.11134  -1.09668  -1.08832  -1.08508  -1.08341
 Alpha  occ. eigenvalues --   -1.08031  -1.07757  -1.07013  -1.06936  -1.05711
 Alpha  occ. eigenvalues --   -1.05607  -1.05234  -1.03418  -1.01884  -0.99593
 Alpha  occ. eigenvalues --   -0.98372  -0.97294  -0.96429  -0.96246  -0.95892
 Alpha  occ. eigenvalues --   -0.95596  -0.94486  -0.91792  -0.89732  -0.88854
 Alpha  occ. eigenvalues --   -0.85881  -0.84689  -0.84107  -0.83674  -0.82738
 Alpha  occ. eigenvalues --   -0.82461  -0.81439  -0.80964  -0.80387  -0.79605
 Alpha  occ. eigenvalues --   -0.78941  -0.78506  -0.77838  -0.76980  -0.76779
 Alpha  occ. eigenvalues --   -0.75972  -0.74918  -0.74896  -0.74037  -0.72857
 Alpha  occ. eigenvalues --   -0.71348  -0.71342  -0.71102  -0.70054  -0.69608
 Alpha  occ. eigenvalues --   -0.69292  -0.68938  -0.68577  -0.68099  -0.67688
 Alpha  occ. eigenvalues --   -0.67271  -0.67226  -0.65881  -0.65311  -0.64738
 Alpha  occ. eigenvalues --   -0.64410  -0.64020  -0.63954  -0.63733  -0.63042
 Alpha  occ. eigenvalues --   -0.62713  -0.62441  -0.62236  -0.60648  -0.60581
 Alpha  occ. eigenvalues --   -0.60169  -0.59805  -0.59628  -0.59049  -0.58703
 Alpha  occ. eigenvalues --   -0.58499  -0.57974  -0.57687  -0.57369  -0.57274
 Alpha  occ. eigenvalues --   -0.56993  -0.56343  -0.55923  -0.55831  -0.55454
 Alpha  occ. eigenvalues --   -0.55093  -0.54999  -0.54625  -0.54520  -0.54141
 Alpha  occ. eigenvalues --   -0.53948  -0.53467  -0.52598  -0.52339  -0.52261
 Alpha  occ. eigenvalues --   -0.52172  -0.52117  -0.51669  -0.51315  -0.51188
 Alpha  occ. eigenvalues --   -0.50988  -0.50658  -0.50507  -0.50222  -0.49902
 Alpha  occ. eigenvalues --   -0.49722  -0.49620  -0.49294  -0.49195  -0.49110
 Alpha  occ. eigenvalues --   -0.49052  -0.48700  -0.48563  -0.48410  -0.48117
 Alpha  occ. eigenvalues --   -0.48018  -0.47650  -0.47645  -0.47500  -0.47252
 Alpha  occ. eigenvalues --   -0.47054  -0.46855  -0.46812  -0.46643  -0.46218
 Alpha  occ. eigenvalues --   -0.46083  -0.45715  -0.45587  -0.45409  -0.45377
 Alpha  occ. eigenvalues --   -0.45105  -0.45005  -0.44865  -0.44781  -0.44712
 Alpha  occ. eigenvalues --   -0.44648  -0.44471  -0.44288  -0.43854  -0.43688
 Alpha  occ. eigenvalues --   -0.43458  -0.43199  -0.43185  -0.42947  -0.42927
 Alpha  occ. eigenvalues --   -0.42694  -0.42350  -0.42275  -0.42239  -0.42050
 Alpha  occ. eigenvalues --   -0.41829  -0.41714  -0.41443  -0.41369  -0.41305
 Alpha  occ. eigenvalues --   -0.41034  -0.40877  -0.40761  -0.40466  -0.40307
 Alpha  occ. eigenvalues --   -0.40193  -0.39935  -0.39638  -0.39391  -0.39301
 Alpha  occ. eigenvalues --   -0.38993  -0.38344  -0.37841  -0.37410  -0.37063
 Alpha  occ. eigenvalues --   -0.36913  -0.36306  -0.36280  -0.35875  -0.35371
 Alpha  occ. eigenvalues --   -0.35181  -0.35067  -0.34305  -0.34182  -0.33336
 Alpha  occ. eigenvalues --   -0.33141  -0.32873  -0.32432  -0.32362  -0.32240
 Alpha  occ. eigenvalues --   -0.31341  -0.31058  -0.30582  -0.30321  -0.29323
 Alpha  occ. eigenvalues --   -0.29120  -0.28697  -0.28394  -0.27151  -0.26747
 Alpha virt. eigenvalues --   -0.13284  -0.11826  -0.09212  -0.07957  -0.07145
 Alpha virt. eigenvalues --   -0.05852  -0.05673  -0.04708  -0.03662  -0.03309
 Alpha virt. eigenvalues --   -0.03118  -0.02849  -0.02146  -0.01958  -0.01586

 Mulliken charges:
               1
     1  N   -0.750803
     2  H    0.418717
     3  H    0.415200
     4  H    0.431685
     5  C   -0.123918
     6  H    0.214265
     7  C    0.645579
     8  C   -0.284423
     9  H    0.172975
    10  H    0.164780
    11  O   -0.537535
    12  C   -0.112692
    13  H    0.165399
    14  C   -0.456054
    15  H    0.156308
    16  H    0.131946
    17  H    0.190833
    18  C   -0.451849
    19  H    0.156140
    20  H    0.155933
    21  H    0.176139
    22  N   -0.597017
    23  H    0.382181
    24  C   -0.076761
    25  H    0.186786
    26  C    0.633256
    27  C   -0.077009
    28  H    0.150112
    29  O   -0.553171
    30  C   -0.474051
    31  H    0.156662
    32  H    0.165922
    33  H    0.175852
    34  C   -0.445961
    35  H    0.163839
    36  H    0.171295
    37  H    0.131768
    38  N   -0.602741
    39  H    0.361502
    40  C   -0.061133
    41  H    0.178819
    42  C    0.630773
    43  C   -0.071084
    44  H    0.139504
    45  O   -0.547554
    46  C   -0.499421
    47  H    0.140836
    48  H    0.193845
    49  H    0.166785
    50  C   -0.452343
    51  H    0.158650
    52  H    0.138959
    53  H    0.159607
    54  N   -0.610155
    55  H    0.345062
    56  C   -0.079010
    57  H    0.189253
    58  C    0.676924
    59  C   -0.076305
    60  H    0.220813
    61  H    0.134514
    62  O   -0.583343
    63  O   -0.603567
    64  H    0.388393
    65  N   -0.577040
    66  H    0.369652
    67  C   -0.110377
    68  H    0.159669
    69  C    0.651467
    70  C    0.123242
    71  H    0.185603
    72  O   -0.537337
    73  C   -0.485565
    74  H    0.206308
    75  H    0.119313
    76  H    0.167669
    77  O   -0.635903
    78  H    0.394071
    79  N   -0.622283
    80  H    0.380434
    81  C   -0.066986
    82  H    0.196514
    83  C    0.626020
    84  C   -0.296137
    85  H    0.159363
    86  H    0.175207
    87  O   -0.550491
    88  C   -0.393674
    89  H    0.169047
    90  H    0.189664
    91  C    0.598917
    92  N   -0.732519
    93  H    0.345003
    94  H    0.352529
    95  O   -0.520342
    96  N   -0.617414
    97  H    0.389241
    98  C   -0.080536
    99  H    0.175357
   100  C    0.638018
   101  C    0.125805
   102  H    0.143836
   103  O   -0.560195
   104  C   -0.454722
   105  H    0.144649
   106  H    0.145604
   107  H    0.162314
   108  O   -0.644489
   109  H    0.423692
   110  N   -0.609153
   111  H    0.371421
   112  C   -0.056241
   113  H    0.176473
   114  C    0.625847
   115  C   -0.461670
   116  H    0.170917
   117  H    0.142521
   118  H    0.177030
   119  O   -0.533833
   120  N   -0.632218
   121  H    0.382035
   122  C   -0.045309
   123  H    0.165780
   124  C    0.610994
   125  C   -0.258830
   126  H    0.159432
   127  H    0.141205
   128  O   -0.529907
   129  C   -0.091037
   130  H    0.140340
   131  C   -0.440874
   132  H    0.154242
   133  H    0.127466
   134  H    0.141706
   135  C   -0.442578
   136  H    0.141664
   137  H    0.140867
   138  H    0.140485
   139  N   -0.603078
   140  H    0.345935
   141  C   -0.058748
   142  H    0.218845
   143  C    0.589747
   144  C   -0.441664
   145  H    0.181731
   146  H    0.173643
   147  H    0.150097
   148  O   -0.452870
   149  O   -0.572178
   150  H    0.417659
 Sum of Mulliken charges =   1.00000

 Dipole moment (field-independent basis, Debye):
    X=            -33.3945    Y=            -24.5399    Z=            -12.0343  Tot=             43.1535
 Quadrupole moment (field-independent basis, Debye-Ang):
   XX=           -137.8205   YY=           -189.3398   ZZ=           -349.4344
   XY=            271.4454   XZ=            104.3629   YZ=             69.1479

 Normal termination of Gaussian 16 at Mon Jul 18 20:42:55 2022.
