 Gaussian 16, Revision C.01,
 Gaussian 16:  ES64L-G16RevC.01  3-Jul-2019

 ----------------------------------------------------------------------
 # B3LYP/6-31G* empiricaldispersion=gd3 guess=read geom=check nosymm in
 tegral(ultrafinegrid)
 ----------------------------------------------------------------------

 ------------------------------------------------------
 Candidate Structure: Conf:817 Charge calc in gas phase
 ------------------------------------------------------
 Structure from the checkpoint file:  "conf-817.chk"
 Charge =  1 Multiplicity = 1

                          Input orientation:
 ---------------------------------------------------------------------
 Center     Atomic      Atomic             Coordinates (Angstroms)
 Number     Number       Type             X           Y           Z
 ---------------------------------------------------------------------
      1          7           0       -7.773823   -3.232739   -8.248279
      2          1           0       -8.046296   -3.206713   -9.236599
      3          1           0       -8.491454   -3.740381   -7.721787
      4          1           0       -6.841386   -3.715980   -8.179997
      5          6           0       -7.479298   -1.856554   -7.673945
      6          1           0       -8.096852   -1.126569   -8.199844
      7          6           0       -5.968063   -1.696160   -7.948486
      8          6           0       -7.767465   -1.885648   -6.160178
      9          1           0       -7.168683   -2.695478   -5.721867
     10          1           0       -8.828544   -2.139909   -6.020745
     11          8           0       -5.297108   -2.734793   -8.025374
     12          6           0       -7.472817   -0.572178   -5.403116
     13          1           0       -6.411377   -0.326194   -5.518026
     14          6           0       -8.307104    0.604793   -5.929904
     15          1           0       -9.381052    0.401140   -5.836235
     16          1           0       -8.109804    0.841859   -6.984669
     17          1           0       -8.088363    1.510786   -5.357254
     18          6           0       -7.728859   -0.793881   -3.904927
     19          1           0       -8.780868   -1.036911   -3.711603
     20          1           0       -7.112986   -1.610325   -3.510226
     21          1           0       -7.486466    0.111900   -3.340761
     22          7           0       -5.482293   -0.454847   -8.039559
     23          1           0       -6.096506    0.329190   -7.847714
     24          6           0       -4.032937   -0.184396   -7.912606
     25          1           0       -3.520493   -1.026787   -8.384568
     26          6           0       -3.797808   -0.160242   -6.390925
     27          6           0       -3.624088    1.126546   -8.598686
     28          1           0       -4.129124    1.943190   -8.064510
     29          8           0       -4.200502    0.799668   -5.717714
     30          6           0       -2.105834    1.320725   -8.456210
     31          1           0       -1.562051    0.493850   -8.930539
     32          1           0       -1.789791    1.404425   -7.412507
     33          1           0       -1.801544    2.246608   -8.952916
     34          6           0       -4.049770    1.137830  -10.072751
     35          1           0       -3.563683    0.325117  -10.626651
     36          1           0       -3.753758    2.081688  -10.540279
     37          1           0       -5.133276    1.029992  -10.197629
     38          7           0       -3.286287   -1.283972   -5.858319
     39          1           0       -2.922316   -1.999650   -6.474697
     40          6           0       -3.089875   -1.467780   -4.411885
     41          1           0       -3.948312   -0.997053   -3.918205
     42          6           0       -1.797828   -0.711901   -4.052410
     43          6           0       -3.038561   -2.956016   -4.039242
     44          1           0       -2.184751   -3.395790   -4.572119
     45          8           0       -0.694803   -1.250921   -4.098518
     46          6           0       -2.787824   -3.116467   -2.531331
     47          1           0       -3.569536   -2.610802   -1.948552
     48          1           0       -1.814786   -2.718036   -2.231569
     49          1           0       -2.808241   -4.176496   -2.258500
     50          6           0       -4.332749   -3.668394   -4.464948
     51          1           0       -5.194459   -3.248422   -3.926524
     52          1           0       -4.527932   -3.580537   -5.540556
     53          1           0       -4.278272   -4.733594   -4.218493
     54          7           0       -1.987020    0.593096   -3.749172
     55          1           0       -2.932320    0.949101   -3.809087
     56          6           0       -0.894329    1.566190   -3.713354
     57          1           0       -0.128698    1.214379   -4.416221
     58          6           0       -0.244687    1.655120   -2.320460
     59          6           0       -1.416087    2.929469   -4.187774
     60          1           0       -0.586842    3.637444   -4.194381
     61          1           0       -2.160682    3.310928   -3.472461
     62          8           0        0.054184    2.739107   -1.814121
     63          8           0       -1.934028    2.867361   -5.509491
     64          1           0       -2.787246    2.401916   -5.499753
     65          7           0       -0.035880    0.461786   -1.720684
     66          1           0       -0.103523   -0.401725   -2.255610
     67          6           0        0.523622    0.347387   -0.382296
     68          1           0        0.191077    1.214627    0.197302
     69          6           0        2.058093    0.364945   -0.460678
     70          6           0        0.025223   -0.955611    0.272177
     71          1           0        0.571391   -1.063927    1.220404
     72          8           0        2.731171   -0.667620   -0.311251
     73          6           0       -1.474431   -0.933720    0.530718
     74          1           0       -1.737843   -0.138943    1.236778
     75          1           0       -2.020610   -0.765166   -0.403372
     76          1           0       -1.788726   -1.895395    0.946412
     77          8           0        0.298674   -2.059575   -0.587055
     78          1           0        1.273209   -2.096187   -0.648994
     79          7           0        2.598083    1.570320   -0.719825
     80          1           0        1.968798    2.356688   -0.865276
     81          6           0        4.044352    1.780069   -0.844822
     82          1           0        4.462670    0.859174   -1.268389
     83          6           0        4.627170    1.972229    0.573999
     84          6           0        4.327625    2.966122   -1.762309
     85          1           0        3.949258    3.881474   -1.293114
     86          1           0        3.787421    2.827713   -2.703634
     87          8           0        5.080347    3.055896    0.957586
     88          6           0        5.817088    3.136161   -2.071616
     89          1           0        6.238948    2.183478   -2.423700
     90          1           0        6.362167    3.415363   -1.164983
     91          6           0        6.026715    4.154558   -3.193764
     92          7           0        7.185443    4.872669   -3.115597
     93          1           0        7.768124    4.867539   -2.292164
     94          1           0        7.350980    5.582565   -3.815706
     95          8           0        5.235163    4.283306   -4.118147
     96          7           0        4.563489    0.871749    1.356781
     97          1           0        4.085431    0.052955    0.985661
     98          6           0        4.741630    0.954501    2.806886
     99          1           0        4.403099    1.949663    3.122139
    100          6           0        6.238507    0.809125    3.160919
    101          6           0        3.886086   -0.106667    3.506480
    102          1           0        4.299187   -1.096129    3.262589
    103          8           0        6.688558   -0.175885    3.752219
    104          6           0        3.872135    0.082301    5.021320
    105          1           0        4.877774   -0.024018    5.434048
    106          1           0        3.473608    1.070502    5.274757
    107          1           0        3.232770   -0.675566    5.490605
    108          8           0        2.563915    0.031870    2.957515
    109          1           0        2.007217   -0.626280    3.400960
    110          7           0        6.995175    1.849684    2.749017
    111          1           0        6.531931    2.605474    2.245881
    112          6           0        8.453515    1.871708    2.888079
    113          1           0        8.797124    0.834243    2.806510
    114          6           0        8.812040    2.406144    4.295342
    115          6           0        9.070275    2.734376    1.793784
    116          1           0       10.160468    2.718938    1.871249
    117          1           0        8.776365    2.361125    0.807040
    118          1           0        8.750261    3.774634    1.904638
    119          8           0        9.270791    3.533445    4.463937
    120          7           0        8.529341    1.532186    5.293999
    121          1           0        8.125367    0.627273    5.062115
    122          6           0        8.605553    1.886409    6.699569
    123          1           0        9.162640    2.824373    6.758969
    124          6           0        9.336870    0.759282    7.437224
    125          6           0        7.202459    2.045121    7.330066
    126          1           0        6.724841    1.056122    7.316338
    127          1           0        7.330301    2.318323    8.387932
    128          8           0        9.083197   -0.420545    7.206016
    129          6           0        6.282457    3.071040    6.645468
    130          1           0        6.168503    2.766606    5.594896
    131          6           0        4.895745    3.037840    7.304995
    132          1           0        4.954366    3.365869    8.351009
    133          1           0        4.468389    2.028223    7.296478
    134          1           0        4.197948    3.706893    6.787273
    135          6           0        6.863427    4.492346    6.669011
    136          1           0        7.059365    4.812570    7.701513
    137          1           0        6.153841    5.205232    6.232122
    138          1           0        7.794345    4.559466    6.099072
    139          7           0       10.228147    1.153194    8.381975
    140          1           0       10.404233    2.132851    8.567276
    141          6           0       10.910306    0.191486    9.229632
    142          1           0       10.181642   -0.551753    9.574708
    143          6           0       11.446429    0.937736   10.439541
    144          6           0       12.041032   -0.548046    8.488680
    145          1           0       12.516342   -1.280387    9.147086
    146          1           0       11.606517   -1.062485    7.628791
    147          1           0       12.796643    0.162281    8.137262
    148          8           0       11.455016    2.144069   10.566843
    149          8           0       11.945255    0.089820   11.361499
    150          1           0       12.294460    0.638202   12.089352
 ---------------------------------------------------------------------

 SCF Done:  E(RB3LYP) =  -3455.69372731     A.U. after    2 cycles

 Alpha  occ. eigenvalues --  -19.29294 -19.24342 -19.23778 -19.21593 -19.20682
 Alpha  occ. eigenvalues --  -19.19554 -19.19534 -19.18741 -19.18510 -19.18284
 Alpha  occ. eigenvalues --  -19.17057 -19.15580 -19.14469 -19.13816 -19.13522
 Alpha  occ. eigenvalues --  -14.62922 -14.52587 -14.48896 -14.45039 -14.42325
 Alpha  occ. eigenvalues --  -14.42079 -14.40332 -14.39238 -14.39222 -14.38877
 Alpha  occ. eigenvalues --  -14.37420 -10.46091 -10.43099 -10.41360 -10.37743
 Alpha  occ. eigenvalues --  -10.36151 -10.36148 -10.35730 -10.35384 -10.35046
 Alpha  occ. eigenvalues --  -10.33622 -10.33589 -10.32704 -10.32508 -10.32374
 Alpha  occ. eigenvalues --  -10.31024 -10.30726 -10.30629 -10.30441 -10.30310
 Alpha  occ. eigenvalues --  -10.30247 -10.29703 -10.29185 -10.29155 -10.28985
 Alpha  occ. eigenvalues --  -10.28590 -10.28518 -10.27585 -10.27571 -10.27517
 Alpha  occ. eigenvalues --  -10.27304 -10.26256 -10.26144 -10.25294 -10.25133
 Alpha  occ. eigenvalues --  -10.23521 -10.23382 -10.23272 -10.21483 -10.21176
 Alpha  occ. eigenvalues --  -10.21172 -10.21060 -10.20999 -10.19785 -10.18621
 Alpha  occ. eigenvalues --   -1.21767  -1.16759  -1.16060  -1.14763  -1.12770
 Alpha  occ. eigenvalues --   -1.10769  -1.09937  -1.08909  -1.08800  -1.08676
 Alpha  occ. eigenvalues --   -1.07296  -1.06964  -1.06613  -1.06340  -1.06198
 Alpha  occ. eigenvalues --   -1.05693  -1.05074  -1.04863  -1.01398  -0.99209
 Alpha  occ. eigenvalues --   -0.98269  -0.97041  -0.96942  -0.95756  -0.95420
 Alpha  occ. eigenvalues --   -0.94187  -0.93744  -0.92707  -0.90483  -0.90086
 Alpha  occ. eigenvalues --   -0.85696  -0.84707  -0.84029  -0.83417  -0.82766
 Alpha  occ. eigenvalues --   -0.82425  -0.81858  -0.81196  -0.80611  -0.79960
 Alpha  occ. eigenvalues --   -0.79688  -0.78458  -0.78047  -0.77291  -0.76560
 Alpha  occ. eigenvalues --   -0.76524  -0.76126  -0.75518  -0.74697  -0.74076
 Alpha  occ. eigenvalues --   -0.72466  -0.70870  -0.70477  -0.70389  -0.70111
 Alpha  occ. eigenvalues --   -0.69287  -0.68876  -0.68410  -0.68026  -0.68001
 Alpha  occ. eigenvalues --   -0.67569  -0.66250  -0.65921  -0.65877  -0.65615
 Alpha  occ. eigenvalues --   -0.65416  -0.64151  -0.63447  -0.63256  -0.62703
 Alpha  occ. eigenvalues --   -0.62358  -0.61699  -0.61430  -0.61216  -0.61196
 Alpha  occ. eigenvalues --   -0.61188  -0.60271  -0.60156  -0.59154  -0.58591
 Alpha  occ. eigenvalues --   -0.58335  -0.57911  -0.57782  -0.57340  -0.57290
 Alpha  occ. eigenvalues --   -0.57087  -0.56920  -0.56481  -0.56284  -0.56125
 Alpha  occ. eigenvalues --   -0.56051  -0.55297  -0.54276  -0.54116  -0.53762
 Alpha  occ. eigenvalues --   -0.53729  -0.53174  -0.53051  -0.52778  -0.52683
 Alpha  occ. eigenvalues --   -0.52281  -0.52102  -0.52042  -0.51593  -0.51178
 Alpha  occ. eigenvalues --   -0.51077  -0.50936  -0.50919  -0.50731  -0.50255
 Alpha  occ. eigenvalues --   -0.49784  -0.49748  -0.49665  -0.49447  -0.49272
 Alpha  occ. eigenvalues --   -0.49138  -0.48901  -0.48830  -0.48358  -0.48182
 Alpha  occ. eigenvalues --   -0.47968  -0.47785  -0.47672  -0.47470  -0.47267
 Alpha  occ. eigenvalues --   -0.47196  -0.46652  -0.46619  -0.46149  -0.46125
 Alpha  occ. eigenvalues --   -0.45929  -0.45742  -0.45502  -0.45390  -0.45091
 Alpha  occ. eigenvalues --   -0.44904  -0.44835  -0.44616  -0.44351  -0.44302
 Alpha  occ. eigenvalues --   -0.44189  -0.44003  -0.43707  -0.43632  -0.43534
 Alpha  occ. eigenvalues --   -0.43382  -0.43281  -0.43129  -0.42933  -0.42857
 Alpha  occ. eigenvalues --   -0.42654  -0.42579  -0.42387  -0.42279  -0.42242
 Alpha  occ. eigenvalues --   -0.42059  -0.41778  -0.41401  -0.41314  -0.41068
 Alpha  occ. eigenvalues --   -0.40699  -0.40657  -0.40459  -0.40212  -0.40066
 Alpha  occ. eigenvalues --   -0.39986  -0.39777  -0.39658  -0.38967  -0.38898
 Alpha  occ. eigenvalues --   -0.38823  -0.38561  -0.38423  -0.37753  -0.37740
 Alpha  occ. eigenvalues --   -0.37370  -0.35934  -0.35898  -0.34855  -0.34782
 Alpha  occ. eigenvalues --   -0.34637  -0.34599  -0.34308  -0.33937  -0.33371
 Alpha  occ. eigenvalues --   -0.32821  -0.32060  -0.31851  -0.31779  -0.31464
 Alpha  occ. eigenvalues --   -0.30558  -0.30265  -0.30203  -0.29708  -0.28613
 Alpha  occ. eigenvalues --   -0.28359  -0.28270  -0.28074  -0.26410  -0.26279
 Alpha virt. eigenvalues --   -0.15567  -0.13124  -0.10867  -0.08468  -0.07971
 Alpha virt. eigenvalues --   -0.07324  -0.05684  -0.05548  -0.04347  -0.04156
 Alpha virt. eigenvalues --   -0.03775  -0.03064  -0.03051  -0.02800  -0.01973

 Mulliken charges:
               1
     1  N   -0.745730
     2  H    0.423036
     3  H    0.419321
     4  H    0.432644
     5  C   -0.127582
     6  H    0.215532
     7  C    0.657280
     8  C   -0.288956
     9  H    0.181800
    10  H    0.167189
    11  O   -0.536937
    12  C   -0.122682
    13  H    0.174837
    14  C   -0.462987
    15  H    0.165380
    16  H    0.122580
    17  H    0.192933
    18  C   -0.459051
    19  H    0.160333
    20  H    0.161716
    21  H    0.178082
    22  N   -0.592808
    23  H    0.368094
    24  C   -0.051980
    25  H    0.183849
    26  C    0.648345
    27  C   -0.112526
    28  H    0.157442
    29  O   -0.577008
    30  C   -0.476762
    31  H    0.145961
    32  H    0.188917
    33  H    0.179852
    34  C   -0.449294
    35  H    0.155757
    36  H    0.180584
    37  H    0.130072
    38  N   -0.588841
    39  H    0.358940
    40  C   -0.050781
    41  H    0.161151
    42  C    0.631980
    43  C   -0.102573
    44  H    0.163920
    45  O   -0.529336
    46  C   -0.481009
    47  H    0.135921
    48  H    0.214521
    49  H    0.161661
    50  C   -0.479145
    51  H    0.139509
    52  H    0.138379
    53  H    0.170589
    54  N   -0.601220
    55  H    0.344923
    56  C   -0.082605
    57  H    0.205965
    58  C    0.634780
    59  C   -0.068568
    60  H    0.197969
    61  H    0.143061
    62  O   -0.543969
    63  O   -0.632088
    64  H    0.413551
    65  N   -0.616921
    66  H    0.383959
    67  C   -0.082955
    68  H    0.184475
    69  C    0.663127
    70  C    0.122848
    71  H    0.142483
    72  O   -0.577036
    73  C   -0.455201
    74  H    0.150072
    75  H    0.142751
    76  H    0.164348
    77  O   -0.648247
    78  H    0.421852
    79  N   -0.617698
    80  H    0.376095
    81  C   -0.066253
    82  H    0.181594
    83  C    0.637356
    84  C   -0.275372
    85  H    0.167201
    86  H    0.176094
    87  O   -0.550221
    88  C   -0.381931
    89  H    0.168742
    90  H    0.171632
    91  C    0.602979
    92  N   -0.747433
    93  H    0.340052
    94  H    0.343712
    95  O   -0.511541
    96  N   -0.616773
    97  H    0.389272
    98  C   -0.065770
    99  H    0.182494
   100  C    0.642357
   101  C    0.120613
   102  H    0.150696
   103  O   -0.547548
   104  C   -0.488912
   105  H    0.195280
   106  H    0.160355
   107  H    0.138720
   108  O   -0.646660
   109  H    0.397044
   110  N   -0.619209
   111  H    0.377736
   112  C   -0.055135
   113  H    0.176699
   114  C    0.623716
   115  C   -0.462525
   116  H    0.170349
   117  H    0.140245
   118  H    0.172876
   119  O   -0.530151
   120  N   -0.606262
   121  H    0.375205
   122  C   -0.075501
   123  H    0.174365
   124  C    0.634566
   125  C   -0.262222
   126  H    0.151650
   127  H    0.134169
   128  O   -0.539915
   129  C   -0.072519
   130  H    0.125983
   131  C   -0.448645
   132  H    0.141357
   133  H    0.141008
   134  H    0.138257
   135  C   -0.470654
   136  H    0.130896
   137  H    0.136604
   138  H    0.189857
   139  N   -0.620359
   140  H    0.351965
   141  C   -0.015890
   142  H    0.195525
   143  C    0.577254
   144  C   -0.453375
   145  H    0.167697
   146  H    0.195056
   147  H    0.154894
   148  O   -0.467642
   149  O   -0.562585
   150  H    0.419016
 Sum of Mulliken charges =   1.00000

 Dipole moment (field-independent basis, Debye):
    X=            -35.4221    Y=            -11.2797    Z=            -33.5247  Tot=             50.0586
 Quadrupole moment (field-independent basis, Debye-Ang):
   XX=           -104.1130   YY=           -401.4925   ZZ=            -86.7157
   XY=             86.2972   XZ=            296.6515   YZ=             78.8725

 Normal termination of Gaussian 16 at Mon Jul 18 20:49:15 2022.
