 Gaussian 16, Revision C.01,
 Gaussian 16:  ES64L-G16RevC.01  3-Jul-2019

 ----------------------------------------------------------------------
 # B3LYP/6-31G* empiricaldispersion=gd3 guess=read geom=check nosymm in
 tegral(ultrafinegrid)
 ----------------------------------------------------------------------

 ------------------------------------------------------
 Candidate Structure: Conf:304 Charge calc in gas phase
 ------------------------------------------------------
 Structure from the checkpoint file:  "conf-304.chk"
 Charge =  1 Multiplicity = 1

                          Input orientation:
 ---------------------------------------------------------------------
 Center     Atomic      Atomic             Coordinates (Angstroms)
 Number     Number       Type             X           Y           Z
 ---------------------------------------------------------------------
      1          7           0      -10.012496   -5.189757   -8.941511
      2          1           0      -10.548409   -4.916448   -9.769177
      3          1           0      -10.464717   -6.003044   -8.515031
      4          1           0       -9.006917   -5.406472   -9.231005
      5          6           0       -9.796501   -4.053751   -7.960537
      6          1           0      -10.450809   -3.227899   -8.245198
      7          6           0       -8.303061   -3.695799   -8.186929
      8          6           0      -10.057770   -4.513196   -6.519307
      9          1           0       -9.769982   -3.685421   -5.859479
     10          1           0       -9.364467   -5.334841   -6.290229
     11          8           0       -7.623275   -4.475944   -8.873146
     12          6           0      -11.508311   -4.930699   -6.199311
     13          1           0      -11.791471   -5.776075   -6.851526
     14          6           0      -11.578665   -5.435084   -4.749834
     15          1           0      -11.323062   -4.631319   -4.049104
     16          1           0      -10.886644   -6.266872   -4.577055
     17          1           0      -12.588935   -5.780166   -4.509440
     18          6           0      -12.508231   -3.789731   -6.434929
     19          1           0      -12.249059   -2.915928   -5.824726
     20          1           0      -12.551709   -3.468189   -7.483027
     21          1           0      -13.518739   -4.102069   -6.154333
     22          7           0       -7.879850   -2.589582   -7.594769
     23          1           0       -8.481764   -2.068751   -6.954715
     24          6           0       -6.477131   -2.189781   -7.440120
     25          1           0       -5.847203   -3.063295   -7.635989
     26          6           0       -6.392474   -1.742813   -5.966373
     27          6           0       -6.102825   -1.041663   -8.418678
     28          1           0       -6.803188   -0.219356   -8.214694
     29          8           0       -7.397088   -1.269041   -5.423860
     30          6           0       -4.670544   -0.531803   -8.187800
     31          1           0       -3.939818   -1.348183   -8.252141
     32          1           0       -4.535543   -0.035631   -7.223525
     33          1           0       -4.411283    0.194720   -8.964505
     34          6           0       -6.288489   -1.502074   -9.871606
     35          1           0       -5.617826   -2.336878  -10.106389
     36          1           0       -6.059905   -0.681135  -10.558838
     37          1           0       -7.314114   -1.828363  -10.072170
     38          7           0       -5.200963   -1.903716   -5.372685
     39          1           0       -4.395708   -2.195856   -5.920564
     40          6           0       -4.826658   -1.244552   -4.121297
     41          1           0       -5.609295   -0.515882   -3.886778
     42          6           0       -3.489603   -0.555842   -4.443878
     43          6           0       -4.688593   -2.244963   -2.946300
     44          1           0       -3.898952   -2.955662   -3.227758
     45          8           0       -2.678115   -1.116477   -5.180638
     46          6           0       -4.268111   -1.527626   -1.654517
     47          1           0       -4.999450   -0.753006   -1.384228
     48          1           0       -3.282592   -1.058338   -1.718166
     49          1           0       -4.230034   -2.239243   -0.823513
     50          6           0       -6.001426   -3.014161   -2.746731
     51          1           0       -6.819160   -2.329282   -2.491922
     52          1           0       -6.290039   -3.560504   -3.650641
     53          1           0       -5.896616   -3.737534   -1.931035
     54          7           0       -3.304464    0.660075   -3.890174
     55          1           0       -3.969467    1.023768   -3.218534
     56          6           0       -2.077567    1.426888   -4.047795
     57          1           0       -1.374251    0.793172   -4.592467
     58          6           0       -1.600843    1.767933   -2.633259
     59          6           0       -2.334073    2.706920   -4.847761
     60          1           0       -1.387134    3.264435   -4.930597
     61          1           0       -3.047546    3.331942   -4.290181
     62          8           0       -2.379361    2.337656   -1.857355
     63          8           0       -2.836005    2.318936   -6.118101
     64          1           0       -3.021516    3.124455   -6.623568
     65          7           0       -0.350986    1.397563   -2.310278
     66          1           0        0.237767    0.877408   -2.952217
     67          6           0        0.190939    1.563091   -0.972104
     68          1           0       -0.159816    2.524656   -0.580787
     69          6           0        1.717635    1.533741   -1.107540
     70          6           0       -0.289562    0.422569   -0.013297
     71          1           0        0.222323   -0.499418   -0.315024
     72          8           0        2.245268    0.859316   -1.996508
     73          6           0        0.017176    0.732013    1.453317
     74          1           0        1.089580    0.805198    1.658056
     75          1           0       -0.455820    1.676093    1.753558
     76          1           0       -0.399097   -0.065080    2.075243
     77          8           0       -1.673779    0.155210   -0.197076
     78          1           0       -2.142810    1.005951   -0.270358
     79          7           0        2.404035    2.242026   -0.190805
     80          1           0        1.924176    2.666557    0.599685
     81          6           0        3.825523    2.029007    0.042657
     82          1           0        4.030988    0.958665   -0.071490
     83          6           0        4.068077    2.349326    1.530089
     84          6           0        4.740158    2.814099   -0.941721
     85          1           0        5.533584    3.328758   -0.391722
     86          1           0        4.131282    3.585672   -1.422260
     87          8           0        3.135373    2.696354    2.270812
     88          6           0        5.366136    1.921947   -2.019222
     89          1           0        5.843826    2.537952   -2.791860
     90          1           0        4.577733    1.337410   -2.510035
     91          6           0        6.400862    0.956796   -1.445452
     92          7           0        7.127812    0.259621   -2.353294
     93          1           0        6.986461    0.353009   -3.347692
     94          1           0        7.805888   -0.410439   -2.015979
     95          8           0        6.570073    0.796501   -0.234610
     96          7           0        5.338282    2.192049    1.929239
     97          1           0        6.009950    1.789294    1.269605
     98          6           0        5.720326    2.228487    3.324791
     99          1           0        5.097844    2.973881    3.834270
    100          6           0        7.198059    2.623586    3.387318
    101          6           0        5.468999    0.834514    3.989102
    102          1           0        6.129186    0.115428    3.492656
    103          8           0        7.948484    2.434173    2.429325
    104          6           0        5.734983    0.805208    5.496698
    105          1           0        6.798319    0.892689    5.743522
    106          1           0        5.179754    1.601604    6.012087
    107          1           0        5.376158   -0.150652    5.887850
    108          8           0        4.151011    0.390665    3.697371
    109          1           0        3.544108    1.148063    3.763835
    110          7           0        7.631400    3.149028    4.562050
    111          1           0        6.998741    3.164825    5.351329
    112          6           0        9.065813    3.249774    4.859240
    113          1           0        9.540610    3.682344    3.974124
    114          6           0        9.611350    1.823228    5.101184
    115          6           0        9.294126    4.135586    6.077704
    116          1           0       10.366280    4.260148    6.254698
    117          1           0        8.846870    5.122081    5.922638
    118          1           0        8.866154    3.669538    6.970400
    119          8           0        9.583581    1.314184    6.227860
    120          7           0       10.069897    1.187898    4.001634
    121          1           0        9.903549    1.631561    3.105234
    122          6           0       10.498680   -0.218342    4.003371
    123          1           0        9.879895   -0.739747    4.742619
    124          6           0       11.972617   -0.315799    4.475218
    125          6           0       10.330758   -0.836967    2.613860
    126          1           0       10.952789   -0.268600    1.910430
    127          1           0       10.776649   -1.837874    2.648237
    128          8           0       12.881357   -0.654052    3.726136
    129          6           0        8.885077   -0.932820    2.090630
    130          1           0        8.442827    0.070913    2.062910
    131          6           0        8.890059   -1.463019    0.648977
    132          1           0        9.306790   -2.477701    0.602999
    133          1           0        9.496423   -0.820065   -0.001943
    134          1           0        7.870421   -1.484076    0.250954
    135          6           0        8.008092   -1.824791    2.981842
    136          1           0        8.428756   -2.836242    3.056518
    137          1           0        6.996700   -1.914877    2.568484
    138          1           0        7.913863   -1.430454    4.000469
    139          7           0       12.143543    0.021060    5.782435
    140          1           0       11.323632    0.301238    6.315314
    141          6           0       13.443019    0.035658    6.420813
    142          1           0       14.158593   -0.265800    5.645852
    143          6           0       13.568456   -1.011757    7.529565
    144          6           0       13.809767    1.427446    6.948713
    145          1           0       14.777226    1.399536    7.454890
    146          1           0       13.853354    2.135692    6.116367
    147          1           0       13.059068    1.778513    7.666167
    148          8           0       14.377178   -0.953619    8.429295
    149          8           0       12.701611   -2.040241    7.384628
    150          1           0       12.899834   -2.659156    8.112818
 ---------------------------------------------------------------------

 SCF Done:  E(RB3LYP) =  -3455.69098207     A.U. after    3 cycles

 Alpha  occ. eigenvalues --  -19.26755 -19.22238 -19.21388 -19.21186 -19.19054
 Alpha  occ. eigenvalues --  -19.18697 -19.18445 -19.18051 -19.17975 -19.17803
 Alpha  occ. eigenvalues --  -19.17595 -19.17358 -19.16467 -19.16351 -19.13851
 Alpha  occ. eigenvalues --  -14.59902 -14.49155 -14.44767 -14.43438 -14.42967
 Alpha  occ. eigenvalues --  -14.42228 -14.41619 -14.41401 -14.40519 -14.40162
 Alpha  occ. eigenvalues --  -14.37827 -10.43358 -10.40581 -10.38180 -10.35924
 Alpha  occ. eigenvalues --  -10.35749 -10.35033 -10.34952 -10.34784 -10.34426
 Alpha  occ. eigenvalues --  -10.34195 -10.33719 -10.33459 -10.33275 -10.32299
 Alpha  occ. eigenvalues --  -10.30980 -10.30613 -10.30350 -10.30077 -10.29554
 Alpha  occ. eigenvalues --  -10.29479 -10.29102 -10.28800 -10.28700 -10.28677
 Alpha  occ. eigenvalues --  -10.28673 -10.28623 -10.28199 -10.26487 -10.26309
 Alpha  occ. eigenvalues --  -10.26240 -10.25946 -10.25167 -10.24760 -10.24567
 Alpha  occ. eigenvalues --  -10.23918 -10.23058 -10.22984 -10.22331 -10.22081
 Alpha  occ. eigenvalues --  -10.21625 -10.21290 -10.20756 -10.20394 -10.20223
 Alpha  occ. eigenvalues --   -1.19168  -1.13838  -1.13070  -1.13063  -1.11163
 Alpha  occ. eigenvalues --   -1.10483  -1.10073  -1.09714  -1.09144  -1.08814
 Alpha  occ. eigenvalues --   -1.08615  -1.08023  -1.06551  -1.05928  -1.05641
 Alpha  occ. eigenvalues --   -1.05609  -1.03954  -1.01420  -0.99749  -0.99155
 Alpha  occ. eigenvalues --   -0.98514  -0.98372  -0.97449  -0.96798  -0.96094
 Alpha  occ. eigenvalues --   -0.95187  -0.94802  -0.90896  -0.88526  -0.87434
 Alpha  occ. eigenvalues --   -0.85879  -0.84502  -0.84178  -0.83348  -0.82359
 Alpha  occ. eigenvalues --   -0.82122  -0.81104  -0.80287  -0.80260  -0.79242
 Alpha  occ. eigenvalues --   -0.78445  -0.77755  -0.77350  -0.76556  -0.76448
 Alpha  occ. eigenvalues --   -0.74806  -0.74481  -0.73938  -0.72970  -0.71680
 Alpha  occ. eigenvalues --   -0.71277  -0.70879  -0.70462  -0.70133  -0.69786
 Alpha  occ. eigenvalues --   -0.69369  -0.67941  -0.67732  -0.67210  -0.66835
 Alpha  occ. eigenvalues --   -0.66293  -0.66052  -0.65740  -0.65605  -0.65134
 Alpha  occ. eigenvalues --   -0.64451  -0.63982  -0.63393  -0.63229  -0.63057
 Alpha  occ. eigenvalues --   -0.62742  -0.62307  -0.61909  -0.60956  -0.60173
 Alpha  occ. eigenvalues --   -0.59541  -0.59436  -0.59261  -0.58790  -0.58503
 Alpha  occ. eigenvalues --   -0.57514  -0.57398  -0.56648  -0.56204  -0.55978
 Alpha  occ. eigenvalues --   -0.55770  -0.55576  -0.55405  -0.55078  -0.54958
 Alpha  occ. eigenvalues --   -0.54715  -0.54400  -0.53913  -0.53832  -0.53393
 Alpha  occ. eigenvalues --   -0.53116  -0.52820  -0.52583  -0.52414  -0.52079
 Alpha  occ. eigenvalues --   -0.51885  -0.51702  -0.51412  -0.51325  -0.51202
 Alpha  occ. eigenvalues --   -0.50829  -0.50593  -0.49905  -0.49834  -0.49741
 Alpha  occ. eigenvalues --   -0.49704  -0.49547  -0.49337  -0.49028  -0.48607
 Alpha  occ. eigenvalues --   -0.48332  -0.48284  -0.47739  -0.47614  -0.47370
 Alpha  occ. eigenvalues --   -0.47237  -0.47086  -0.47041  -0.46801  -0.46667
 Alpha  occ. eigenvalues --   -0.46378  -0.46204  -0.45965  -0.45852  -0.45707
 Alpha  occ. eigenvalues --   -0.45631  -0.45566  -0.45427  -0.45245  -0.45159
 Alpha  occ. eigenvalues --   -0.45039  -0.44902  -0.44761  -0.44484  -0.44425
 Alpha  occ. eigenvalues --   -0.44180  -0.44037  -0.43636  -0.43512  -0.43409
 Alpha  occ. eigenvalues --   -0.43307  -0.43082  -0.42998  -0.42724  -0.42528
 Alpha  occ. eigenvalues --   -0.42296  -0.42179  -0.42045  -0.41825  -0.41763
 Alpha  occ. eigenvalues --   -0.41725  -0.41459  -0.41148  -0.41110  -0.40916
 Alpha  occ. eigenvalues --   -0.40782  -0.40740  -0.40620  -0.40402  -0.40283
 Alpha  occ. eigenvalues --   -0.40029  -0.39716  -0.39660  -0.39339  -0.38958
 Alpha  occ. eigenvalues --   -0.38569  -0.38521  -0.38333  -0.37283  -0.35544
 Alpha  occ. eigenvalues --   -0.35456  -0.35268  -0.35216  -0.34700  -0.34213
 Alpha  occ. eigenvalues --   -0.34109  -0.33901  -0.33214  -0.32940  -0.32706
 Alpha  occ. eigenvalues --   -0.32598  -0.32249  -0.32137  -0.31823  -0.31472
 Alpha  occ. eigenvalues --   -0.31380  -0.31356  -0.31156  -0.31071  -0.30745
 Alpha  occ. eigenvalues --   -0.30594  -0.29651  -0.29083  -0.26979  -0.26803
 Alpha virt. eigenvalues --   -0.11878  -0.11432  -0.07287  -0.06744  -0.05766
 Alpha virt. eigenvalues --   -0.04515  -0.04443  -0.04065  -0.03608  -0.03188
 Alpha virt. eigenvalues --   -0.02924  -0.02580  -0.02239  -0.01642  -0.01256

 Mulliken charges:
               1
     1  N   -0.758436
     2  H    0.415445
     3  H    0.412315
     4  H    0.433364
     5  C   -0.119293
     6  H    0.216044
     7  C    0.652836
     8  C   -0.298835
     9  H    0.199647
    10  H    0.173528
    11  O   -0.543066
    12  C   -0.098240
    13  H    0.112744
    14  C   -0.448000
    15  H    0.168540
    16  H    0.159242
    17  H    0.174621
    18  C   -0.454749
    19  H    0.170184
    20  H    0.131185
    21  H    0.183822
    22  N   -0.591267
    23  H    0.368997
    24  C   -0.079981
    25  H    0.184236
    26  C    0.627678
    27  C   -0.072360
    28  H    0.145111
    29  O   -0.555274
    30  C   -0.477189
    31  H    0.155203
    32  H    0.187225
    33  H    0.163428
    34  C   -0.444540
    35  H    0.161679
    36  H    0.165179
    37  H    0.130632
    38  N   -0.598858
    39  H    0.362079
    40  C   -0.063516
    41  H    0.171994
    42  C    0.638122
    43  C   -0.072141
    44  H    0.145601
    45  O   -0.545285
    46  C   -0.480716
    47  H    0.135225
    48  H    0.189942
    49  H    0.162090
    50  C   -0.443868
    51  H    0.152521
    52  H    0.133351
    53  H    0.154742
    54  N   -0.586553
    55  H    0.349638
    56  C   -0.077008
    57  H    0.194909
    58  C    0.643582
    59  C   -0.026154
    60  H    0.140882
    61  H    0.148432
    62  O   -0.573634
    63  O   -0.615744
    64  H    0.402603
    65  N   -0.597060
    66  H    0.358248
    67  C   -0.098710
    68  H    0.173503
    69  C    0.613102
    70  C    0.162066
    71  H    0.150435
    72  O   -0.545055
    73  C   -0.477884
    74  H    0.165621
    75  H    0.144555
    76  H    0.172778
    77  O   -0.635754
    78  H    0.411534
    79  N   -0.616387
    80  H    0.362883
    81  C   -0.037477
    82  H    0.202870
    83  C    0.608096
    84  C   -0.277999
    85  H    0.175142
    86  H    0.160356
    87  O   -0.579956
    88  C   -0.393342
    89  H    0.162001
    90  H    0.214652
    91  C    0.620112
    92  N   -0.749481
    93  H    0.346548
    94  H    0.362244
    95  O   -0.524270
    96  N   -0.613092
    97  H    0.423185
    98  C   -0.127205
    99  H    0.169971
   100  C    0.634665
   101  C    0.160420
   102  H    0.163822
   103  O   -0.532926
   104  C   -0.497368
   105  H    0.168704
   106  H    0.133502
   107  H    0.179887
   108  O   -0.634916
   109  H    0.407718
   110  N   -0.594065
   111  H    0.342704
   112  C   -0.047707
   113  H    0.176847
   114  C    0.631345
   115  C   -0.471994
   116  H    0.173714
   117  H    0.160820
   118  H    0.177700
   119  O   -0.562580
   120  N   -0.593912
   121  H    0.366217
   122  C   -0.076649
   123  H    0.178246
   124  C    0.627343
   125  C   -0.282735
   126  H    0.151191
   127  H    0.159889
   128  O   -0.521345
   129  C   -0.101702
   130  H    0.162443
   131  C   -0.449713
   132  H    0.136945
   133  H    0.131637
   134  H    0.150607
   135  C   -0.460125
   136  H    0.142327
   137  H    0.153665
   138  H    0.144453
   139  N   -0.614538
   140  H    0.368597
   141  C   -0.058945
   142  H    0.215210
   143  C    0.588539
   144  C   -0.444752
   145  H    0.182030
   146  H    0.154177
   147  H    0.151574
   148  O   -0.463099
   149  O   -0.559544
   150  H    0.411555
 Sum of Mulliken charges =   1.00000

 Dipole moment (field-independent basis, Debye):
    X=            -37.5636    Y=            -11.3656    Z=            -34.6911  Tot=             52.3801
 Quadrupole moment (field-independent basis, Debye-Ang):
   XX=            -39.9178   YY=           -300.1459   ZZ=           -125.5007
   XY=            214.5255   XZ=            299.1020   YZ=            139.1208

 Normal termination of Gaussian 16 at Sat Jul  2 15:28:38 2022.
