 Gaussian 16, Revision C.01,
 Gaussian 16:  ES64L-G16RevC.01  3-Jul-2019

 ----------------------------------------------------------------------
 # B3LYP/6-31G* empiricaldispersion=gd3 guess=read geom=check nosymm in
 tegral(ultrafinegrid)
 ----------------------------------------------------------------------

 ------------------------------------------------------
 Candidate Structure: Conf:304 Charge calc in gas phase
 ------------------------------------------------------
 Structure from the checkpoint file:  "conf-304.chk"
 Charge =  1 Multiplicity = 1

                          Input orientation:
 ---------------------------------------------------------------------
 Center     Atomic      Atomic             Coordinates (Angstroms)
 Number     Number       Type             X           Y           Z
 ---------------------------------------------------------------------
      1          7           0      -10.012896   -5.189830   -8.940956
      2          1           0      -10.548790   -4.916499   -9.768628
      3          1           0      -10.465225   -6.003018   -8.514399
      4          1           0       -9.007385   -5.406727   -9.230474
      5          6           0       -9.796719   -4.053784   -7.960078
      6          1           0      -10.451036   -3.227927   -8.244702
      7          6           0       -8.303294   -3.695906   -8.186658
      8          6           0      -10.057817   -4.513129   -6.518784
      9          1           0       -9.770008   -3.685276   -5.859062
     10          1           0       -9.364443   -5.334713   -6.289701
     11          8           0       -7.623601   -4.476127   -8.872870
     12          6           0      -11.508291   -4.930703   -6.198586
     13          1           0      -11.791402   -5.776287   -6.850557
     14          6           0      -11.578482   -5.434741   -4.748979
     15          1           0      -11.322945   -4.630766   -4.048466
     16          1           0      -10.886334   -6.266389   -4.576039
     17          1           0      -12.588689   -5.779903   -4.508436
     18          6           0      -12.508358   -3.789912   -6.434428
     19          1           0      -12.249200   -2.915892   -5.824530
     20          1           0      -12.551995   -3.468713   -7.482623
     21          1           0      -13.518799   -4.102266   -6.153606
     22          7           0       -7.879995   -2.589652   -7.594622
     23          1           0       -8.481834   -2.068780   -6.954530
     24          6           0       -6.477244   -2.189932   -7.440060
     25          1           0       -5.847380   -3.063486   -7.635960
     26          6           0       -6.392472   -1.742963   -5.966318
     27          6           0       -6.102923   -1.041848   -8.418653
     28          1           0       -6.803216   -0.219490   -8.214635
     29          8           0       -7.397043   -1.269187   -5.423726
     30          6           0       -4.670590   -0.532081   -8.187880
     31          1           0       -3.939928   -1.348520   -8.252212
     32          1           0       -4.535499   -0.035858   -7.223643
     33          1           0       -4.411315    0.194376   -8.964642
     34          6           0       -6.288718   -1.502272   -9.871561
     35          1           0       -5.618146   -2.337145  -10.106364
     36          1           0       -6.060095   -0.681371  -10.558827
     37          1           0       -7.314385   -1.828470  -10.072054
     38          7           0       -5.200913   -1.903855   -5.372726
     39          1           0       -4.395704   -2.196012   -5.920664
     40          6           0       -4.826507   -1.244679   -4.121376
     41          1           0       -5.609129   -0.516011   -3.886798
     42          6           0       -3.489487   -0.555958   -4.444064
     43          6           0       -4.688332   -2.245073   -2.946377
     44          1           0       -3.898724   -2.955784   -3.227902
     45          8           0       -2.678050   -1.116579   -5.180893
     46          6           0       -4.267706   -1.527719   -1.654649
     47          1           0       -4.998971   -0.753039   -1.384330
     48          1           0       -3.282160   -1.058501   -1.718385
     49          1           0       -4.229616   -2.239309   -0.823622
     50          6           0       -6.001152   -3.014258   -2.746670
     51          1           0       -6.818856   -2.329368   -2.491791
     52          1           0       -6.289855   -3.560609   -3.650547
     53          1           0       -5.896270   -3.737623   -1.930976
     54          7           0       -3.304321    0.659957   -3.890367
     55          1           0       -3.969250    1.023620   -3.218636
     56          6           0       -2.077413    1.426740   -4.048016
     57          1           0       -1.374117    0.792999   -4.592685
     58          6           0       -1.600676    1.767786   -2.633486
     59          6           0       -2.333899    2.706765   -4.848003
     60          1           0       -1.386956    3.264274   -4.930831
     61          1           0       -3.047381    3.331797   -4.290445
     62          8           0       -2.379236    2.337396   -1.857536
     63          8           0       -2.835810    2.318764   -6.118346
     64          1           0       -3.021311    3.124276   -6.623828
     65          7           0       -0.350774    1.397546   -2.310549
     66          1           0        0.238041    0.877508   -2.952526
     67          6           0        0.191153    1.563096   -0.972379
     68          1           0       -0.159715    2.524605   -0.581027
     69          6           0        1.717851    1.533940   -1.107832
     70          6           0       -0.289210    0.422481   -0.013612
     71          1           0        0.222770   -0.499438   -0.315387
     72          8           0        2.245556    0.859632   -1.996844
     73          6           0        0.017518    0.731891    1.453011
     74          1           0        1.089920    0.805124    1.657746
     75          1           0       -0.455524    1.675935    1.753293
     76          1           0       -0.398711   -0.065249    2.074907
     77          8           0       -1.673402    0.154979   -0.197391
     78          1           0       -2.142516    1.005675   -0.270681
     79          7           0        2.404174    2.242272   -0.191067
     80          1           0        1.924248    2.666707    0.599433
     81          6           0        3.825675    2.029369    0.042424
     82          1           0        4.031254    0.959073   -0.071921
     83          6           0        4.068157    2.349447    1.529917
     84          6           0        4.740251    2.814748   -0.941782
     85          1           0        5.533598    3.329406   -0.391665
     86          1           0        4.131298    3.586333   -1.422204
     87          8           0        3.135404    2.696279    2.270668
     88          6           0        5.366362    1.922860   -2.019429
     89          1           0        5.843909    2.539051   -2.792006
     90          1           0        4.578040    1.338251   -2.510292
     91          6           0        6.401241    0.957789   -1.445805
     92          7           0        7.128634    0.261193   -2.353733
     93          1           0        6.987623    0.355036   -3.348136
     94          1           0        7.806851   -0.408771   -2.016506
     95          8           0        6.570152    0.797030   -0.234981
     96          7           0        5.338369    2.192222    1.929084
     97          1           0        6.010061    1.789563    1.269424
     98          6           0        5.720366    2.228477    3.324656
     99          1           0        5.097807    2.973758    3.834209
    100          6           0        7.198068    2.623672    3.387289
    101          6           0        5.469134    0.834395    3.988773
    102          1           0        6.129432    0.115441    3.492288
    103          8           0        7.948549    2.434424    2.429310
    104          6           0        5.734990    0.804917    5.496396
    105          1           0        6.798305    0.892309    5.743345
    106          1           0        5.179740    1.601270    6.011832
    107          1           0        5.376082   -0.150972    5.887401
    108          8           0        4.151213    0.390447    3.696875
    109          1           0        3.544232    1.147781    3.763384
    110          7           0        7.631312    3.149016    4.562114
    111          1           0        6.998596    3.164585    5.351354
    112          6           0        9.065703    3.249669    4.859473
    113          1           0        9.540617    3.682319    3.974460
    114          6           0        9.611102    1.823060    5.101310
    115          6           0        9.293921    4.135325    6.078067
    116          1           0       10.366060    4.259825    6.255193
    117          1           0        8.846717    5.121855    5.923072
    118          1           0        8.865828    3.669186    6.970658
    119          8           0        9.582988    1.313817    6.227891
    120          7           0       10.069846    1.187871    4.001765
    121          1           0        9.903833    1.631734    3.105406
    122          6           0       10.498460   -0.218419    4.003340
    123          1           0        9.879390   -0.739903    4.742294
    124          6           0       11.972249   -0.316108    4.475597
    125          6           0       10.330891   -0.836734    2.613648
    126          1           0       10.953192   -0.268276    1.910530
    127          1           0       10.776687   -1.837686    2.647945
    128          8           0       12.881205   -0.654116    3.726665
    129          6           0        8.885364   -0.932360    2.089945
    130          1           0        8.443125    0.071387    2.062474
    131          6           0        8.890778   -1.462025    0.648097
    132          1           0        9.307595   -2.476659    0.601860
    133          1           0        9.497283   -0.818793   -0.002420
    134          1           0        7.871249   -1.483003    0.249799
    135          6           0        8.008094   -1.824666    2.980540
    136          1           0        8.428611   -2.836211    3.054781
    137          1           0        6.996767   -1.914400    2.566948
    138          1           0        7.913731   -1.430840    3.999352
    139          7           0       12.142783    0.020229    5.782996
    140          1           0       11.322748    0.300441    6.315668
    141          6           0       13.442113    0.034841    6.421673
    142          1           0       14.157840   -0.266820    5.646930
    143          6           0       13.567197   -1.012353    7.530658
    144          6           0       13.808894    1.426701    6.949375
    145          1           0       14.776260    1.398805    7.455731
    146          1           0       13.852697    2.134777    6.116895
    147          1           0       13.058095    1.777973    7.666623
    148          8           0       14.375797   -0.954155    8.430495
    149          8           0       12.700175   -2.040705    7.385841
    150          1           0       12.898177   -2.659478    8.114214
 ---------------------------------------------------------------------

 SCF Done:  E(RB3LYP) =  -3455.69098209     A.U. after    1 cycles

 Alpha  occ. eigenvalues --  -19.26754 -19.22239 -19.21388 -19.21185 -19.19054
 Alpha  occ. eigenvalues --  -19.18696 -19.18445 -19.18051 -19.17974 -19.17803
 Alpha  occ. eigenvalues --  -19.17595 -19.17358 -19.16468 -19.16351 -19.13852
 Alpha  occ. eigenvalues --  -14.59903 -14.49155 -14.44767 -14.43438 -14.42968
 Alpha  occ. eigenvalues --  -14.42228 -14.41619 -14.41401 -14.40520 -14.40162
 Alpha  occ. eigenvalues --  -14.37827 -10.43357 -10.40581 -10.38179 -10.35923
 Alpha  occ. eigenvalues --  -10.35749 -10.35033 -10.34953 -10.34784 -10.34427
 Alpha  occ. eigenvalues --  -10.34195 -10.33719 -10.33459 -10.33276 -10.32299
 Alpha  occ. eigenvalues --  -10.30980 -10.30613 -10.30350 -10.30077 -10.29554
 Alpha  occ. eigenvalues --  -10.29479 -10.29102 -10.28799 -10.28700 -10.28677
 Alpha  occ. eigenvalues --  -10.28673 -10.28623 -10.28199 -10.26488 -10.26309
 Alpha  occ. eigenvalues --  -10.26239 -10.25946 -10.25167 -10.24761 -10.24567
 Alpha  occ. eigenvalues --  -10.23917 -10.23057 -10.22984 -10.22330 -10.22081
 Alpha  occ. eigenvalues --  -10.21625 -10.21291 -10.20756 -10.20394 -10.20223
 Alpha  occ. eigenvalues --   -1.19168  -1.13839  -1.13070  -1.13063  -1.11163
 Alpha  occ. eigenvalues --   -1.10483  -1.10073  -1.09714  -1.09144  -1.08814
 Alpha  occ. eigenvalues --   -1.08615  -1.08024  -1.06550  -1.05928  -1.05642
 Alpha  occ. eigenvalues --   -1.05609  -1.03955  -1.01420  -0.99749  -0.99155
 Alpha  occ. eigenvalues --   -0.98514  -0.98372  -0.97449  -0.96799  -0.96094
 Alpha  occ. eigenvalues --   -0.95187  -0.94803  -0.90896  -0.88526  -0.87434
 Alpha  occ. eigenvalues --   -0.85879  -0.84502  -0.84178  -0.83348  -0.82359
 Alpha  occ. eigenvalues --   -0.82122  -0.81104  -0.80287  -0.80260  -0.79242
 Alpha  occ. eigenvalues --   -0.78444  -0.77755  -0.77350  -0.76556  -0.76448
 Alpha  occ. eigenvalues --   -0.74806  -0.74481  -0.73938  -0.72970  -0.71680
 Alpha  occ. eigenvalues --   -0.71277  -0.70879  -0.70462  -0.70133  -0.69786
 Alpha  occ. eigenvalues --   -0.69369  -0.67941  -0.67732  -0.67210  -0.66835
 Alpha  occ. eigenvalues --   -0.66293  -0.66052  -0.65740  -0.65605  -0.65134
 Alpha  occ. eigenvalues --   -0.64451  -0.63982  -0.63393  -0.63229  -0.63057
 Alpha  occ. eigenvalues --   -0.62742  -0.62306  -0.61910  -0.60957  -0.60173
 Alpha  occ. eigenvalues --   -0.59541  -0.59436  -0.59261  -0.58790  -0.58502
 Alpha  occ. eigenvalues --   -0.57514  -0.57398  -0.56648  -0.56204  -0.55977
 Alpha  occ. eigenvalues --   -0.55770  -0.55576  -0.55404  -0.55078  -0.54958
 Alpha  occ. eigenvalues --   -0.54715  -0.54400  -0.53913  -0.53832  -0.53393
 Alpha  occ. eigenvalues --   -0.53116  -0.52820  -0.52583  -0.52414  -0.52079
 Alpha  occ. eigenvalues --   -0.51885  -0.51702  -0.51412  -0.51325  -0.51202
 Alpha  occ. eigenvalues --   -0.50829  -0.50593  -0.49905  -0.49834  -0.49741
 Alpha  occ. eigenvalues --   -0.49704  -0.49547  -0.49337  -0.49028  -0.48607
 Alpha  occ. eigenvalues --   -0.48332  -0.48284  -0.47738  -0.47614  -0.47370
 Alpha  occ. eigenvalues --   -0.47237  -0.47086  -0.47041  -0.46801  -0.46667
 Alpha  occ. eigenvalues --   -0.46378  -0.46204  -0.45965  -0.45852  -0.45707
 Alpha  occ. eigenvalues --   -0.45631  -0.45566  -0.45427  -0.45245  -0.45159
 Alpha  occ. eigenvalues --   -0.45039  -0.44902  -0.44762  -0.44484  -0.44425
 Alpha  occ. eigenvalues --   -0.44180  -0.44037  -0.43635  -0.43513  -0.43410
 Alpha  occ. eigenvalues --   -0.43307  -0.43082  -0.42998  -0.42725  -0.42527
 Alpha  occ. eigenvalues --   -0.42296  -0.42179  -0.42045  -0.41825  -0.41763
 Alpha  occ. eigenvalues --   -0.41725  -0.41459  -0.41147  -0.41110  -0.40916
 Alpha  occ. eigenvalues --   -0.40782  -0.40740  -0.40620  -0.40402  -0.40283
 Alpha  occ. eigenvalues --   -0.40029  -0.39716  -0.39660  -0.39339  -0.38959
 Alpha  occ. eigenvalues --   -0.38569  -0.38521  -0.38333  -0.37283  -0.35545
 Alpha  occ. eigenvalues --   -0.35456  -0.35268  -0.35216  -0.34699  -0.34213
 Alpha  occ. eigenvalues --   -0.34109  -0.33901  -0.33214  -0.32940  -0.32706
 Alpha  occ. eigenvalues --   -0.32598  -0.32249  -0.32136  -0.31823  -0.31472
 Alpha  occ. eigenvalues --   -0.31380  -0.31356  -0.31156  -0.31071  -0.30745
 Alpha  occ. eigenvalues --   -0.30594  -0.29651  -0.29084  -0.26979  -0.26804
 Alpha virt. eigenvalues --   -0.11878  -0.11432  -0.07287  -0.06744  -0.05766
 Alpha virt. eigenvalues --   -0.04515  -0.04443  -0.04065  -0.03608  -0.03188
 Alpha virt. eigenvalues --   -0.02925  -0.02580  -0.02239  -0.01642  -0.01256

 Mulliken charges:
               1
     1  N   -0.758427
     2  H    0.415449
     3  H    0.412316
     4  H    0.433358
     5  C   -0.119305
     6  H    0.216045
     7  C    0.652833
     8  C   -0.298836
     9  H    0.199650
    10  H    0.173533
    11  O   -0.543059
    12  C   -0.098250
    13  H    0.112750
    14  C   -0.448000
    15  H    0.168541
    16  H    0.159247
    17  H    0.174621
    18  C   -0.454744
    19  H    0.170182
    20  H    0.131175
    21  H    0.183825
    22  N   -0.591264
    23  H    0.368996
    24  C   -0.079988
    25  H    0.184237
    26  C    0.627681
    27  C   -0.072358
    28  H    0.145110
    29  O   -0.555277
    30  C   -0.477191
    31  H    0.155202
    32  H    0.187226
    33  H    0.163428
    34  C   -0.444541
    35  H    0.161678
    36  H    0.165179
    37  H    0.130635
    38  N   -0.598857
    39  H    0.362080
    40  C   -0.063518
    41  H    0.171995
    42  C    0.638123
    43  C   -0.072140
    44  H    0.145601
    45  O   -0.545285
    46  C   -0.480717
    47  H    0.135222
    48  H    0.189945
    49  H    0.162090
    50  C   -0.443868
    51  H    0.152520
    52  H    0.133351
    53  H    0.154741
    54  N   -0.586554
    55  H    0.349640
    56  C   -0.077007
    57  H    0.194910
    58  C    0.643579
    59  C   -0.026148
    60  H    0.140879
    61  H    0.148428
    62  O   -0.573640
    63  O   -0.615741
    64  H    0.402603
    65  N   -0.597056
    66  H    0.358249
    67  C   -0.098717
    68  H    0.173503
    69  C    0.613099
    70  C    0.162072
    71  H    0.150436
    72  O   -0.545050
    73  C   -0.477887
    74  H    0.165626
    75  H    0.144553
    76  H    0.172778
    77  O   -0.635759
    78  H    0.411536
    79  N   -0.616379
    80  H    0.362878
    81  C   -0.037487
    82  H    0.202883
    83  C    0.608091
    84  C   -0.277998
    85  H    0.175138
    86  H    0.160356
    87  O   -0.579952
    88  C   -0.393336
    89  H    0.161981
    90  H    0.214662
    91  C    0.620124
    92  N   -0.749482
    93  H    0.346548
    94  H    0.362248
    95  O   -0.524278
    96  N   -0.613081
    97  H    0.423173
    98  C   -0.127210
    99  H    0.169973
   100  C    0.634658
   101  C    0.160419
   102  H    0.163821
   103  O   -0.532920
   104  C   -0.497386
   105  H    0.168717
   106  H    0.133500
   107  H    0.179887
   108  O   -0.634919
   109  H    0.407719
   110  N   -0.594059
   111  H    0.342705
   112  C   -0.047709
   113  H    0.176841
   114  C    0.631348
   115  C   -0.471991
   116  H    0.173711
   117  H    0.160826
   118  H    0.177700
   119  O   -0.562582
   120  N   -0.593897
   121  H    0.366203
   122  C   -0.076645
   123  H    0.178241
   124  C    0.627336
   125  C   -0.282736
   126  H    0.151193
   127  H    0.159888
   128  O   -0.521350
   129  C   -0.101708
   130  H    0.162448
   131  C   -0.449727
   132  H    0.136948
   133  H    0.131632
   134  H    0.150620
   135  C   -0.460120
   136  H    0.142325
   137  H    0.153676
   138  H    0.144448
   139  N   -0.614529
   140  H    0.368600
   141  C   -0.058950
   142  H    0.215215
   143  C    0.588535
   144  C   -0.444746
   145  H    0.182029
   146  H    0.154179
   147  H    0.151572
   148  O   -0.463101
   149  O   -0.559545
   150  H    0.411554
 Sum of Mulliken charges =   1.00000

 Dipole moment (field-independent basis, Debye):
    X=            -37.5628    Y=            -11.3639    Z=            -34.6896  Tot=             52.3782
 Quadrupole moment (field-independent basis, Debye-Ang):
   XX=            -39.8661   YY=           -300.1470   ZZ=           -125.5330
   XY=            214.5485   XZ=            299.0795   YZ=            139.1037

 Normal termination of Gaussian 16 at Mon Jul 18 20:41:34 2022.
