 Gaussian 16, Revision C.01,
 Gaussian 16:  ES64L-G16RevC.01  3-Jul-2019

 ----------------------------------------------------------------------
 # B3LYP/6-31G* empiricaldispersion=gd3 guess=read geom=check nosymm in
 tegral(ultrafinegrid)
 ----------------------------------------------------------------------

 ------------------------------------------------------
 Candidate Structure: Conf:126 Charge calc in gas phase
 ------------------------------------------------------
 Structure from the checkpoint file:  "conf-126.chk"
 Charge =  1 Multiplicity = 1

                          Input orientation:
 ---------------------------------------------------------------------
 Center     Atomic      Atomic             Coordinates (Angstroms)
 Number     Number       Type             X           Y           Z
 ---------------------------------------------------------------------
      1          7           0       -9.572954   -7.308243   -5.003129
      2          1           0       -9.888861   -7.636362   -5.919522
      3          1           0      -10.288347   -7.543166   -4.309560
      4          1           0       -8.637786   -7.767509   -4.772012
      5          6           0       -9.195711   -5.839433   -4.986381
      6          1           0       -9.553862   -5.385068   -5.911833
      7          6           0       -7.645063   -5.891351   -4.946938
      8          6           0       -9.773066   -5.136365   -3.749924
      9          1           0       -9.367968   -4.116918   -3.740220
     10          1           0       -9.368716   -5.629485   -2.854610
     11          8           0       -7.111600   -6.990011   -4.726444
     12          6           0      -11.312677   -5.065880   -3.674053
     13          1           0      -11.719643   -6.092718   -3.662958
     14          6           0      -11.721232   -4.404225   -2.349044
     15          1           0      -11.359422   -3.369919   -2.306958
     16          1           0      -11.312318   -4.941176   -1.485833
     17          1           0      -12.810614   -4.382005   -2.248204
     18          6           0      -11.921580   -4.323257   -4.871917
     19          1           0      -11.523737   -3.303243   -4.937975
     20          1           0      -11.728085   -4.823328   -5.829135
     21          1           0      -13.007964   -4.248919   -4.764302
     22          7           0       -7.024870   -4.734689   -5.129062
     23          1           0       -7.544613   -3.857226   -5.183445
     24          6           0       -5.597752   -4.495438   -4.893660
     25          1           0       -5.217122   -5.303180   -4.259988
     26          6           0       -5.584449   -3.139810   -4.151025
     27          6           0       -4.789318   -4.454626   -6.221925
     28          1           0       -5.159310   -3.591234   -6.792765
     29          8           0       -6.516230   -2.347141   -4.325688
     30          6           0       -3.286083   -4.268724   -5.960364
     31          1           0       -2.892840   -5.082499   -5.336960
     32          1           0       -3.046071   -3.322155   -5.470140
     33          1           0       -2.740327   -4.294329   -6.908653
     34          6           0       -5.033988   -5.729785   -7.042113
     35          1           0       -4.730489   -6.621483   -6.481873
     36          1           0       -4.452090   -5.695859   -7.968620
     37          1           0       -6.087273   -5.844198   -7.317255
     38          7           0       -4.539824   -2.917843   -3.338037
     39          1           0       -3.752963   -3.560276   -3.323956
     40          6           0       -4.251569   -1.625172   -2.722284
     41          1           0       -4.883094   -0.874712   -3.208047
     42          6           0       -2.763908   -1.360206   -3.002018
     43          6           0       -4.560286   -1.648845   -1.197909
     44          1           0       -3.977608   -2.476940   -0.772349
     45          8           0       -1.974972   -2.309355   -3.094203
     46          6           0       -4.135768   -0.350038   -0.496268
     47          1           0       -4.626759    0.523427   -0.945701
     48          1           0       -3.054701   -0.187633   -0.529238
     49          1           0       -4.432502   -0.381958    0.557099
     50          6           0       -6.051734   -1.929604   -0.967154
     51          1           0       -6.669830   -1.128872   -1.389948
     52          1           0       -6.361275   -2.871713   -1.429838
     53          1           0       -6.263148   -1.993343    0.105628
     54          7           0       -2.397291   -0.072354   -3.120216
     55          1           0       -3.056742    0.678476   -2.940800
     56          6           0       -1.002050    0.363263   -3.205057
     57          1           0       -0.454105   -0.303741   -3.873585
     58          6           0       -0.379838    0.305183   -1.798588
     59          6           0       -1.000375    1.799544   -3.741685
     60          1           0       -1.370134    1.801755   -4.771249
     61          1           0        0.028392    2.173368   -3.737717
     62          8           0       -0.291843    1.320577   -1.081018
     63          8           0       -1.886476    2.614753   -2.984492
     64          1           0       -1.491153    2.645372   -2.092052
     65          7           0       -0.021768   -0.915704   -1.372448
     66          1           0       -0.074595   -1.711816   -2.001851
     67          6           0        0.506741   -1.167574   -0.036970
     68          1           0       -0.014297   -0.506924    0.665155
     69          6           0        2.009615   -0.828031   -0.021220
     70          6           0        0.270820   -2.645044    0.340964
     71          1           0        0.746860   -2.803315    1.321063
     72          8           0        2.881727   -1.708709   -0.040747
     73          6           0       -1.210148   -2.993367    0.427380
     74          1           0       -1.732475   -2.335621    1.131220
     75          1           0       -1.671800   -2.903634   -0.560507
     76          1           0       -1.320160   -4.028470    0.762788
     77          8           0        0.844845   -3.492486   -0.643021
     78          1           0        1.804809   -3.314657   -0.605835
     79          7           0        2.297421    0.489801   -0.008368
     80          1           0        1.514357    1.135976   -0.073573
     81          6           0        3.660927    0.976676   -0.234653
     82          1           0        4.152380    0.232939   -0.872571
     83          6           0        4.425479    1.035470    1.106099
     84          6           0        3.664186    2.340744   -0.930504
     85          1           0        4.707084    2.578512   -1.169405
     86          1           0        3.347291    3.109818   -0.219401
     87          8           0        4.718348    2.107026    1.646160
     88          6           0        2.776545    2.412000   -2.190965
     89          1           0        3.008514    3.338816   -2.731328
     90          1           0        1.720453    2.453088   -1.918539
     91          6           0        2.922817    1.230322   -3.145597
     92          7           0        4.183918    0.990238   -3.601307
     93          1           0        4.952951    1.617661   -3.418363
     94          1           0        4.320661    0.245362   -4.270854
     95          8           0        1.972597    0.522189   -3.472980
     96          7           0        4.719740   -0.171501    1.633298
     97          1           0        4.466750   -1.020755    1.130754
     98          6           0        5.257785   -0.322038    2.980899
     99          1           0        4.831610    0.471981    3.606000
    100          6           0        6.790632   -0.143703    2.970493
    101          6           0        4.867845   -1.701932    3.548497
    102          1           0        5.324306   -1.774291    4.547087
    103          8           0        7.566991   -1.095274    3.161124
    104          6           0        3.359368   -1.880456    3.673136
    105          1           0        2.918558   -1.090053    4.290550
    106          1           0        2.889427   -1.866912    2.684719
    107          1           0        3.147770   -2.849182    4.134464
    108          8           0        5.350604   -2.730792    2.697000
    109          1           0        6.323085   -2.647128    2.727753
    110          7           0        7.208477    1.115940    2.751319
    111          1           0        6.498045    1.825393    2.573384
    112          6           0        8.626082    1.490057    2.700044
    113          1           0        9.167290    0.630517    2.289287
    114          6           0        9.116359    1.744498    4.144376
    115          6           0        8.816711    2.721077    1.823011
    116          1           0        9.877938    2.974699    1.758539
    117          1           0        8.432344    2.532648    0.815633
    118          1           0        8.301570    3.582858    2.256626
    119          8           0        9.320163    2.881591    4.569800
    120          7           0        9.242503    0.627010    4.900582
    121          1           0        9.015929   -0.266071    4.474003
    122          6           0        9.407650    0.699175    6.356473
    123          1           0        8.925560    1.630734    6.672321
    124          6           0       10.912183    0.801548    6.704958
    125          6           0        8.761646   -0.498526    7.058430
    126          1           0        9.392232   -1.380261    6.897355
    127          1           0        8.804423   -0.298319    8.136938
    128          8           0       11.547359   -0.134315    7.183518
    129          6           0        7.309255   -0.810491    6.647603
    130          1           0        7.321541   -1.179744    5.614710
    131          6           0        6.752189   -1.937642    7.528494
    132          1           0        6.678570   -1.616965    8.575587
    133          1           0        7.395713   -2.824399    7.494952
    134          1           0        5.749027   -2.236681    7.199867
    135          6           0        6.394305    0.422082    6.693618
    136          1           0        6.384826    0.869531    7.695848
    137          1           0        5.360499    0.147133    6.447321
    138          1           0        6.711015    1.194320    5.983748
    139          7           0       11.460981    2.010682    6.422792
    140          1           0       10.905034    2.724151    5.954366
    141          6           0       12.881306    2.239067    6.605059
    142          1           0       13.178880    1.811875    7.568896
    143          6           0       13.128910    3.736801    6.644782
    144          6           0       13.732173    1.577754    5.501713
    145          1           0       14.797736    1.747355    5.680471
    146          1           0       13.532304    0.503634    5.511558
    147          1           0       13.464958    1.983819    4.520046
    148          8           0       12.330732    4.591828    6.331182
    149          8           0       14.390877    4.011306    7.047334
    150          1           0       14.486689    4.981793    7.016404
 ---------------------------------------------------------------------

 SCF Done:  E(RB3LYP) =  -3455.72587808     A.U. after    2 cycles

 Alpha  occ. eigenvalues --  -19.27279 -19.22636 -19.22192 -19.20707 -19.20458
 Alpha  occ. eigenvalues --  -19.20057 -19.19719 -19.19277 -19.18350 -19.18008
 Alpha  occ. eigenvalues --  -19.17838 -19.17708 -19.17029 -19.15441 -19.13228
 Alpha  occ. eigenvalues --  -14.60394 -14.49704 -14.45975 -14.44725 -14.43466
 Alpha  occ. eigenvalues --  -14.43148 -14.42640 -14.41540 -14.41176 -14.39224
 Alpha  occ. eigenvalues --  -14.37205 -10.43893 -10.41067 -10.39280 -10.37578
 Alpha  occ. eigenvalues --  -10.36636 -10.36156 -10.35896 -10.34923 -10.34804
 Alpha  occ. eigenvalues --  -10.34546 -10.34309 -10.33944 -10.32724 -10.32235
 Alpha  occ. eigenvalues --  -10.32165 -10.30391 -10.30285 -10.30213 -10.30185
 Alpha  occ. eigenvalues --  -10.30073 -10.29621 -10.29588 -10.29490 -10.28620
 Alpha  occ. eigenvalues --  -10.28517 -10.28371 -10.28034 -10.27871 -10.26576
 Alpha  occ. eigenvalues --  -10.26243 -10.26215 -10.26150 -10.25989 -10.25696
 Alpha  occ. eigenvalues --  -10.25415 -10.25359 -10.23660 -10.22233 -10.22162
 Alpha  occ. eigenvalues --  -10.21783 -10.20872 -10.20584 -10.20570 -10.20175
 Alpha  occ. eigenvalues --   -1.19690  -1.14505  -1.13995  -1.13538  -1.12645
 Alpha  occ. eigenvalues --   -1.11805  -1.11032  -1.09929  -1.09896  -1.09067
 Alpha  occ. eigenvalues --   -1.07837  -1.07169  -1.07087  -1.06522  -1.05483
 Alpha  occ. eigenvalues --   -1.05112  -1.04521  -1.02584  -1.01056  -1.00228
 Alpha  occ. eigenvalues --   -0.99371  -0.98304  -0.97342  -0.97234  -0.95681
 Alpha  occ. eigenvalues --   -0.95665  -0.94087  -0.91591  -0.89317  -0.88657
 Alpha  occ. eigenvalues --   -0.86846  -0.84889  -0.84110  -0.83270  -0.83125
 Alpha  occ. eigenvalues --   -0.82614  -0.81296  -0.80809  -0.80251  -0.79822
 Alpha  occ. eigenvalues --   -0.79680  -0.78663  -0.77318  -0.77199  -0.76988
 Alpha  occ. eigenvalues --   -0.76331  -0.75605  -0.74417  -0.73475  -0.72230
 Alpha  occ. eigenvalues --   -0.71406  -0.71328  -0.70386  -0.69925  -0.69833
 Alpha  occ. eigenvalues --   -0.69592  -0.69320  -0.68096  -0.67951  -0.67717
 Alpha  occ. eigenvalues --   -0.67337  -0.66760  -0.66003  -0.65585  -0.65251
 Alpha  occ. eigenvalues --   -0.65094  -0.64716  -0.63881  -0.63726  -0.63074
 Alpha  occ. eigenvalues --   -0.62966  -0.62077  -0.61678  -0.60851  -0.60108
 Alpha  occ. eigenvalues --   -0.59912  -0.59811  -0.59293  -0.59059  -0.58913
 Alpha  occ. eigenvalues --   -0.58433  -0.58053  -0.57838  -0.57379  -0.57238
 Alpha  occ. eigenvalues --   -0.56866  -0.56175  -0.55924  -0.55833  -0.55563
 Alpha  occ. eigenvalues --   -0.55330  -0.55185  -0.54364  -0.54292  -0.53960
 Alpha  occ. eigenvalues --   -0.53727  -0.53439  -0.52948  -0.52884  -0.52522
 Alpha  occ. eigenvalues --   -0.52069  -0.51937  -0.51835  -0.51745  -0.51283
 Alpha  occ. eigenvalues --   -0.51180  -0.51105  -0.50425  -0.50141  -0.50045
 Alpha  occ. eigenvalues --   -0.50035  -0.49818  -0.49527  -0.49374  -0.49192
 Alpha  occ. eigenvalues --   -0.49030  -0.48915  -0.48725  -0.48568  -0.48415
 Alpha  occ. eigenvalues --   -0.48139  -0.47973  -0.47734  -0.47586  -0.47198
 Alpha  occ. eigenvalues --   -0.47067  -0.47011  -0.46961  -0.46637  -0.46511
 Alpha  occ. eigenvalues --   -0.46072  -0.46065  -0.46026  -0.45976  -0.45576
 Alpha  occ. eigenvalues --   -0.45475  -0.45460  -0.45179  -0.44892  -0.44698
 Alpha  occ. eigenvalues --   -0.44555  -0.44362  -0.44175  -0.44084  -0.43894
 Alpha  occ. eigenvalues --   -0.43364  -0.43153  -0.43145  -0.43002  -0.42963
 Alpha  occ. eigenvalues --   -0.42879  -0.42788  -0.42654  -0.42371  -0.42225
 Alpha  occ. eigenvalues --   -0.41962  -0.41836  -0.41754  -0.41614  -0.41598
 Alpha  occ. eigenvalues --   -0.41550  -0.41178  -0.41083  -0.40749  -0.40453
 Alpha  occ. eigenvalues --   -0.40358  -0.40110  -0.40060  -0.39332  -0.39133
 Alpha  occ. eigenvalues --   -0.38975  -0.38509  -0.37778  -0.37362  -0.36656
 Alpha  occ. eigenvalues --   -0.36331  -0.35805  -0.35505  -0.35351  -0.35192
 Alpha  occ. eigenvalues --   -0.35094  -0.34775  -0.34648  -0.34173  -0.34042
 Alpha  occ. eigenvalues --   -0.33648  -0.33478  -0.32976  -0.32363  -0.32215
 Alpha  occ. eigenvalues --   -0.31847  -0.31281  -0.31235  -0.30683  -0.30627
 Alpha  occ. eigenvalues --   -0.30206  -0.29398  -0.28315  -0.27139  -0.26072
 Alpha virt. eigenvalues --   -0.12431  -0.11862  -0.08190  -0.07348  -0.07164
 Alpha virt. eigenvalues --   -0.06269  -0.04958  -0.04674  -0.04542  -0.04161
 Alpha virt. eigenvalues --   -0.03358  -0.02753  -0.01942  -0.01755  -0.01433

 Mulliken charges:
               1
     1  N   -0.758007
     2  H    0.416570
     3  H    0.413032
     4  H    0.433643
     5  C   -0.119242
     6  H    0.217113
     7  C    0.652868
     8  C   -0.298962
     9  H    0.198436
    10  H    0.173197
    11  O   -0.541573
    12  C   -0.098684
    13  H    0.113815
    14  C   -0.448063
    15  H    0.167706
    16  H    0.159048
    17  H    0.175883
    18  C   -0.454922
    19  H    0.170005
    20  H    0.131653
    21  H    0.184973
    22  N   -0.594253
    23  H    0.370794
    24  C   -0.076051
    25  H    0.186038
    26  C    0.628690
    27  C   -0.075587
    28  H    0.148833
    29  O   -0.551789
    30  C   -0.478033
    31  H    0.155787
    32  H    0.173635
    33  H    0.170602
    34  C   -0.446255
    35  H    0.164785
    36  H    0.168770
    37  H    0.129807
    38  N   -0.601106
    39  H    0.364661
    40  C   -0.069490
    41  H    0.182759
    42  C    0.640920
    43  C   -0.074637
    44  H    0.150783
    45  O   -0.559260
    46  C   -0.481337
    47  H    0.150457
    48  H    0.169178
    49  H    0.164539
    50  C   -0.443863
    51  H    0.157082
    52  H    0.137597
    53  H    0.156050
    54  N   -0.599035
    55  H    0.357056
    56  C   -0.074749
    57  H    0.203315
    58  C    0.680281
    59  C   -0.063927
    60  H    0.157076
    61  H    0.170007
    62  O   -0.595973
    63  O   -0.640893
    64  H    0.418637
    65  N   -0.593109
    66  H    0.382685
    67  C   -0.080950
    68  H    0.176021
    69  C    0.658558
    70  C    0.109486
    71  H    0.147122
    72  O   -0.564665
    73  C   -0.472024
    74  H    0.140165
    75  H    0.168530
    76  H    0.167231
    77  O   -0.643917
    78  H    0.424730
    79  N   -0.611511
    80  H    0.377530
    81  C   -0.066333
    82  H    0.187622
    83  C    0.635659
    84  C   -0.299646
    85  H    0.153547
    86  H    0.190468
    87  O   -0.548484
    88  C   -0.397651
    89  H    0.172276
    90  H    0.192447
    91  C    0.600574
    92  N   -0.732951
    93  H    0.347302
    94  H    0.352680
    95  O   -0.528083
    96  N   -0.616739
    97  H    0.388501
    98  C   -0.071077
    99  H    0.180343
   100  C    0.648946
   101  C    0.098027
   102  H    0.154213
   103  O   -0.573019
   104  C   -0.464932
   105  H    0.142486
   106  H    0.156545
   107  H    0.167542
   108  O   -0.644339
   109  H    0.419220
   110  N   -0.609246
   111  H    0.382157
   112  C   -0.060835
   113  H    0.178152
   114  C    0.626390
   115  C   -0.458664
   116  H    0.173146
   117  H    0.143307
   118  H    0.180937
   119  O   -0.531571
   120  N   -0.614605
   121  H    0.369880
   122  C   -0.070945
   123  H    0.175997
   124  C    0.631960
   125  C   -0.284320
   126  H    0.166656
   127  H    0.149277
   128  O   -0.535069
   129  C   -0.095004
   130  H    0.140680
   131  C   -0.445680
   132  H    0.143691
   133  H    0.149249
   134  H    0.135220
   135  C   -0.462764
   136  H    0.147652
   137  H    0.130946
   138  H    0.152503
   139  N   -0.630809
   140  H    0.382166
   141  C   -0.017196
   142  H    0.194652
   143  C    0.574514
   144  C   -0.454656
   145  H    0.166385
   146  H    0.187972
   147  H    0.148530
   148  O   -0.458875
   149  O   -0.567637
   150  H    0.414439
 Sum of Mulliken charges =   1.00000

 Dipole moment (field-independent basis, Debye):
    X=            -37.7588    Y=            -22.0991    Z=            -24.3236  Tot=             50.0574
 Quadrupole moment (field-independent basis, Debye-Ang):
   XX=            -21.4511   YY=           -271.3139   ZZ=           -313.3941
   XY=            277.8662   XZ=            136.1825   YZ=            122.9967

 Normal termination of Gaussian 16 at Mon Jul 18 20:43:34 2022.
