 Gaussian 16, Revision C.01,
 Gaussian 16:  ES64L-G16RevC.01  3-Jul-2019

 ----------------------------------------------------------------------
 # B3LYP/6-31G* empiricaldispersion=gd3 guess=read geom=check nosymm in
 tegral(ultrafinegrid)
 ----------------------------------------------------------------------

 ------------------------------------------------------
 Candidate Structure: Conf:126 Charge calc in gas phase
 ------------------------------------------------------
 Structure from the checkpoint file:  "conf-126.chk"
 Charge =  1 Multiplicity = 1

                          Input orientation:
 ---------------------------------------------------------------------
 Center     Atomic      Atomic             Coordinates (Angstroms)
 Number     Number       Type             X           Y           Z
 ---------------------------------------------------------------------
      1          7           0       -9.235551   -7.362988   -4.169867
      2          1           0       -9.589867   -7.917062   -4.954934
      3          1           0       -9.925745   -7.387989   -3.413649
      4          1           0       -8.306385   -7.771558   -3.865992
      5          6           0       -8.844665   -5.951932   -4.562287
      6          1           0       -9.362028   -5.693929   -5.487870
      7          6           0       -7.312017   -6.055039   -4.746340
      8          6           0       -9.166456   -4.965904   -3.427101
      9          1           0       -8.710088   -4.004477   -3.695296
     10          1           0       -8.636682   -5.305273   -2.525423
     11          8           0       -6.737387   -7.033440   -4.253016
     12          6           0      -10.663072   -4.752562   -3.121932
     13          1           0      -11.118875   -5.720650   -2.845818
     14          6           0      -10.796461   -3.825900   -1.903605
     15          1           0      -10.366609   -2.840895   -2.121349
     16          1           0      -10.280221   -4.233670   -1.027292
     17          1           0      -11.848769   -3.682248   -1.640110
     18          6           0      -11.427217   -4.190321   -4.328908
     19          1           0      -10.993192   -3.235380   -4.649245
     20          1           0      -11.424442   -4.868817   -5.191065
     21          1           0      -12.474490   -4.008649   -4.068901
     22          7           0       -6.742477   -5.029439   -5.379469
     23          1           0       -7.319102   -4.213107   -5.580530
     24          6           0       -5.338830   -4.638396   -5.188945
     25          1           0       -4.857639   -5.411290   -4.582222
     26          6           0       -5.436761   -3.300462   -4.419721
     27          6           0       -4.599677   -4.505925   -6.544236
     28          1           0       -5.127774   -3.734414   -7.122888
     29          8           0       -6.428823   -2.579925   -4.577930
     30          6           0       -3.142161   -4.060738   -6.348565
     31          1           0       -2.592551   -4.774872   -5.721523
     32          1           0       -3.056738   -3.072951   -5.887793
     33          1           0       -2.633697   -4.019977   -7.316732
     34          6           0       -4.662691   -5.834327   -7.310844
     35          1           0       -4.148880   -6.628668   -6.755606
     36          1           0       -4.171680   -5.733984   -8.283954
     37          1           0       -5.694544   -6.154721   -7.485952
     38          7           0       -4.419816   -3.017407   -3.590018
     39          1           0       -3.582055   -3.592201   -3.581653
     40          6           0       -4.273395   -1.742261   -2.894708
     41          1           0       -4.934171   -1.017569   -3.381141
     42          6           0       -2.799338   -1.346122   -3.075396
     43          6           0       -4.669881   -1.870366   -1.395794
     44          1           0       -4.041161   -2.663808   -0.970422
     45          8           0       -1.930576   -2.220489   -3.174519
     46          6           0       -4.407924   -0.574141   -0.615250
     47          1           0       -4.949649    0.272850   -1.057101
     48          1           0       -3.344851   -0.319856   -0.576409
     49          1           0       -4.757532   -0.681212    0.416519
     50          6           0       -6.140220   -2.295945   -1.269555
     51          1           0       -6.805074   -1.547952   -1.716770
     52          1           0       -6.326311   -3.251936   -1.768939
     53          1           0       -6.410052   -2.407436   -0.213896
     54          7           0       -2.530109   -0.028478   -3.115833
     55          1           0       -3.248433    0.662358   -2.923535
     56          6           0       -1.174578    0.513437   -3.198281
     57          1           0       -0.595022   -0.093966   -3.900143
     58          6           0       -0.502203    0.470204   -1.809766
     59          6           0       -1.291380    1.961833   -3.691451
     60          1           0       -1.683878    1.966224   -4.712697
     61          1           0       -0.296566    2.418089   -3.697402
     62          8           0       -0.342197    1.509283   -1.140140
     63          8           0       -2.212267    2.686703   -2.890939
     64          1           0       -1.780599    2.759449   -2.018598
     65          7           0       -0.142696   -0.747614   -1.374909
     66          1           0       -0.268775   -1.562540   -1.972998
     67          6           0        0.413318   -0.985839   -0.043350
     68          1           0       -0.053753   -0.273906    0.646443
     69          6           0        1.938942   -0.744926   -0.060473
     70          6           0        0.106611   -2.436059    0.383826
     71          1           0        0.600079   -2.591917    1.355060
     72          8           0        2.734677   -1.688793   -0.022293
     73          6           0       -1.387273   -2.701231    0.518567
     74          1           0       -1.856026   -2.001959    1.219662
     75          1           0       -1.869571   -2.607959   -0.459017
     76          1           0       -1.544191   -3.722083    0.877895
     77          8           0        0.607449   -3.338554   -0.590495
     78          1           0        1.577584   -3.217446   -0.575159
     79          7           0        2.331352    0.542111   -0.134147
     80          1           0        1.612273    1.258352   -0.159398
     81          6           0        3.737115    0.898389   -0.361544
     82          1           0        4.164935    0.076646   -0.938119
     83          6           0        4.455572    0.988875    1.000170
     84          6           0        3.889906    2.204320   -1.151906
     85          1           0        4.938374    2.267440   -1.461443
     86          1           0        3.721068    3.048429   -0.475657
     87          8           0        4.784716    2.066544    1.508312
     88          6           0        2.981518    2.362127   -2.377905
     89          1           0        3.235447    3.305562   -2.880107
     90          1           0        1.930468    2.463776   -2.080366
     91          6           0        3.057394    1.224237   -3.392521
     92          7           0        2.336808    1.441836   -4.555026
     93          1           0        2.178865    2.394051   -4.859347
     94          1           0        2.529209    0.780133   -5.298595
     95          8           0        3.633127    0.168585   -3.199347
     96          7           0        4.664924   -0.206632    1.593126
     97          1           0        4.390317   -1.064256    1.118641
     98          6           0        5.150649   -0.322398    2.963129
     99          1           0        4.752261    0.524282    3.535271
    100          6           0        6.690743   -0.230572    2.996971
    101          6           0        4.664663   -1.647719    3.583234
    102          1           0        5.083726   -1.694272    4.599824
    103          8           0        7.404305   -1.211978    3.266467
    104          6           0        3.145028   -1.735543    3.663215
    105          1           0        2.730641   -0.890260    4.223833
    106          1           0        2.710316   -1.747874    2.658711
    107          1           0        2.863245   -2.665349    4.165478
    108          8           0        5.114132   -2.744626    2.801520
    109          1           0        6.088518   -2.711612    2.858427
    110          7           0        7.186923    0.989307    2.724770
    111          1           0        6.523830    1.725269    2.481766
    112          6           0        8.624795    1.278076    2.692492
    113          1           0        9.124664    0.367728    2.343292
    114          6           0        9.093318    1.582012    4.134179
    115          6           0        8.908636    2.445638    1.755962
    116          1           0        9.984053    2.635366    1.709039
    117          1           0        8.540578    2.222919    0.749652
    118          1           0        8.432572    3.357704    2.126936
    119          8           0        9.357227    2.725902    4.504720
    120          7           0        9.130469    0.501968    4.952297
    121          1           0        8.858362   -0.397314    4.566956
    122          6           0        9.260736    0.643921    6.406399
    123          1           0        8.827799    1.618221    6.658139
    124          6           0       10.758922    0.676578    6.793435
    125          6           0        8.525323   -0.473302    7.151772
    126          1           0        9.106006   -1.397923    7.057295
    127          1           0        8.550965   -0.216436    8.218832
    128          8           0       11.325004   -0.268412    7.336827
    129          6           0        7.068373   -0.722293    6.714871
    130          1           0        7.085750   -1.147632    5.703913
    131          6           0        6.421851   -1.765102    7.637549
    132          1           0        6.340746   -1.384211    8.663770
    133          1           0        7.011362   -2.688729    7.669437
    134          1           0        5.411309   -2.022000    7.296094
    135          6           0        6.227739    0.562038    6.668133
    136          1           0        6.215688    1.061847    7.645344
    137          1           0        5.187139    0.334720    6.402617
    138          1           0        6.610620    1.275519    5.930053
    139          7           0       11.385728    1.835831    6.467141
    140          1           0       10.886233    2.551993    5.942221
    141          6           0       12.813014    1.987085    6.672316
    142          1           0       13.063281    1.588930    7.661672
    143          6           0       13.151381    3.466385    6.649096
    144          6           0       13.644701    1.224017    5.621166
    145          1           0       14.714793    1.337857    5.816446
    146          1           0       13.379542    0.165512    5.676474
    147          1           0       13.422638    1.597659    4.615708
    148          8           0       12.422923    4.342437    6.282225
    149          8           0       14.416869    3.684923    7.067109
    150          1           0       14.570596    4.645675    6.992337
 ---------------------------------------------------------------------

 SCF Done:  E(RB3LYP) =  -3455.71580915     A.U. after    1 cycles

 Alpha  occ. eigenvalues --  -19.27709 -19.22758 -19.22222 -19.21980 -19.21827
 Alpha  occ. eigenvalues --  -19.21024 -19.19461 -19.19372 -19.18264 -19.17383
 Alpha  occ. eigenvalues --  -19.17330 -19.17317 -19.16762 -19.15081 -19.12952
 Alpha  occ. eigenvalues --  -14.61107 -14.50012 -14.46713 -14.45997 -14.44438
 Alpha  occ. eigenvalues --  -14.42997 -14.42195 -14.40902 -14.40682 -14.38845
 Alpha  occ. eigenvalues --  -14.36922 -10.44312 -10.41400 -10.39826 -10.38725
 Alpha  occ. eigenvalues --  -10.37657 -10.35975 -10.35588 -10.34918 -10.34478
 Alpha  occ. eigenvalues --  -10.34023 -10.33979 -10.33832 -10.33105 -10.32887
 Alpha  occ. eigenvalues --  -10.32102 -10.31853 -10.31422 -10.30554 -10.30458
 Alpha  occ. eigenvalues --  -10.30004 -10.29982 -10.29594 -10.28957 -10.28786
 Alpha  occ. eigenvalues --  -10.28682 -10.28156 -10.27883 -10.27395 -10.26806
 Alpha  occ. eigenvalues --  -10.26760 -10.26428 -10.26322 -10.26155 -10.25872
 Alpha  occ. eigenvalues --  -10.25396 -10.24942 -10.24218 -10.21915 -10.21695
 Alpha  occ. eigenvalues --  -10.21507 -10.20604 -10.20322 -10.20290 -10.19956
 Alpha  occ. eigenvalues --   -1.20114  -1.15114  -1.14633  -1.13729  -1.13624
 Alpha  occ. eigenvalues --   -1.12441  -1.11258  -1.10151  -1.09369  -1.09323
 Alpha  occ. eigenvalues --   -1.08482  -1.07269  -1.06976  -1.06805  -1.05099
 Alpha  occ. eigenvalues --   -1.04974  -1.04572  -1.03288  -1.02266  -1.00660
 Alpha  occ. eigenvalues --   -0.99247  -0.97759  -0.96798  -0.96767  -0.95908
 Alpha  occ. eigenvalues --   -0.95314  -0.93810  -0.92055  -0.90005  -0.89215
 Alpha  occ. eigenvalues --   -0.86516  -0.85422  -0.83808  -0.83755  -0.83168
 Alpha  occ. eigenvalues --   -0.82731  -0.81092  -0.80910  -0.80165  -0.79930
 Alpha  occ. eigenvalues --   -0.79612  -0.79149  -0.77761  -0.77524  -0.77271
 Alpha  occ. eigenvalues --   -0.76683  -0.75250  -0.74877  -0.74006  -0.72955
 Alpha  occ. eigenvalues --   -0.72319  -0.71078  -0.70363  -0.70001  -0.69912
 Alpha  occ. eigenvalues --   -0.69585  -0.69210  -0.68992  -0.68455  -0.67554
 Alpha  occ. eigenvalues --   -0.67450  -0.67275  -0.66749  -0.65799  -0.65155
 Alpha  occ. eigenvalues --   -0.64962  -0.64128  -0.63989  -0.63255  -0.62931
 Alpha  occ. eigenvalues --   -0.62674  -0.62566  -0.61288  -0.60891  -0.59989
 Alpha  occ. eigenvalues --   -0.59910  -0.59776  -0.59531  -0.59078  -0.58633
 Alpha  occ. eigenvalues --   -0.58612  -0.58288  -0.58085  -0.57872  -0.57424
 Alpha  occ. eigenvalues --   -0.57045  -0.56703  -0.56256  -0.55810  -0.55471
 Alpha  occ. eigenvalues --   -0.55260  -0.55052  -0.54864  -0.54591  -0.54071
 Alpha  occ. eigenvalues --   -0.53969  -0.53879  -0.53439  -0.53250  -0.52501
 Alpha  occ. eigenvalues --   -0.52471  -0.52113  -0.52079  -0.51931  -0.51649
 Alpha  occ. eigenvalues --   -0.51530  -0.51211  -0.50879  -0.50652  -0.50562
 Alpha  occ. eigenvalues --   -0.50295  -0.50289  -0.49828  -0.49452  -0.49242
 Alpha  occ. eigenvalues --   -0.49155  -0.49087  -0.48909  -0.48653  -0.48620
 Alpha  occ. eigenvalues --   -0.48535  -0.48294  -0.48000  -0.47594  -0.47517
 Alpha  occ. eigenvalues --   -0.47421  -0.47330  -0.47067  -0.46984  -0.46731
 Alpha  occ. eigenvalues --   -0.46300  -0.46199  -0.45755  -0.45725  -0.45618
 Alpha  occ. eigenvalues --   -0.45476  -0.45315  -0.45149  -0.45069  -0.44767
 Alpha  occ. eigenvalues --   -0.44561  -0.44246  -0.43888  -0.43843  -0.43769
 Alpha  occ. eigenvalues --   -0.43675  -0.43592  -0.43246  -0.43233  -0.43165
 Alpha  occ. eigenvalues --   -0.42907  -0.42827  -0.42793  -0.42429  -0.42075
 Alpha  occ. eigenvalues --   -0.42049  -0.41851  -0.41785  -0.41545  -0.41489
 Alpha  occ. eigenvalues --   -0.41296  -0.41137  -0.40862  -0.40728  -0.40421
 Alpha  occ. eigenvalues --   -0.40189  -0.40097  -0.39851  -0.39642  -0.39173
 Alpha  occ. eigenvalues --   -0.39061  -0.38229  -0.37739  -0.37497  -0.36996
 Alpha  occ. eigenvalues --   -0.36932  -0.36408  -0.35899  -0.35402  -0.35230
 Alpha  occ. eigenvalues --   -0.35193  -0.34926  -0.34818  -0.34671  -0.34323
 Alpha  occ. eigenvalues --   -0.34010  -0.33183  -0.33128  -0.33057  -0.31924
 Alpha  occ. eigenvalues --   -0.31546  -0.31428  -0.30824  -0.30449  -0.30070
 Alpha  occ. eigenvalues --   -0.29893  -0.28885  -0.27926  -0.26858  -0.25774
 Alpha virt. eigenvalues --   -0.13163  -0.12117  -0.09043  -0.08345  -0.07514
 Alpha virt. eigenvalues --   -0.06871  -0.05202  -0.05053  -0.04382  -0.04159
 Alpha virt. eigenvalues --   -0.03445  -0.02908  -0.02486  -0.01537  -0.01340

 Mulliken charges:
               1
     1  N   -0.751909
     2  H    0.418711
     3  H    0.415053
     4  H    0.431232
     5  C   -0.128491
     6  H    0.214753
     7  C    0.642785
     8  C   -0.305769
     9  H    0.210953
    10  H    0.172526
    11  O   -0.527444
    12  C   -0.099037
    13  H    0.112635
    14  C   -0.448287
    15  H    0.168962
    16  H    0.158016
    17  H    0.175673
    18  C   -0.455742
    19  H    0.171149
    20  H    0.133088
    21  H    0.184634
    22  N   -0.573605
    23  H    0.363162
    24  C   -0.095811
    25  H    0.190881
    26  C    0.633859
    27  C   -0.079880
    28  H    0.147287
    29  O   -0.555365
    30  C   -0.473422
    31  H    0.158251
    32  H    0.164503
    33  H    0.172373
    34  C   -0.447056
    35  H    0.159636
    36  H    0.170452
    37  H    0.142871
    38  N   -0.600418
    39  H    0.366437
    40  C   -0.064256
    41  H    0.182509
    42  C    0.638561
    43  C   -0.075253
    44  H    0.154922
    45  O   -0.557596
    46  C   -0.478200
    47  H    0.150352
    48  H    0.165694
    49  H    0.167346
    50  C   -0.446595
    51  H    0.157782
    52  H    0.133831
    53  H    0.156446
    54  N   -0.596608
    55  H    0.359866
    56  C   -0.082764
    57  H    0.194328
    58  C    0.643792
    59  C   -0.057162
    60  H    0.160057
    61  H    0.155853
    62  O   -0.576596
    63  O   -0.634510
    64  H    0.421422
    65  N   -0.601851
    66  H    0.390852
    67  C   -0.079328
    68  H    0.176970
    69  C    0.661730
    70  C    0.108891
    71  H    0.152624
    72  O   -0.555556
    73  C   -0.469414
    74  H    0.142735
    75  H    0.157995
    76  H    0.168839
    77  O   -0.645505
    78  H    0.427963
    79  N   -0.617790
    80  H    0.367617
    81  C   -0.065989
    82  H    0.223027
    83  C    0.632692
    84  C   -0.287760
    85  H    0.170405
    86  H    0.178382
    87  O   -0.552448
    88  C   -0.403585
    89  H    0.165326
    90  H    0.184604
    91  C    0.580808
    92  N   -0.749824
    93  H    0.334979
    94  H    0.342703
    95  O   -0.479245
    96  N   -0.613949
    97  H    0.387352
    98  C   -0.071754
    99  H    0.178629
   100  C    0.650308
   101  C    0.100366
   102  H    0.152525
   103  O   -0.574123
   104  C   -0.467192
   105  H    0.140617
   106  H    0.158120
   107  H    0.165410
   108  O   -0.644610
   109  H    0.419476
   110  N   -0.609227
   111  H    0.382729
   112  C   -0.060827
   113  H    0.178972
   114  C    0.625857
   115  C   -0.459788
   116  H    0.171887
   117  H    0.149259
   118  H    0.179217
   119  O   -0.532519
   120  N   -0.614968
   121  H    0.370443
   122  C   -0.070379
   123  H    0.175137
   124  C    0.631854
   125  C   -0.284062
   126  H    0.166536
   127  H    0.148230
   128  O   -0.535706
   129  C   -0.095218
   130  H    0.142172
   131  C   -0.445425
   132  H    0.142768
   133  H    0.148892
   134  H    0.134588
   135  C   -0.462395
   136  H    0.146455
   137  H    0.130365
   138  H    0.153523
   139  N   -0.630489
   140  H    0.381753
   141  C   -0.019266
   142  H    0.193751
   143  C    0.573144
   144  C   -0.454747
   145  H    0.165838
   146  H    0.187478
   147  H    0.148724
   148  O   -0.450713
   149  O   -0.569461
   150  H    0.412730
 Sum of Mulliken charges =   1.00000

 Dipole moment (field-independent basis, Debye):
    X=            -41.2245    Y=            -21.4621    Z=            -24.3917  Tot=             52.4884
 Quadrupole moment (field-independent basis, Debye-Ang):
   XX=            -75.5559   YY=           -263.9840   ZZ=           -319.5184
   XY=            269.7637   XZ=            117.1026   YZ=            104.1105

 Normal termination of Gaussian 16 at Sat Jul  2 15:26:44 2022.
