 Gaussian 16, Revision C.01,
 Gaussian 16:  ES64L-G16RevC.01  3-Jul-2019

 ----------------------------------------------------------------------
 # B3LYP/6-31G* empiricaldispersion=gd3 guess=read geom=check nosymm in
 tegral(ultrafinegrid)
 ----------------------------------------------------------------------

 ------------------------------------------------------
 Candidate Structure: Conf:981 Charge calc in gas phase
 ------------------------------------------------------
 Structure from the checkpoint file:  "conf-981.chk"
 Charge =  1 Multiplicity = 1

                          Input orientation:
 ---------------------------------------------------------------------
 Center     Atomic      Atomic             Coordinates (Angstroms)
 Number     Number       Type             X           Y           Z
 ---------------------------------------------------------------------
      1          7           0       -9.791459   -8.239060   -7.400282
      2          1           0       -9.809332   -8.216719   -8.424377
      3          1           0      -10.704054   -8.554737   -7.059970
      4          1           0       -9.014162   -8.893623   -7.094266
      5          6           0       -9.343312   -6.926419   -6.780306
      6          1           0       -9.555203   -6.121195   -7.485510
      7          6           0       -7.824990   -7.164959   -6.580689
      8          6           0      -10.081037   -6.729917   -5.441850
      9          1           0       -9.880182   -7.610716   -4.816443
     10          1           0      -11.161238   -6.710615   -5.649795
     11          8           0       -7.440776   -8.343421   -6.525151
     12          6           0       -9.709176   -5.452873   -4.655938
     13          1           0       -8.636849   -5.475589   -4.435554
     14          6           0      -10.007096   -4.169607   -5.443911
     15          1           0      -11.076717   -4.088943   -5.675343
     16          1           0       -9.454462   -4.102814   -6.389599
     17          1           0       -9.718636   -3.294198   -4.855709
     18          6           0      -10.455180   -5.452622   -3.313802
     19          1           0      -11.541330   -5.409148   -3.462110
     20          1           0      -10.226754   -6.348779   -2.725625
     21          1           0      -10.162391   -4.580924   -2.720528
     22          7           0       -7.068721   -6.082094   -6.454708
     23          1           0       -7.494099   -5.156103   -6.397528
     24          6           0       -5.704383   -6.075925   -5.913526
     25          1           0       -5.517880   -7.052800   -5.456474
     26          6           0       -5.751822   -4.955906   -4.849644
     27          6           0       -4.645519   -5.808090   -7.016589
     28          1           0       -4.844860   -4.801970   -7.411814
     29          8           0       -6.548266   -4.021182   -4.998048
     30          6           0       -3.220214   -5.841713   -6.442934
     31          1           0       -3.001816   -6.820247   -5.995459
     32          1           0       -3.042629   -5.078366   -5.681023
     33          1           0       -2.494217   -5.682499   -7.246410
     34          6           0       -4.791579   -6.826423   -8.156361
     35          1           0       -4.645709   -7.848922   -7.788791
     36          1           0       -4.042465   -6.634501   -8.931159
     37          1           0       -5.778647   -6.773105   -8.626907
     38          7           0       -4.926685   -5.092446   -3.801402
     39          1           0       -4.178573   -5.781942   -3.823118
     40          6           0       -4.705302   -4.035782   -2.820587
     41          1           0       -5.014123   -3.087555   -3.273012
     42          6           0       -3.187753   -4.022576   -2.551767
     43          6           0       -5.516501   -4.256859   -1.513166
     44          1           0       -5.295054   -3.395963   -0.867542
     45          8           0       -2.467122   -4.944761   -2.949827
     46          6           0       -7.024821   -4.264168   -1.797409
     47          1           0       -7.300030   -5.144714   -2.389900
     48          1           0       -7.337095   -3.376056   -2.355707
     49          1           0       -7.586893   -4.304849   -0.858064
     50          6           0       -5.083770   -5.533809   -0.780600
     51          1           0       -5.261980   -6.418336   -1.403932
     52          1           0       -4.021249   -5.516596   -0.516917
     53          1           0       -5.657543   -5.655671    0.143859
     54          7           0       -2.741012   -2.980558   -1.835707
     55          1           0       -3.355942   -2.246213   -1.496488
     56          6           0       -1.369465   -2.857943   -1.380620
     57          1           0       -1.022083   -3.834791   -1.022736
     58          6           0       -1.393453   -1.843720   -0.216847
     59          6           0       -0.426507   -2.401982   -2.502239
     60          1           0       -0.503495   -3.126028   -3.325686
     61          1           0        0.610605   -2.416480   -2.131854
     62          8           0       -2.419373   -1.230943    0.066771
     63          8           0       -0.831164   -1.098132   -2.888926
     64          1           0       -0.191942   -0.759478   -3.533024
     65          7           0       -0.221857   -1.717877    0.451325
     66          1           0        0.636109   -2.067262    0.025380
     67          6           0        0.050333   -0.587309    1.330536
     68          1           0       -0.636508    0.230411    1.083307
     69          6           0        1.509261   -0.175989    1.038989
     70          6           0       -0.122565   -0.972310    2.823011
     71          1           0        0.165635   -0.107477    3.431466
     72          8           0        2.226229   -0.861165    0.303565
     73          6           0       -1.556834   -1.371696    3.163986
     74          1           0       -2.263395   -0.569480    2.929700
     75          1           0       -1.859200   -2.253117    2.588009
     76          1           0       -1.620444   -1.612461    4.229208
     77          8           0        0.808038   -1.987674    3.172909
     78          1           0        0.586691   -2.768507    2.638404
     79          7           0        1.920529    0.953947    1.639082
     80          1           0        1.322044    1.476380    2.272259
     81          6           0        3.309167    1.388599    1.643217
     82          1           0        3.954802    0.519440    1.792738
     83          6           0        3.450694    2.342425    2.839786
     84          6           0        3.666124    2.050128    0.284959
     85          1           0        2.970361    2.881504    0.120310
     86          1           0        3.456813    1.293539   -0.478338
     87          8           0        2.451074    2.815694    3.403721
     88          6           0        5.103859    2.583487    0.099733
     89          1           0        5.303972    3.408618    0.791497
     90          1           0        5.187438    2.988087   -0.915595
     91          6           0        6.188396    1.548457    0.365998
     92          7           0        7.034281    1.268402   -0.656081
     93          1           0        7.025565    1.784833   -1.522150
     94          1           0        7.814620    0.652125   -0.471485
     95          8           0        6.294411    0.985469    1.459473
     96          7           0        4.712453    2.633837    3.181850
     97          1           0        5.478131    2.126598    2.728392
     98          6           0        5.045419    3.605773    4.203305
     99          1           0        4.212780    4.317423    4.275856
    100          6           0        6.299301    4.353919    3.720130
    101          6           0        5.175949    2.899148    5.586263
    102          1           0        5.961318    2.139091    5.493103
    103          8           0        6.985527    3.925962    2.791628
    104          6           0        5.525536    3.823935    6.753910
    105          1           0        6.556535    4.190854    6.706043
    106          1           0        4.828367    4.672169    6.810833
    107          1           0        5.412777    3.253430    7.679918
    108          8           0        3.972373    2.192485    5.860566
    109          1           0        3.236932    2.597037    5.367594
    110          7           0        6.595337    5.513235    4.365168
    111          1           0        6.094553    5.727194    5.217266
    112          6           0        7.925676    6.118007    4.225188
    113          1           0        8.117341    6.230916    3.154392
    114          6           0        8.947726    5.149600    4.863206
    115          6           0        7.959003    7.472281    4.925453
    116          1           0        8.925115    7.957974    4.759022
    117          1           0        7.168877    8.125396    4.541744
    118          1           0        7.835012    7.335944    6.004438
    119          8           0        8.994683    5.009331    6.085789
    120          7           0        9.718788    4.474311    3.983245
    121          1           0        9.524409    4.552220    2.992762
    122          6           0       10.633861    3.411634    4.360460
    123          1           0       10.875757    3.556547    5.416263
    124          6           0       11.877672    3.529178    3.475754
    125          6           0       10.026976    2.006649    4.119891
    126          1           0        9.812367    1.930031    3.046013
    127          1           0       10.798834    1.254788    4.338577
    128          8           0       11.788010    3.856489    2.297437
    129          6           0        8.751026    1.692169    4.917207
    130          1           0        8.036170    2.494332    4.705042
    131          6           0        8.136447    0.378988    4.410501
    132          1           0        8.833119   -0.458319    4.552034
    133          1           0        7.877990    0.440383    3.347787
    134          1           0        7.219463    0.137522    4.961766
    135          6           0        8.995647    1.652207    6.431127
    136          1           0        9.754345    0.899352    6.685140
    137          1           0        8.074862    1.381422    6.961781
    138          1           0        9.317837    2.625779    6.812056
    139          7           0       13.058951    3.198955    4.078028
    140          1           0       13.015794    2.789457    5.002444
    141          6           0       14.253134    2.934265    3.296475
    142          1           0       14.178975    3.548871    2.395140
    143          6           0       14.350741    1.487675    2.801278
    144          6           0       15.527102    3.299875    4.069063
    145          1           0       16.405821    3.082861    3.457123
    146          1           0       15.515494    4.363029    4.323820
    147          1           0       15.604414    2.720579    4.997236
    148          8           0       15.219695    1.093192    2.059134
    149          8           0       13.379377    0.684309    3.300981
    150          1           0       13.541129   -0.202550    2.926923
 ---------------------------------------------------------------------

 SCF Done:  E(RB3LYP) =  -3455.68883773     A.U. after    2 cycles

 Alpha  occ. eigenvalues --  -19.26683 -19.24098 -19.21694 -19.21003 -19.19370
 Alpha  occ. eigenvalues --  -19.18660 -19.18412 -19.17832 -19.16921 -19.16913
 Alpha  occ. eigenvalues --  -19.16900 -19.16625 -19.16241 -19.15486 -19.14829
 Alpha  occ. eigenvalues --  -14.60446 -14.49251 -14.45196 -14.43038 -14.41618
 Alpha  occ. eigenvalues --  -14.41343 -14.40993 -14.40539 -14.40264 -14.39615
 Alpha  occ. eigenvalues --  -14.39429 -10.43415 -10.40741 -10.38691 -10.36343
 Alpha  occ. eigenvalues --  -10.35950 -10.35374 -10.34520 -10.34018 -10.33886
 Alpha  occ. eigenvalues --  -10.33873 -10.33415 -10.33390 -10.32526 -10.32040
 Alpha  occ. eigenvalues --  -10.31176 -10.30610 -10.30288 -10.30182 -10.29137
 Alpha  occ. eigenvalues --  -10.28687 -10.28264 -10.27985 -10.27952 -10.27844
 Alpha  occ. eigenvalues --  -10.27740 -10.27693 -10.27539 -10.27350 -10.27287
 Alpha  occ. eigenvalues --  -10.26633 -10.26238 -10.25727 -10.24858 -10.24609
 Alpha  occ. eigenvalues --  -10.24503 -10.24384 -10.22649 -10.22368 -10.21696
 Alpha  occ. eigenvalues --  -10.21544 -10.21071 -10.20725 -10.19038 -10.19012
 Alpha  occ. eigenvalues --   -1.19204  -1.14671  -1.14238  -1.13563  -1.11388
 Alpha  occ. eigenvalues --   -1.10283  -1.09229  -1.08813  -1.08572  -1.08301
 Alpha  occ. eigenvalues --   -1.08000  -1.07602  -1.06463  -1.06303  -1.06024
 Alpha  occ. eigenvalues --   -1.05610  -1.04046  -1.01849  -0.99700  -0.98322
 Alpha  occ. eigenvalues --   -0.97400  -0.97277  -0.96909  -0.96710  -0.95986
 Alpha  occ. eigenvalues --   -0.95840  -0.94806  -0.90785  -0.88408  -0.87938
 Alpha  occ. eigenvalues --   -0.85157  -0.84175  -0.83956  -0.82647  -0.82428
 Alpha  occ. eigenvalues --   -0.81817  -0.81405  -0.79992  -0.79927  -0.78629
 Alpha  occ. eigenvalues --   -0.77967  -0.77887  -0.77289  -0.76920  -0.75703
 Alpha  occ. eigenvalues --   -0.75599  -0.74151  -0.74122  -0.73310  -0.72258
 Alpha  occ. eigenvalues --   -0.71348  -0.71345  -0.70233  -0.69805  -0.69155
 Alpha  occ. eigenvalues --   -0.68627  -0.68065  -0.67726  -0.67141  -0.66983
 Alpha  occ. eigenvalues --   -0.65822  -0.65431  -0.65127  -0.64618  -0.64244
 Alpha  occ. eigenvalues --   -0.64161  -0.63986  -0.63408  -0.63246  -0.62903
 Alpha  occ. eigenvalues --   -0.62506  -0.62292  -0.62228  -0.61589  -0.60078
 Alpha  occ. eigenvalues --   -0.59441  -0.59145  -0.58933  -0.58887  -0.58729
 Alpha  occ. eigenvalues --   -0.57940  -0.57292  -0.56748  -0.56176  -0.55962
 Alpha  occ. eigenvalues --   -0.55181  -0.54989  -0.54726  -0.54638  -0.54505
 Alpha  occ. eigenvalues --   -0.54150  -0.53900  -0.53526  -0.53479  -0.53038
 Alpha  occ. eigenvalues --   -0.52650  -0.52489  -0.52417  -0.52331  -0.51905
 Alpha  occ. eigenvalues --   -0.51727  -0.51631  -0.51443  -0.51304  -0.50700
 Alpha  occ. eigenvalues --   -0.50410  -0.50242  -0.50122  -0.49873  -0.49698
 Alpha  occ. eigenvalues --   -0.49567  -0.49265  -0.49070  -0.48884  -0.48694
 Alpha  occ. eigenvalues --   -0.48347  -0.48284  -0.48192  -0.47840  -0.47619
 Alpha  occ. eigenvalues --   -0.47543  -0.47349  -0.47061  -0.46642  -0.46590
 Alpha  occ. eigenvalues --   -0.46387  -0.46099  -0.45843  -0.45770  -0.45468
 Alpha  occ. eigenvalues --   -0.45308  -0.45148  -0.45113  -0.45034  -0.44873
 Alpha  occ. eigenvalues --   -0.44652  -0.44592  -0.44373  -0.44172  -0.44042
 Alpha  occ. eigenvalues --   -0.44009  -0.43763  -0.43613  -0.43340  -0.43184
 Alpha  occ. eigenvalues --   -0.43039  -0.42870  -0.42750  -0.42468  -0.42432
 Alpha  occ. eigenvalues --   -0.42240  -0.41810  -0.41794  -0.41697  -0.41385
 Alpha  occ. eigenvalues --   -0.41256  -0.41140  -0.41070  -0.41016  -0.40874
 Alpha  occ. eigenvalues --   -0.40791  -0.40586  -0.40468  -0.40364  -0.40332
 Alpha  occ. eigenvalues --   -0.40183  -0.40079  -0.39770  -0.39635  -0.39285
 Alpha  occ. eigenvalues --   -0.38692  -0.38226  -0.37016  -0.36365  -0.35763
 Alpha  occ. eigenvalues --   -0.35718  -0.35123  -0.35014  -0.34636  -0.34586
 Alpha  occ. eigenvalues --   -0.34184  -0.33508  -0.33157  -0.33000  -0.32501
 Alpha  occ. eigenvalues --   -0.32416  -0.32068  -0.31988  -0.31433  -0.31085
 Alpha  occ. eigenvalues --   -0.30978  -0.30618  -0.30340  -0.30141  -0.29934
 Alpha  occ. eigenvalues --   -0.29246  -0.28945  -0.28684  -0.28105  -0.27562
 Alpha virt. eigenvalues --   -0.12476  -0.11171  -0.07684  -0.06503  -0.05358
 Alpha virt. eigenvalues --   -0.04851  -0.04012  -0.03587  -0.03073  -0.03017
 Alpha virt. eigenvalues --   -0.02720  -0.02385  -0.01881  -0.01670  -0.01289

 Mulliken charges:
               1
     1  N   -0.751739
     2  H    0.417052
     3  H    0.413733
     4  H    0.430955
     5  C   -0.123331
     6  H    0.213172
     7  C    0.645569
     8  C   -0.283945
     9  H    0.172073
    10  H    0.162798
    11  O   -0.540372
    12  C   -0.112393
    13  H    0.167991
    14  C   -0.455866
    15  H    0.153633
    16  H    0.131986
    17  H    0.192527
    18  C   -0.452858
    19  H    0.153809
    20  H    0.154994
    21  H    0.179350
    22  N   -0.597227
    23  H    0.382992
    24  C   -0.075593
    25  H    0.186097
    26  C    0.629907
    27  C   -0.077064
    28  H    0.148710
    29  O   -0.555325
    30  C   -0.476715
    31  H    0.154050
    32  H    0.176154
    33  H    0.167572
    34  C   -0.445406
    35  H    0.162143
    36  H    0.167603
    37  H    0.130552
    38  N   -0.597085
    39  H    0.366288
    40  C   -0.075562
    41  H    0.189538
    42  C    0.635578
    43  C   -0.079227
    44  H    0.151325
    45  O   -0.560356
    46  C   -0.453031
    47  H    0.137708
    48  H    0.161237
    49  H    0.155259
    50  C   -0.461782
    51  H    0.142217
    52  H    0.166119
    53  H    0.160231
    54  N   -0.605457
    55  H    0.367245
    56  C   -0.069092
    57  H    0.185448
    58  C    0.633159
    59  C   -0.047287
    60  H    0.161874
    61  H    0.145828
    62  O   -0.532051
    63  O   -0.612832
    64  H    0.405878
    65  N   -0.635419
    66  H    0.362246
    67  C   -0.087748
    68  H    0.182136
    69  C    0.648674
    70  C    0.133971
    71  H    0.152719
    72  O   -0.557406
    73  C   -0.452533
    74  H    0.158268
    75  H    0.142095
    76  H    0.164051
    77  O   -0.614341
    78  H    0.389779
    79  N   -0.624265
    80  H    0.359476
    81  C   -0.045929
    82  H    0.214578
    83  C    0.605413
    84  C   -0.268669
    85  H    0.152820
    86  H    0.178275
    87  O   -0.579336
    88  C   -0.389139
    89  H    0.206152
    90  H    0.141142
    91  C    0.637659
    92  N   -0.737221
    93  H    0.346823
    94  H    0.352294
    95  O   -0.521976
    96  N   -0.609436
    97  H    0.414926
    98  C   -0.149307
    99  H    0.175526
   100  C    0.636909
   101  C    0.183602
   102  H    0.156399
   103  O   -0.544618
   104  C   -0.506649
   105  H    0.181253
   106  H    0.129633
   107  H    0.177441
   108  O   -0.646400
   109  H    0.412870
   110  N   -0.592208
   111  H    0.345090
   112  C   -0.039381
   113  H    0.164144
   114  C    0.627334
   115  C   -0.479348
   116  H    0.171396
   117  H    0.159076
   118  H    0.180214
   119  O   -0.542554
   120  N   -0.571625
   121  H    0.355060
   122  C   -0.090618
   123  H    0.174768
   124  C    0.633586
   125  C   -0.257910
   126  H    0.150468
   127  H    0.141237
   128  O   -0.532984
   129  C   -0.078784
   130  H    0.138246
   131  C   -0.471657
   132  H    0.128992
   133  H    0.174151
   134  H    0.147757
   135  C   -0.469918
   136  H    0.126741
   137  H    0.143375
   138  H    0.178111
   139  N   -0.592574
   140  H    0.334499
   141  C   -0.057682
   142  H    0.217482
   143  C    0.596343
   144  C   -0.460814
   145  H    0.189274
   146  H    0.173291
   147  H    0.150737
   148  O   -0.455766
   149  O   -0.568664
   150  H    0.415617
 Sum of Mulliken charges =   1.00000

 Dipole moment (field-independent basis, Debye):
    X=            -30.9162    Y=            -25.7426    Z=            -28.9285  Tot=             49.5515
 Quadrupole moment (field-independent basis, Debye-Ang):
   XX=             17.7087   YY=           -175.3986   ZZ=           -212.1825
   XY=            305.4023   XZ=            276.5207   YZ=            214.1421

 Normal termination of Gaussian 16 at Mon Jul 18 20:55:21 2022.
