 Gaussian 16, Revision C.01,
 Gaussian 16:  ES64L-G16RevC.01  3-Jul-2019

 ----------------------------------------------------------------------
 # B3LYP/6-31G* empiricaldispersion=gd3 guess=read geom=check nosymm in
 tegral(ultrafinegrid)
 ----------------------------------------------------------------------

 ------------------------------------------------------
 Candidate Structure: Conf:961 Charge calc in gas phase
 ------------------------------------------------------
 Structure from the checkpoint file:  "conf-961.chk"
 Charge =  1 Multiplicity = 1

                          Input orientation:
 ---------------------------------------------------------------------
 Center     Atomic      Atomic             Coordinates (Angstroms)
 Number     Number       Type             X           Y           Z
 ---------------------------------------------------------------------
      1          7           0       -4.538715   -8.389149   -4.631700
      2          1           0       -4.674602   -8.913447   -5.501749
      3          1           0       -4.774785   -8.995072   -3.840478
      4          1           0       -3.528879   -8.075642   -4.588859
      5          6           0       -5.279318   -7.062710   -4.610559
      6          1           0       -6.145382   -7.140327   -5.269830
      7          6           0       -4.204597   -6.079461   -5.135481
      8          6           0       -5.683603   -6.744961   -3.157200
      9          1           0       -4.773899   -6.778696   -2.542117
     10          1           0       -6.350921   -7.546528   -2.807758
     11          8           0       -3.019171   -6.413768   -5.001193
     12          6           0       -6.388624   -5.387369   -2.941878
     13          1           0       -5.712627   -4.589304   -3.267786
     14          6           0       -7.696131   -5.269502   -3.737567
     15          1           0       -8.414949   -6.038082   -3.427257
     16          1           0       -7.556556   -5.363740   -4.821914
     17          1           0       -8.152048   -4.289939   -3.569299
     18          6           0       -6.645465   -5.187558   -1.441067
     19          1           0       -7.327834   -5.951672   -1.049047
     20          1           0       -5.714916   -5.229785   -0.864586
     21          1           0       -7.103554   -4.209245   -1.264063
     22          7           0       -4.645109   -4.935562   -5.651388
     23          1           0       -5.638326   -4.711477   -5.633343
     24          6           0       -3.807775   -3.743049   -5.839104
     25          1           0       -2.837911   -3.945435   -5.374422
     26          6           0       -4.582720   -2.642193   -5.085825
     27          6           0       -3.606251   -3.406096   -7.336352
     28          1           0       -4.603867   -3.216172   -7.756322
     29          8           0       -5.817440   -2.637934   -5.125840
     30          6           0       -2.754906   -2.137908   -7.496294
     31          1           0       -1.763285   -2.271436   -7.044715
     32          1           0       -3.223617   -1.263050   -7.035769
     33          1           0       -2.605809   -1.917476   -8.557669
     34          6           0       -2.969342   -4.592055   -8.072601
     35          1           0       -1.982581   -4.827382   -7.656430
     36          1           0       -2.840955   -4.354266   -9.133291
     37          1           0       -3.589117   -5.492146   -8.004907
     38          7           0       -3.845231   -1.753063   -4.403167
     39          1           0       -2.836738   -1.848731   -4.327976
     40          6           0       -4.423212   -0.733952   -3.534023
     41          1           0       -5.180409   -0.179895   -4.100512
     42          6           0       -3.253527    0.183869   -3.158618
     43          6           0       -5.118391   -1.368945   -2.284719
     44          1           0       -5.941935   -1.953362   -2.711870
     45          8           0       -2.101598   -0.253779   -3.120636
     46          6           0       -4.193935   -2.319459   -1.512755
     47          1           0       -3.323472   -1.818544   -1.079048
     48          1           0       -3.825900   -3.127096   -2.156165
     49          1           0       -4.746932   -2.780768   -0.687507
     50          6           0       -5.728725   -0.302469   -1.365260
     51          1           0       -4.957197    0.280661   -0.851637
     52          1           0       -6.383359    0.386378   -1.916145
     53          1           0       -6.341351   -0.780258   -0.594079
     54          7           0       -3.556707    1.473287   -2.859423
     55          1           0       -4.531331    1.727885   -2.755318
     56          6           0       -2.557561    2.422789   -2.361180
     57          1           0       -1.605395    2.124775   -2.816660
     58          6           0       -2.314219    2.357580   -0.838526
     59          6           0       -2.877043    3.840838   -2.841764
     60          1           0       -2.301103    4.557855   -2.257741
     61          1           0       -3.942287    4.072915   -2.683734
     62          8           0       -2.175227    3.386221   -0.178094
     63          8           0       -2.494792    4.026228   -4.198831
     64          1           0       -2.950620    3.365078   -4.743628
     65          7           0       -2.159089    1.109248   -0.326051
     66          1           0       -2.044312    0.329016   -0.967974
     67          6           0       -1.476292    0.913701    0.959322
     68          1           0       -1.806138    1.699778    1.642590
     69          6           0        0.034180    1.045923    0.683955
     70          6           0       -1.801202   -0.476494    1.533269
     71          1           0       -1.139732   -0.617250    2.398961
     72          8           0        0.756917    0.045913    0.546308
     73          6           0       -3.253118   -0.610259    1.965275
     74          1           0       -3.485856    0.094191    2.770727
     75          1           0       -3.929388   -0.416674    1.127205
     76          1           0       -3.433202   -1.626959    2.326354
     77          8           0       -1.543721   -1.470052    0.538340
     78          1           0       -0.580933   -1.406851    0.374238
     79          7           0        0.480796    2.303851    0.513140
     80          1           0       -0.170878    3.069385    0.648971
     81          6           0        1.864967    2.624570    0.131430
     82          1           0        2.227674    1.770838   -0.452583
     83          6           0        2.682299    2.717352    1.439845
     84          6           0        1.916518    3.900854   -0.703334
     85          1           0        2.954711    4.104643   -0.976717
     86          1           0        1.604536    4.753732   -0.090591
     87          8           0        3.127103    3.772384    1.879851
     88          6           0        1.061530    3.807411   -1.972495
     89          1           0       -0.003772    3.764728   -1.718993
     90          1           0        1.291746    2.878719   -2.516517
     91          6           0        1.318027    4.981722   -2.923590
     92          7           0        0.336994    5.208470   -3.846360
     93          1           0       -0.482378    4.627031   -3.976756
     94          1           0        0.505107    5.941762   -4.521283
     95          8           0        2.333159    5.660556   -2.862618
     96          7           0        2.776508    1.527173    2.091196
     97          1           0        2.310456    0.725863    1.674052
     98          6           0        3.022080    1.469274    3.528310
     99          1           0        2.853506    2.480278    3.922229
    100          6           0        4.493173    1.084278    3.781431
    101          6           0        2.023542    0.494694    4.181396
    102          1           0        2.216247   -0.510237    3.793815
    103          8           0        4.824612   -0.029282    4.188555
    104          6           0        2.129047    0.484230    5.702270
    105          1           0        3.117201    0.136713    6.011656
    106          1           0        1.968358    1.491950    6.110149
    107          1           0        1.367457   -0.181030    6.120070
    108          8           0        0.685350    0.807170    3.753083
    109          1           0        0.453588    1.662129    4.151637
    110          7           0        5.367813    2.070965    3.483890
    111          1           0        5.050292    2.959755    3.099726
    112          6           0        6.802629    1.864468    3.559460
    113          1           0        7.022056    1.347315    4.501231
    114          6           0        7.467138    3.247708    3.551822
    115          6           0        7.323001    1.004964    2.391610
    116          1           0        8.401571    0.835618    2.478846
    117          1           0        6.811831    0.039068    2.405966
    118          1           0        7.123354    1.505709    1.438379
    119          8           0        6.876784    4.248909    3.149009
    120          7           0        8.753583    3.266743    3.971434
    121          1           0        9.218117    2.440389    4.330572
    122          6           0        9.550383    4.482515    3.962507
    123          1           0        9.316381    5.027148    3.042460
    124          6           0       11.017794    4.042965    3.980094
    125          6           0        9.211352    5.369447    5.187424
    126          1           0        8.123301    5.505766    5.170402
    127          1           0        9.454651    4.792202    6.088881
    128          8           0       11.360466    2.975632    4.487465
    129          6           0        9.889711    6.750693    5.256107
    130          1           0       10.979122    6.612970    5.269823
    131          6           0        9.531784    7.637389    4.052897
    132          1           0        8.445345    7.768385    3.977085
    133          1           0        9.870895    7.220066    3.096616
    134          1           0        9.987783    8.628822    4.151769
    135          6           0        9.492497    7.448785    6.565691
    136          1           0        8.408874    7.618706    6.603629
    137          1           0        9.986897    8.422696    6.658530
    138          1           0        9.768035    6.845745    7.438769
    139          7           0       11.901887    4.917171    3.436765
    140          1           0       11.571948    5.799362    3.072133
    141          6           0       13.339046    4.700890    3.536091
    142          1           0       13.517767    4.165695    4.476692
    143          6           0       14.112595    6.009851    3.635139
    144          6           0       13.885570    3.840447    2.386340
    145          1           0       14.963006    3.700176    2.503209
    146          1           0       13.386211    2.868669    2.407233
    147          1           0       13.693787    4.318346    1.419809
    148          8           0       15.318501    6.076018    3.631706
    149          8           0       13.312038    7.104042    3.726961
    150          1           0       13.905206    7.876954    3.786464
 ---------------------------------------------------------------------

 SCF Done:  E(RB3LYP) =  -3455.68598193     A.U. after    1 cycles

 Alpha  occ. eigenvalues --  -19.27639 -19.24759 -19.24137 -19.23060 -19.22984
 Alpha  occ. eigenvalues --  -19.20667 -19.20130 -19.19999 -19.19273 -19.18357
 Alpha  occ. eigenvalues --  -19.16232 -19.15843 -19.14666 -19.14477 -19.14446
 Alpha  occ. eigenvalues --  -14.61433 -14.50513 -14.47646 -14.47158 -14.44191
 Alpha  occ. eigenvalues --  -14.42883 -14.40500 -14.39623 -14.39068 -14.38747
 Alpha  occ. eigenvalues --  -14.38279 -10.44467 -10.41731 -10.40095 -10.40041
 Alpha  occ. eigenvalues --  -10.37690 -10.36710 -10.35936 -10.35171 -10.34345
 Alpha  occ. eigenvalues --  -10.34050 -10.32984 -10.32865 -10.32841 -10.32448
 Alpha  occ. eigenvalues --  -10.32195 -10.31817 -10.31733 -10.31610 -10.30210
 Alpha  occ. eigenvalues --  -10.30131 -10.30005 -10.29187 -10.29023 -10.28687
 Alpha  occ. eigenvalues --  -10.28427 -10.28309 -10.28300 -10.27132 -10.27106
 Alpha  occ. eigenvalues --  -10.26929 -10.26902 -10.26818 -10.26436 -10.25658
 Alpha  occ. eigenvalues --  -10.24287 -10.23896 -10.23263 -10.22148 -10.21767
 Alpha  occ. eigenvalues --  -10.21615 -10.21549 -10.21181 -10.20710 -10.20244
 Alpha  occ. eigenvalues --   -1.20198  -1.15543  -1.15288  -1.15134  -1.14613
 Alpha  occ. eigenvalues --   -1.12617  -1.11266  -1.10925  -1.08116  -1.07951
 Alpha  occ. eigenvalues --   -1.07444  -1.07190  -1.06941  -1.06720  -1.06362
 Alpha  occ. eigenvalues --   -1.06227  -1.05913  -1.03825  -1.03499  -1.00604
 Alpha  occ. eigenvalues --   -0.99169  -0.97102  -0.96453  -0.95825  -0.95699
 Alpha  occ. eigenvalues --   -0.94854  -0.93439  -0.92052  -0.90164  -0.89120
 Alpha  occ. eigenvalues --   -0.86594  -0.84949  -0.84598  -0.83911  -0.83435
 Alpha  occ. eigenvalues --   -0.82225  -0.81872  -0.81510  -0.80153  -0.80015
 Alpha  occ. eigenvalues --   -0.79241  -0.78930  -0.78100  -0.77456  -0.77042
 Alpha  occ. eigenvalues --   -0.76659  -0.75123  -0.74254  -0.74056  -0.73652
 Alpha  occ. eigenvalues --   -0.73020  -0.71866  -0.71387  -0.71062  -0.70488
 Alpha  occ. eigenvalues --   -0.69673  -0.69194  -0.68472  -0.68279  -0.68088
 Alpha  occ. eigenvalues --   -0.67467  -0.66680  -0.66495  -0.65891  -0.65853
 Alpha  occ. eigenvalues --   -0.65245  -0.64323  -0.64263  -0.63525  -0.63364
 Alpha  occ. eigenvalues --   -0.62562  -0.61905  -0.61802  -0.61441  -0.60604
 Alpha  occ. eigenvalues --   -0.60412  -0.60207  -0.59823  -0.59644  -0.59275
 Alpha  occ. eigenvalues --   -0.58535  -0.58461  -0.57913  -0.57638  -0.57383
 Alpha  occ. eigenvalues --   -0.57133  -0.56711  -0.56509  -0.56301  -0.56029
 Alpha  occ. eigenvalues --   -0.55812  -0.55341  -0.54913  -0.54550  -0.53832
 Alpha  occ. eigenvalues --   -0.53429  -0.53335  -0.53168  -0.52712  -0.52607
 Alpha  occ. eigenvalues --   -0.52541  -0.52228  -0.52095  -0.51552  -0.51383
 Alpha  occ. eigenvalues --   -0.51299  -0.51125  -0.50997  -0.50791  -0.50554
 Alpha  occ. eigenvalues --   -0.50382  -0.50301  -0.49907  -0.49735  -0.49345
 Alpha  occ. eigenvalues --   -0.49224  -0.49191  -0.48743  -0.48709  -0.48628
 Alpha  occ. eigenvalues --   -0.48499  -0.48152  -0.47882  -0.47789  -0.47740
 Alpha  occ. eigenvalues --   -0.47735  -0.47550  -0.47098  -0.46872  -0.46559
 Alpha  occ. eigenvalues --   -0.46233  -0.46007  -0.45660  -0.45531  -0.45468
 Alpha  occ. eigenvalues --   -0.45350  -0.45237  -0.45143  -0.45100  -0.44889
 Alpha  occ. eigenvalues --   -0.44854  -0.44685  -0.44424  -0.44131  -0.43946
 Alpha  occ. eigenvalues --   -0.43610  -0.43555  -0.43474  -0.43348  -0.43185
 Alpha  occ. eigenvalues --   -0.43015  -0.42955  -0.42711  -0.42683  -0.42217
 Alpha  occ. eigenvalues --   -0.42015  -0.41995  -0.41695  -0.41487  -0.41420
 Alpha  occ. eigenvalues --   -0.41179  -0.41033  -0.40756  -0.40563  -0.40470
 Alpha  occ. eigenvalues --   -0.40229  -0.39954  -0.39915  -0.39492  -0.39309
 Alpha  occ. eigenvalues --   -0.38866  -0.38839  -0.38657  -0.38057  -0.37324
 Alpha  occ. eigenvalues --   -0.37280  -0.36841  -0.36685  -0.36612  -0.36207
 Alpha  occ. eigenvalues --   -0.36117  -0.35736  -0.35711  -0.35489  -0.33842
 Alpha  occ. eigenvalues --   -0.33457  -0.33073  -0.32490  -0.32460  -0.31473
 Alpha  occ. eigenvalues --   -0.31175  -0.30051  -0.29982  -0.29678  -0.29203
 Alpha  occ. eigenvalues --   -0.28800  -0.28372  -0.28335  -0.27542  -0.27171
 Alpha virt. eigenvalues --   -0.13575  -0.11989  -0.09929  -0.08830  -0.07841
 Alpha virt. eigenvalues --   -0.07273  -0.05994  -0.04917  -0.04118  -0.03589
 Alpha virt. eigenvalues --   -0.02834  -0.02338  -0.02198  -0.01954  -0.01580

 Mulliken charges:
               1
     1  N   -0.749807
     2  H    0.419219
     3  H    0.416158
     4  H    0.432344
     5  C   -0.124875
     6  H    0.214045
     7  C    0.645264
     8  C   -0.285533
     9  H    0.176329
    10  H    0.165929
    11  O   -0.534262
    12  C   -0.113497
    13  H    0.165107
    14  C   -0.456588
    15  H    0.157847
    16  H    0.131229
    17  H    0.191078
    18  C   -0.453429
    19  H    0.156936
    20  H    0.163059
    21  H    0.171301
    22  N   -0.596596
    23  H    0.379452
    24  C   -0.070831
    25  H    0.186415
    26  C    0.635992
    27  C   -0.079316
    28  H    0.152451
    29  O   -0.554887
    30  C   -0.466589
    31  H    0.154960
    32  H    0.159192
    33  H    0.174451
    34  C   -0.447104
    35  H    0.162603
    36  H    0.171412
    37  H    0.133888
    38  N   -0.617356
    39  H    0.367334
    40  C   -0.030141
    41  H    0.174645
    42  C    0.612757
    43  C   -0.097706
    44  H    0.166856
    45  O   -0.538477
    46  C   -0.480814
    47  H    0.207815
    48  H    0.124466
    49  H    0.154143
    50  C   -0.487155
    51  H    0.170401
    52  H    0.142559
    53  H    0.169764
    54  N   -0.618185
    55  H    0.345918
    56  C   -0.113781
    57  H    0.217707
    58  C    0.629729
    59  C   -0.057137
    60  H    0.213168
    61  H    0.144612
    62  O   -0.531761
    63  O   -0.609417
    64  H    0.400958
    65  N   -0.610756
    66  H    0.375333
    67  C   -0.090471
    68  H    0.182726
    69  C    0.664862
    70  C    0.117896
    71  H    0.176447
    72  O   -0.580360
    73  C   -0.464646
    74  H    0.153629
    75  H    0.151880
    76  H    0.163149
    77  O   -0.656908
    78  H    0.423217
    79  N   -0.606363
    80  H    0.368993
    81  C   -0.084310
    82  H    0.181234
    83  C    0.616891
    84  C   -0.276397
    85  H    0.199660
    86  H    0.172620
    87  O   -0.517535
    88  C   -0.396038
    89  H    0.147233
    90  H    0.160397
    91  C    0.606781
    92  N   -0.789314
    93  H    0.367714
    94  H    0.338790
    95  O   -0.500072
    96  N   -0.606467
    97  H    0.374877
    98  C   -0.086691
    99  H    0.164339
   100  C    0.645473
   101  C    0.117371
   102  H    0.164935
   103  O   -0.548897
   104  C   -0.478005
   105  H    0.194218
   106  H    0.132840
   107  H    0.158024
   108  O   -0.634019
   109  H    0.387140
   110  N   -0.622467
   111  H    0.375936
   112  C   -0.033666
   113  H    0.171300
   114  C    0.618927
   115  C   -0.449464
   116  H    0.149342
   117  H    0.183779
   118  H    0.157176
   119  O   -0.536430
   120  N   -0.625324
   121  H    0.350919
   122  C   -0.047325
   123  H    0.173346
   124  C    0.613606
   125  C   -0.255866
   126  H    0.169694
   127  H    0.143068
   128  O   -0.539463
   129  C   -0.094683
   130  H    0.135332
   131  C   -0.449440
   132  H    0.161070
   133  H    0.127528
   134  H    0.146378
   135  C   -0.443314
   136  H    0.145729
   137  H    0.143141
   138  H    0.145274
   139  N   -0.616211
   140  H    0.358109
   141  C   -0.045370
   142  H    0.213210
   143  C    0.588089
   144  C   -0.442711
   145  H    0.181360
   146  H    0.178966
   147  H    0.151193
   148  O   -0.448998
   149  O   -0.578544
   150  H    0.421139
 Sum of Mulliken charges =   1.00000

 Dipole moment (field-independent basis, Debye):
    X=            -26.2053    Y=            -26.5359    Z=            -21.2447  Tot=             42.9210
 Quadrupole moment (field-independent basis, Debye-Ang):
   XX=           -267.2209   YY=           -165.7637   ZZ=           -291.6144
   XY=            177.9972   XZ=            110.6615   YZ=            155.9997

 Normal termination of Gaussian 16 at Mon Jul 18 20:48:38 2022.
