 Gaussian 16, Revision C.01,
 Gaussian 16:  ES64L-G16RevC.01  3-Jul-2019

 ----------------------------------------------------------------------
 # B3LYP/6-31G* empiricaldispersion=gd3 guess=read geom=check nosymm in
 tegral(ultrafinegrid)
 ----------------------------------------------------------------------

 ------------------------------------------------------
 Candidate Structure: Conf:684 Charge calc in gas phase
 ------------------------------------------------------
 Structure from the checkpoint file:  "conf-684.chk"
 Charge =  1 Multiplicity = 1

                          Input orientation:
 ---------------------------------------------------------------------
 Center     Atomic      Atomic             Coordinates (Angstroms)
 Number     Number       Type             X           Y           Z
 ---------------------------------------------------------------------
      1          7           0       -0.103408   -5.716676   -6.482412
      2          1           0        0.643513   -5.521667   -7.153369
      3          1           0       -0.547699   -6.602510   -6.737289
      4          1           0        0.307154   -5.750952   -5.490575
      5          6           0       -1.094508   -4.579295   -6.333358
      6          1           0       -0.897016   -3.849559   -7.120541
      7          6           0       -0.728739   -4.005423   -4.936263
      8          6           0       -2.539039   -5.092884   -6.387275
      9          1           0       -3.193143   -4.242924   -6.157249
     10          1           0       -2.679351   -5.810424   -5.566491
     11          8           0        0.067726   -4.660855   -4.242338
     12          6           0       -2.980170   -5.718156   -7.727137
     13          1           0       -2.332047   -6.584272   -7.949784
     14          6           0       -4.414509   -6.250368   -7.587611
     15          1           0       -5.112032   -5.429605   -7.381939
     16          1           0       -4.498421   -6.977337   -6.772019
     17          1           0       -4.737026   -6.740073   -8.511650
     18          6           0       -2.871697   -4.728053   -8.895563
     19          1           0       -3.479437   -3.835273   -8.704027
     20          1           0       -1.841839   -4.400254   -9.084042
     21          1           0       -3.236246   -5.185359   -9.820511
     22          7           0       -1.321770   -2.872097   -4.605106
     23          1           0       -2.049165   -2.460479   -5.191966
     24          6           0       -1.286001   -2.242482   -3.283043
     25          1           0       -1.049412   -3.007667   -2.538962
     26          6           0       -2.711466   -1.695406   -3.084818
     27          6           0       -0.235846   -1.094042   -3.205564
     28          1           0       -0.355343   -0.648337   -2.212431
     29          8           0       -3.417250   -1.464893   -4.073192
     30          6           0        1.187268   -1.653323   -3.339491
     31          1           0        1.353170   -2.069365   -4.340958
     32          1           0        1.401573   -2.435851   -2.606643
     33          1           0        1.915132   -0.847539   -3.193428
     34          6           0       -0.497818    0.007220   -4.241019
     35          1           0       -0.401220   -0.378139   -5.264315
     36          1           0        0.238599    0.807232   -4.116391
     37          1           0       -1.490211    0.447982   -4.126189
     38          7           0       -3.081110   -1.463977   -1.809583
     39          1           0       -2.347387   -1.550910   -1.101230
     40          6           0       -4.145857   -0.505045   -1.528572
     41          1           0       -4.930269   -0.653083   -2.278157
     42          6           0       -3.514933    0.898690   -1.709506
     43          6           0       -4.734264   -0.742744   -0.110037
     44          1           0       -3.957756   -0.485919    0.621575
     45          8           0       -2.279346    0.999293   -1.700589
     46          6           0       -5.956368    0.145999    0.162614
     47          1           0       -6.741220   -0.021197   -0.587674
     48          1           0       -5.705450    1.208838    0.173507
     49          1           0       -6.381847   -0.096906    1.141495
     50          6           0       -5.111075   -2.222055    0.064481
     51          1           0       -5.874105   -2.519193   -0.666297
     52          1           0       -4.249868   -2.883543   -0.063505
     53          1           0       -5.522328   -2.387919    1.065945
     54          7           0       -4.321454    1.972481   -1.830576
     55          1           0       -5.296539    1.823873   -2.061758
     56          6           0       -3.813798    3.335547   -2.089592
     57          1           0       -3.039310    3.264692   -2.862730
     58          6           0       -3.218581    3.946101   -0.785157
     59          6           0       -4.970630    4.201893   -2.576741
     60          1           0       -4.565899    5.166700   -2.910153
     61          1           0       -5.647440    4.399658   -1.735338
     62          8           0       -3.808068    4.809539   -0.147412
     63          8           0       -5.619480    3.491420   -3.628969
     64          1           0       -6.395478    4.003967   -3.901003
     65          7           0       -2.036170    3.383716   -0.430140
     66          1           0       -1.653045    2.672140   -1.050889
     67          6           0       -1.479910    3.355188    0.908617
     68          1           0       -1.444331    4.361184    1.339159
     69          6           0       -0.084731    2.714620    0.771082
     70          6           0       -2.277350    2.404659    1.859445
     71          1           0       -1.745415    2.398996    2.820533
     72          8           0        0.206755    2.064788   -0.238480
     73          6           0       -3.726685    2.800066    2.119947
     74          1           0       -3.804604    3.826428    2.489691
     75          1           0       -4.324356    2.724582    1.210967
     76          1           0       -4.144454    2.113432    2.863122
     77          8           0       -2.203924    1.063265    1.373312
     78          1           0       -2.089531    1.055927    0.405657
     79          7           0        0.737433    2.777422    1.842616
     80          1           0        0.450519    3.265260    2.681085
     81          6           0        1.971568    1.988742    1.881590
     82          1           0        2.300257    1.918623    0.838550
     83          6           0        1.716663    0.532362    2.359995
     84          6           0        3.066174    2.651460    2.720405
     85          1           0        2.852635    2.501056    3.783356
     86          1           0        3.079472    3.728387    2.530028
     87          8           0        2.288389    0.074958    3.349183
     88          6           0        4.440575    2.051779    2.382251
     89          1           0        4.756637    2.398714    1.388336
     90          1           0        4.382675    0.963032    2.350524
     91          6           0        5.505635    2.490681    3.383979
     92          7           0        6.381013    1.502565    3.756795
     93          1           0        6.133522    0.526520    3.619005
     94          1           0        7.000381    1.725358    4.525442
     95          8           0        5.583287    3.642596    3.787188
     96          7           0        0.900714   -0.228882    1.578586
     97          1           0        0.509808    0.163892    0.726556
     98          6           0        0.905862   -1.685701    1.722868
     99          1           0        1.072106   -1.909222    2.780004
    100          6           0        2.095114   -2.204195    0.881269
    101          6           0       -0.407959   -2.336812    1.260393
    102          1           0       -0.241616   -3.424137    1.284544
    103          8           0        1.920389   -2.717448   -0.236238
    104          6           0       -1.599090   -1.982880    2.131305
    105          1           0       -1.433471   -2.332208    3.156236
    106          1           0       -1.765737   -0.904517    2.141284
    107          1           0       -2.496885   -2.476456    1.743867
    108          8           0       -0.685603   -1.942981   -0.095907
    109          1           0        0.116851   -2.231139   -0.582145
    110          7           0        3.310702   -1.967337    1.408542
    111          1           0        3.384645   -1.507803    2.316651
    112          6           0        4.545157   -2.034213    0.639077
    113          1           0        4.695562   -3.058206    0.276074
    114          6           0        5.685742   -1.641229    1.594313
    115          6           0        4.522777   -1.064920   -0.561879
    116          1           0        5.447801   -1.136572   -1.142022
    117          1           0        3.680837   -1.308744   -1.212469
    118          1           0        4.415491   -0.033867   -0.207586
    119          8           0        5.445575   -1.151467    2.705363
    120          7           0        6.929415   -1.794547    1.113684
    121          1           0        7.115258   -2.207365    0.204689
    122          6           0        8.105719   -1.273348    1.799927
    123          1           0        7.843918   -0.294909    2.214549
    124          6           0        9.183817   -1.117851    0.718976
    125          6           0        8.550625   -2.227156    2.935274
    126          1           0        7.659055   -2.413177    3.546694
    127          1           0        8.832322   -3.182851    2.474981
    128          8           0        9.154427   -1.794914   -0.309453
    129          6           0        9.688388   -1.732925    3.849032
    130          1           0       10.581158   -1.546851    3.237978
    131          6           0        9.325515   -0.430765    4.581659
    132          1           0        8.422909   -0.571035    5.190812
    133          1           0        9.131351    0.407023    3.900490
    134          1           0       10.136423   -0.123788    5.250880
    135          6           0       10.039853   -2.832054    4.863076
    136          1           0        9.181117   -3.057844    5.508061
    137          1           0       10.869012   -2.520359    5.508035
    138          1           0       10.334713   -3.759969    4.359635
    139          7           0       10.158288   -0.219215    0.988794
    140          1           0       10.131911    0.306008    1.851538
    141          6           0       11.316431   -0.060152    0.117882
    142          1           0       11.511945   -1.038163   -0.336170
    143          6           0       12.572825    0.312958    0.896336
    144          6           0       11.068980    0.954416   -1.009988
    145          1           0       11.960453    1.039717   -1.636220
    146          1           0       10.228544    0.609607   -1.617672
    147          1           0       10.829777    1.940883   -0.599025
    148          8           0       13.639285    0.526344    0.373242
    149          8           0       12.371697    0.394425    2.237418
    150          1           0       13.227787    0.646724    2.633278
 ---------------------------------------------------------------------

 SCF Done:  E(RB3LYP) =  -3455.71748323     A.U. after    2 cycles

 Alpha  occ. eigenvalues --  -19.26679 -19.25933 -19.22127 -19.21941 -19.21043
 Alpha  occ. eigenvalues --  -19.20481 -19.20342 -19.20242 -19.19639 -19.19635
 Alpha  occ. eigenvalues --  -19.19633 -19.18695 -19.18430 -19.17861 -19.14712
 Alpha  occ. eigenvalues --  -14.59080 -14.48219 -14.44656 -14.44236 -14.43272
 Alpha  occ. eigenvalues --  -14.43156 -14.43151 -14.42630 -14.42427 -14.41329
 Alpha  occ. eigenvalues --  -14.38708 -10.42490 -10.39867 -10.38643 -10.37126
 Alpha  occ. eigenvalues --  -10.37124 -10.36783 -10.36539 -10.36100 -10.35744
 Alpha  occ. eigenvalues --  -10.35359 -10.35222 -10.32919 -10.32432 -10.32335
 Alpha  occ. eigenvalues --  -10.31856 -10.31052 -10.30993 -10.30979 -10.30870
 Alpha  occ. eigenvalues --  -10.30771 -10.30769 -10.30533 -10.30422 -10.30095
 Alpha  occ. eigenvalues --  -10.30067 -10.29903 -10.28719 -10.27871 -10.26873
 Alpha  occ. eigenvalues --  -10.26673 -10.25239 -10.24773 -10.24632 -10.24353
 Alpha  occ. eigenvalues --  -10.24304 -10.24228 -10.24057 -10.23949 -10.23939
 Alpha  occ. eigenvalues --  -10.23647 -10.23360 -10.23013 -10.22944 -10.22519
 Alpha  occ. eigenvalues --   -1.18375  -1.17189  -1.13073  -1.12777  -1.12118
 Alpha  occ. eigenvalues --   -1.11880  -1.11734  -1.11281  -1.10485  -1.10116
 Alpha  occ. eigenvalues --   -1.09763  -1.09192  -1.08644  -1.08361  -1.08167
 Alpha  occ. eigenvalues --   -1.06473  -1.05035  -1.00618  -1.00369  -1.00253
 Alpha  occ. eigenvalues --   -1.00026  -0.99747  -0.99612  -0.98553  -0.98307
 Alpha  occ. eigenvalues --   -0.94607  -0.93525  -0.89950  -0.88030  -0.87620
 Alpha  occ. eigenvalues --   -0.86994  -0.86404  -0.85107  -0.84473  -0.84226
 Alpha  occ. eigenvalues --   -0.83381  -0.82680  -0.81290  -0.80093  -0.79818
 Alpha  occ. eigenvalues --   -0.79122  -0.78824  -0.77725  -0.77209  -0.75952
 Alpha  occ. eigenvalues --   -0.75273  -0.75158  -0.74109  -0.73881  -0.73287
 Alpha  occ. eigenvalues --   -0.73208  -0.72218  -0.71501  -0.71154  -0.70661
 Alpha  occ. eigenvalues --   -0.69274  -0.68929  -0.68649  -0.67561  -0.67413
 Alpha  occ. eigenvalues --   -0.66584  -0.66311  -0.66300  -0.65932  -0.65425
 Alpha  occ. eigenvalues --   -0.65214  -0.65147  -0.65003  -0.64501  -0.63942
 Alpha  occ. eigenvalues --   -0.62631  -0.62442  -0.62384  -0.61826  -0.61404
 Alpha  occ. eigenvalues --   -0.61034  -0.60298  -0.60082  -0.59053  -0.58940
 Alpha  occ. eigenvalues --   -0.58758  -0.58326  -0.57764  -0.57490  -0.57243
 Alpha  occ. eigenvalues --   -0.56755  -0.56267  -0.56069  -0.55923  -0.55659
 Alpha  occ. eigenvalues --   -0.55348  -0.55051  -0.54961  -0.54571  -0.54521
 Alpha  occ. eigenvalues --   -0.54406  -0.53860  -0.53851  -0.53288  -0.53115
 Alpha  occ. eigenvalues --   -0.52648  -0.52423  -0.52110  -0.51971  -0.51649
 Alpha  occ. eigenvalues --   -0.51458  -0.51181  -0.51166  -0.50951  -0.50585
 Alpha  occ. eigenvalues --   -0.50543  -0.50375  -0.50073  -0.49927  -0.49778
 Alpha  occ. eigenvalues --   -0.49666  -0.49629  -0.49399  -0.49297  -0.49105
 Alpha  occ. eigenvalues --   -0.48670  -0.48251  -0.48208  -0.48187  -0.48017
 Alpha  occ. eigenvalues --   -0.47861  -0.47217  -0.47110  -0.47025  -0.46901
 Alpha  occ. eigenvalues --   -0.46498  -0.46329  -0.46255  -0.46006  -0.45821
 Alpha  occ. eigenvalues --   -0.45659  -0.45483  -0.45245  -0.45057  -0.44866
 Alpha  occ. eigenvalues --   -0.44806  -0.44765  -0.44714  -0.44634  -0.44573
 Alpha  occ. eigenvalues --   -0.44473  -0.44375  -0.44256  -0.44118  -0.44032
 Alpha  occ. eigenvalues --   -0.43838  -0.43714  -0.43561  -0.43084  -0.43068
 Alpha  occ. eigenvalues --   -0.42843  -0.42562  -0.42444  -0.42227  -0.42188
 Alpha  occ. eigenvalues --   -0.41482  -0.41467  -0.41313  -0.40986  -0.40934
 Alpha  occ. eigenvalues --   -0.40825  -0.40620  -0.40550  -0.40372  -0.40062
 Alpha  occ. eigenvalues --   -0.39747  -0.39447  -0.39035  -0.38934  -0.38625
 Alpha  occ. eigenvalues --   -0.38430  -0.37941  -0.37475  -0.35550  -0.35361
 Alpha  occ. eigenvalues --   -0.35030  -0.34714  -0.34630  -0.34601  -0.34388
 Alpha  occ. eigenvalues --   -0.34341  -0.33917  -0.33710  -0.33507  -0.33449
 Alpha  occ. eigenvalues --   -0.33172  -0.32614  -0.32365  -0.31533  -0.31520
 Alpha  occ. eigenvalues --   -0.31198  -0.30690  -0.30543  -0.30251  -0.28320
 Alpha virt. eigenvalues --   -0.11030  -0.10818  -0.07242  -0.06908  -0.06317
 Alpha virt. eigenvalues --   -0.06113  -0.05953  -0.05590  -0.05423  -0.04784
 Alpha virt. eigenvalues --   -0.04135  -0.03432  -0.03406  -0.01629  -0.01382

 Mulliken charges:
               1
     1  N   -0.760732
     2  H    0.413187
     3  H    0.409895
     4  H    0.433724
     5  C   -0.117043
     6  H    0.215379
     7  C    0.657435
     8  C   -0.298003
     9  H    0.198223
    10  H    0.172085
    11  O   -0.546714
    12  C   -0.096508
    13  H    0.111835
    14  C   -0.447633
    15  H    0.167186
    16  H    0.158215
    17  H    0.173116
    18  C   -0.454324
    19  H    0.169440
    20  H    0.131511
    21  H    0.181912
    22  N   -0.589574
    23  H    0.370107
    24  C   -0.093219
    25  H    0.187334
    26  C    0.632812
    27  C   -0.096154
    28  H    0.191762
    29  O   -0.561386
    30  C   -0.468128
    31  H    0.120609
    32  H    0.189086
    33  H    0.158051
    34  C   -0.459315
    35  H    0.118591
    36  H    0.163124
    37  H    0.176589
    38  N   -0.620070
    39  H    0.404094
    40  C   -0.067882
    41  H    0.179454
    42  C    0.630737
    43  C   -0.121667
    44  H    0.176223
    45  O   -0.553783
    46  C   -0.475122
    47  H    0.140916
    48  H    0.165480
    49  H    0.165084
    50  C   -0.442151
    51  H    0.144134
    52  H    0.156212
    53  H    0.156950
    54  N   -0.596515
    55  H    0.358079
    56  C   -0.065070
    57  H    0.185923
    58  C    0.629681
    59  C   -0.069302
    60  H    0.162054
    61  H    0.167003
    62  O   -0.521511
    63  O   -0.631982
    64  H    0.410825
    65  N   -0.636929
    66  H    0.405570
    67  C   -0.114638
    68  H    0.183096
    69  C    0.646745
    70  C    0.156138
    71  H    0.133453
    72  O   -0.550529
    73  C   -0.450796
    74  H    0.164707
    75  H    0.165223
    76  H    0.155436
    77  O   -0.661269
    78  H    0.426052
    79  N   -0.610892
    80  H    0.344699
    81  C   -0.063123
    82  H    0.188042
    83  C    0.617983
    84  C   -0.270964
    85  H    0.172478
    86  H    0.168674
    87  O   -0.525808
    88  C   -0.392283
    89  H    0.159312
    90  H    0.177333
    91  C    0.589963
    92  N   -0.795222
    93  H    0.388097
    94  H    0.333511
    95  O   -0.507141
    96  N   -0.604892
    97  H    0.374230
    98  C   -0.089851
    99  H    0.193108
   100  C    0.638032
   101  C    0.134641
   102  H    0.138685
   103  O   -0.568234
   104  C   -0.507347
   105  H    0.151005
   106  H    0.224397
   107  H    0.151487
   108  O   -0.690421
   109  H    0.441396
   110  N   -0.632649
   111  H    0.400515
   112  C   -0.032296
   113  H    0.179741
   114  C    0.630789
   115  C   -0.474650
   116  H    0.158533
   117  H    0.196110
   118  H    0.161300
   119  O   -0.548272
   120  N   -0.615443
   121  H    0.358897
   122  C   -0.066906
   123  H    0.180092
   124  C    0.616297
   125  C   -0.256127
   126  H    0.166032
   127  H    0.148553
   128  O   -0.541094
   129  C   -0.097115
   130  H    0.141340
   131  C   -0.465343
   132  H    0.151297
   133  H    0.136693
   134  H    0.157602
   135  C   -0.444708
   136  H    0.147625
   137  H    0.150137
   138  H    0.148569
   139  N   -0.612369
   140  H    0.362146
   141  C   -0.049872
   142  H    0.214629
   143  C    0.591929
   144  C   -0.444760
   145  H    0.186558
   146  H    0.175442
   147  H    0.156569
   148  O   -0.443645
   149  O   -0.580354
   150  H    0.424780
 Sum of Mulliken charges =   1.00000

 Dipole moment (field-independent basis, Debye):
    X=             -1.3548    Y=            -18.3061    Z=            -21.4173  Tot=             28.2072
 Quadrupole moment (field-independent basis, Debye-Ang):
   XX=           -299.6418   YY=           -310.1689   ZZ=           -234.7512
   XY=             -5.1992   XZ=             62.9820   YZ=            116.4495

 Normal termination of Gaussian 16 at Sat Jul  2 15:27:37 2022.
