 Gaussian 16, Revision C.01,
 Gaussian 16:  ES64L-G16RevC.01  3-Jul-2019

 ----------------------------------------------------------------------
 # B3LYP/6-31G* empiricaldispersion=gd3 guess=read geom=check nosymm in
 tegral(ultrafinegrid)
 ----------------------------------------------------------------------

 ------------------------------------------------------
 Candidate Structure: Conf:535 Charge calc in gas phase
 ------------------------------------------------------
 Structure from the checkpoint file:  "conf-535.chk"
 Charge =  1 Multiplicity = 1

                          Input orientation:
 ---------------------------------------------------------------------
 Center     Atomic      Atomic             Coordinates (Angstroms)
 Number     Number       Type             X           Y           Z
 ---------------------------------------------------------------------
      1          7           0       -4.945789    1.912652   -9.093933
      2          1           0       -4.100472    2.006328   -9.663431
      3          1           0       -5.533371    2.737071   -9.247319
      4          1           0       -5.450543    1.017866   -9.370468
      5          6           0       -4.656881    1.662350   -7.625893
      6          1           0       -3.600563    1.870065   -7.446433
      7          6           0       -4.966972    0.150659   -7.471125
      8          6           0       -5.562362    2.524040   -6.734173
      9          1           0       -5.404461    2.197767   -5.698751
     10          1           0       -6.607991    2.279405   -6.969397
     11          8           0       -5.549958   -0.420630   -8.403632
     12          6           0       -5.333046    4.047544   -6.822214
     13          1           0       -5.507517    4.377853   -7.861916
     14          6           0       -6.367630    4.763298   -5.940386
     15          1           0       -6.232342    4.488499   -4.887528
     16          1           0       -7.392935    4.505630   -6.228695
     17          1           0       -6.256841    5.849042   -6.019539
     18          6           0       -3.903357    4.444280   -6.427012
     19          1           0       -3.674051    4.105941   -5.409247
     20          1           0       -3.142057    4.029762   -7.099552
     21          1           0       -3.788856    5.532284   -6.448142
     22          7           0       -4.589870   -0.392717   -6.319716
     23          1           0       -4.270962    0.205925   -5.557839
     24          6           0       -5.014340   -1.705798   -5.833991
     25          1           0       -5.928560   -1.986077   -6.368338
     26          6           0       -5.326043   -1.481510   -4.336934
     27          6           0       -3.935255   -2.801747   -6.056854
     28          1           0       -4.337365   -3.722943   -5.612707
     29          8           0       -5.052379   -0.397870   -3.802788
     30          6           0       -3.721768   -3.054437   -7.554760
     31          1           0       -3.293365   -2.172124   -8.043749
     32          1           0       -4.659121   -3.297656   -8.065679
     33          1           0       -3.024442   -3.885604   -7.699859
     34          6           0       -2.616387   -2.464835   -5.348859
     35          1           0       -2.169984   -1.554503   -5.766726
     36          1           0       -1.898076   -3.278247   -5.490742
     37          1           0       -2.738339   -2.310230   -4.271864
     38          7           0       -5.871013   -2.526192   -3.694291
     39          1           0       -5.937339   -3.424728   -4.161483
     40          6           0       -6.018820   -2.604261   -2.239380
     41          1           0       -5.639696   -1.664798   -1.827617
     42          6           0       -5.147438   -3.800011   -1.811490
     43          6           0       -7.495804   -2.790702   -1.819972
     44          1           0       -7.843188   -3.723807   -2.285329
     45          8           0       -5.161850   -4.837021   -2.470912
     46          6           0       -7.611840   -2.933848   -0.295286
     47          1           0       -7.214897   -2.045943    0.214314
     48          1           0       -7.074790   -3.810546    0.080732
     49          1           0       -8.661560   -3.038493   -0.003983
     50          6           0       -8.350842   -1.625072   -2.332320
     51          1           0       -8.019510   -0.676193   -1.892452
     52          1           0       -8.294877   -1.531378   -3.421604
     53          1           0       -9.400743   -1.774064   -2.059747
     54          7           0       -4.365881   -3.597443   -0.724326
     55          1           0       -4.464161   -2.761214   -0.152814
     56          6           0       -3.483155   -4.600692   -0.150823
     57          1           0       -4.020231   -5.539431    0.027594
     58          6           0       -2.950143   -4.005099    1.155835
     59          6           0       -2.292915   -4.907162   -1.118737
     60          1           0       -1.770705   -3.965596   -1.334122
     61          1           0       -2.729051   -5.284895   -2.046694
     62          8           0       -3.144805   -2.822739    1.441943
     63          8           0       -1.414742   -5.882662   -0.593898
     64          1           0       -0.638757   -5.413087   -0.216873
     65          7           0       -2.170556   -4.840798    1.902321
     66          1           0       -1.885251   -5.675976    1.389750
     67          6           0       -1.114482   -4.241034    2.730068
     68          1           0       -1.576810   -3.502771    3.388966
     69          6           0       -0.092829   -3.591961    1.785214
     70          6           0       -0.467353   -5.338061    3.602176
     71          1           0       -0.066732   -6.110766    2.922931
     72          8           0        0.347066   -4.216410    0.808015
     73          6           0        0.665301   -4.793718    4.463123
     74          1           0        1.487881   -4.411588    3.850283
     75          1           0        0.298565   -3.989686    5.110550
     76          1           0        1.048576   -5.594746    5.100345
     77          8           0       -1.436110   -5.881261    4.482077
     78          1           0       -2.202250   -6.158466    3.953405
     79          7           0        0.268615   -2.326809    2.067706
     80          1           0       -0.190524   -1.826918    2.819791
     81          6           0        1.173528   -1.540608    1.223244
     82          1           0        1.695563   -2.258945    0.586061
     83          6           0        2.127662   -0.831888    2.189087
     84          6           0        0.399114   -0.535259    0.355358
     85          1           0        1.106121    0.017354   -0.272867
     86          1           0       -0.080818    0.202663    1.006279
     87          8           0        1.699608    0.052033    2.938019
     88          6           0       -0.641702   -1.241711   -0.510852
     89          1           0       -1.357047   -1.768250    0.129437
     90          1           0       -0.164511   -2.009473   -1.135749
     91          6           0       -1.419094   -0.300875   -1.424143
     92          7           0       -2.525860   -0.882788   -1.994223
     93          1           0       -2.902594   -1.738446   -1.609848
     94          1           0       -3.175843   -0.288786   -2.494631
     95          8           0       -1.080213    0.847553   -1.669085
     96          7           0        3.397792   -1.279147    2.210295
     97          1           0        3.744338   -1.945509    1.528922
     98          6           0        4.394293   -0.784678    3.155564
     99          1           0        3.881842   -0.562689    4.097659
    100          6           0        5.034573    0.511828    2.618237
    101          6           0        5.466221   -1.873839    3.360088
    102          1           0        6.256250   -1.436947    3.987015
    103          8           0        6.191452    0.536575    2.182005
    104          6           0        4.913525   -3.123950    4.030659
    105          1           0        4.504302   -2.887992    5.018848
    106          1           0        4.120676   -3.575244    3.424052
    107          1           0        5.713079   -3.860661    4.146063
    108          8           0        5.989454   -2.252005    2.089159
    109          1           0        6.450422   -1.451724    1.768335
    110          7           0        4.234422    1.596410    2.641314
    111          1           0        3.317061    1.507302    3.067216
    112          6           0        4.759480    2.919101    2.331535
    113          1           0        5.210476    2.881411    1.333321
    114          6           0        5.832547    3.281163    3.383621
    115          6           0        3.627467    3.947127    2.373182
    116          1           0        4.005901    4.936958    2.100985
    117          1           0        2.828487    3.674300    1.675713
    118          1           0        3.216028    4.004633    3.386499
    119          8           0        5.621186    3.084382    4.576630
    120          7           0        6.960720    3.835337    2.886367
    121          1           0        7.066842    4.003594    1.893558
    122          6           0        8.080373    4.251606    3.709897
    123          1           0        7.699814    4.411295    4.722580
    124          6           0        8.623555    5.558501    3.117924
    125          6           0        9.218397    3.200648    3.721163
    126          1           0        9.586820    3.109337    2.690171
    127          1           0       10.051704    3.600772    4.317264
    128          8           0        8.491364    5.826313    1.923868
    129          6           0        8.831401    1.808865    4.253533
    130          1           0        7.964672    1.457162    3.680506
    131          6           0        9.986677    0.827420    4.005213
    132          1           0       10.889437    1.132965    4.550839
    133          1           0       10.241614    0.767434    2.940260
    134          1           0        9.720683   -0.180908    4.343586
    135          6           0        8.451930    1.841214    5.740673
    136          1           0        9.276893    2.239720    6.347360
    137          1           0        8.238063    0.828274    6.102977
    138          1           0        7.557381    2.445575    5.912989
    139          7           0        9.298215    6.353310    3.983109
    140          1           0        9.441479    6.076098    4.947058
    141          6           0       10.007510    7.540046    3.535598
    142          1           0       10.538669    7.304396    2.605497
    143          6           0       11.036503    7.887841    4.599318
    144          6           0        9.060076    8.723955    3.266534
    145          1           0        9.622746    9.591483    2.911205
    146          1           0        8.341255    8.421440    2.501745
    147          1           0        8.519123    8.996537    4.178636
    148          8           0       11.121306    7.352318    5.684406
    149          8           0       11.840750    8.891056    4.198082
    150          1           0       12.455704    9.074058    4.933621
 ---------------------------------------------------------------------

 SCF Done:  E(RB3LYP) =  -3455.70339006     A.U. after    1 cycles

 Alpha  occ. eigenvalues --  -19.27496 -19.24849 -19.23409 -19.21468 -19.21439
 Alpha  occ. eigenvalues --  -19.20735 -19.20628 -19.20391 -19.19383 -19.18542
 Alpha  occ. eigenvalues --  -19.18489 -19.17374 -19.17335 -19.15719 -19.14634
 Alpha  occ. eigenvalues --  -14.60589 -14.49888 -14.46977 -14.45331 -14.44724
 Alpha  occ. eigenvalues --  -14.44157 -14.43104 -14.41387 -14.40679 -14.40277
 Alpha  occ. eigenvalues --  -14.39488 -10.44089 -10.41096 -10.40357 -10.37935
 Alpha  occ. eigenvalues --  -10.37844 -10.37269 -10.37268 -10.35631 -10.35044
 Alpha  occ. eigenvalues --  -10.34935 -10.33897 -10.33858 -10.32770 -10.32578
 Alpha  occ. eigenvalues --  -10.32560 -10.32046 -10.31865 -10.31217 -10.31106
 Alpha  occ. eigenvalues --  -10.30913 -10.30571 -10.29973 -10.29203 -10.28891
 Alpha  occ. eigenvalues --  -10.28634 -10.28577 -10.28430 -10.28111 -10.27961
 Alpha  occ. eigenvalues --  -10.26819 -10.26666 -10.26444 -10.25487 -10.25452
 Alpha  occ. eigenvalues --  -10.25403 -10.25302 -10.23800 -10.23209 -10.22447
 Alpha  occ. eigenvalues --  -10.22314 -10.21871 -10.20954 -10.19662 -10.18925
 Alpha  occ. eigenvalues --   -1.19872  -1.15859  -1.15274  -1.14380  -1.13566
 Alpha  occ. eigenvalues --   -1.12583  -1.11910  -1.10492  -1.09081  -1.09042
 Alpha  occ. eigenvalues --   -1.08930  -1.08496  -1.07867  -1.06921  -1.06839
 Alpha  occ. eigenvalues --   -1.06574  -1.05981  -1.03478  -1.01621  -1.00859
 Alpha  occ. eigenvalues --   -1.00779  -0.99184  -0.97210  -0.96956  -0.96264
 Alpha  occ. eigenvalues --   -0.96041  -0.95641  -0.91940  -0.89562  -0.88817
 Alpha  occ. eigenvalues --   -0.87255  -0.85517  -0.84356  -0.83786  -0.83405
 Alpha  occ. eigenvalues --   -0.83150  -0.82201  -0.81416  -0.80799  -0.79904
 Alpha  occ. eigenvalues --   -0.79726  -0.78847  -0.77735  -0.77494  -0.77250
 Alpha  occ. eigenvalues --   -0.76412  -0.75828  -0.74529  -0.73663  -0.73278
 Alpha  occ. eigenvalues --   -0.72412  -0.71670  -0.70838  -0.70336  -0.70123
 Alpha  occ. eigenvalues --   -0.69754  -0.69699  -0.68761  -0.68271  -0.68086
 Alpha  occ. eigenvalues --   -0.67282  -0.66951  -0.66680  -0.66526  -0.65903
 Alpha  occ. eigenvalues --   -0.65551  -0.64873  -0.64387  -0.63899  -0.63713
 Alpha  occ. eigenvalues --   -0.63328  -0.62899  -0.62627  -0.61947  -0.61178
 Alpha  occ. eigenvalues --   -0.60457  -0.60244  -0.59725  -0.59440  -0.59306
 Alpha  occ. eigenvalues --   -0.58675  -0.58312  -0.58157  -0.57899  -0.57502
 Alpha  occ. eigenvalues --   -0.57318  -0.56852  -0.56446  -0.56099  -0.55772
 Alpha  occ. eigenvalues --   -0.55626  -0.55327  -0.54871  -0.54802  -0.54640
 Alpha  occ. eigenvalues --   -0.54058  -0.54025  -0.53995  -0.53640  -0.53041
 Alpha  occ. eigenvalues --   -0.52777  -0.52524  -0.52435  -0.52252  -0.52093
 Alpha  occ. eigenvalues --   -0.52015  -0.51803  -0.51602  -0.51359  -0.51128
 Alpha  occ. eigenvalues --   -0.50348  -0.50270  -0.49946  -0.49802  -0.49750
 Alpha  occ. eigenvalues --   -0.49404  -0.49271  -0.49201  -0.48823  -0.48765
 Alpha  occ. eigenvalues --   -0.48751  -0.48263  -0.47952  -0.47711  -0.47629
 Alpha  occ. eigenvalues --   -0.47416  -0.47211  -0.47134  -0.46997  -0.46965
 Alpha  occ. eigenvalues --   -0.46407  -0.46288  -0.46106  -0.46063  -0.45937
 Alpha  occ. eigenvalues --   -0.45927  -0.45793  -0.45405  -0.45369  -0.45271
 Alpha  occ. eigenvalues --   -0.45069  -0.45053  -0.44781  -0.44616  -0.44490
 Alpha  occ. eigenvalues --   -0.44223  -0.43709  -0.43604  -0.43491  -0.43374
 Alpha  occ. eigenvalues --   -0.43273  -0.43069  -0.42741  -0.42617  -0.42577
 Alpha  occ. eigenvalues --   -0.42405  -0.42385  -0.42100  -0.42022  -0.41746
 Alpha  occ. eigenvalues --   -0.41553  -0.41404  -0.41340  -0.41160  -0.40840
 Alpha  occ. eigenvalues --   -0.40715  -0.40395  -0.40262  -0.40009  -0.39736
 Alpha  occ. eigenvalues --   -0.39481  -0.39446  -0.38357  -0.37894  -0.37589
 Alpha  occ. eigenvalues --   -0.37355  -0.37011  -0.36679  -0.35796  -0.35372
 Alpha  occ. eigenvalues --   -0.35266  -0.34891  -0.34722  -0.34623  -0.34299
 Alpha  occ. eigenvalues --   -0.34095  -0.33973  -0.33104  -0.33041  -0.32966
 Alpha  occ. eigenvalues --   -0.32458  -0.31893  -0.31813  -0.31256  -0.30873
 Alpha  occ. eigenvalues --   -0.30191  -0.29790  -0.29614  -0.28227  -0.28152
 Alpha virt. eigenvalues --   -0.12664  -0.11889  -0.09280  -0.08068  -0.07233
 Alpha virt. eigenvalues --   -0.07055  -0.06606  -0.04802  -0.04731  -0.04154
 Alpha virt. eigenvalues --   -0.03645  -0.03129  -0.03012  -0.02065  -0.01770

 Mulliken charges:
               1
     1  N   -0.756641
     2  H    0.417717
     3  H    0.414167
     4  H    0.432726
     5  C   -0.121145
     6  H    0.219949
     7  C    0.649385
     8  C   -0.301298
     9  H    0.201948
    10  H    0.172336
    11  O   -0.538215
    12  C   -0.098346
    13  H    0.112416
    14  C   -0.448202
    15  H    0.169451
    16  H    0.158052
    17  H    0.175875
    18  C   -0.456361
    19  H    0.174793
    20  H    0.132216
    21  H    0.184828
    22  N   -0.585150
    23  H    0.372298
    24  C   -0.083767
    25  H    0.196248
    26  C    0.633188
    27  C   -0.089409
    28  H    0.155908
    29  O   -0.561895
    30  C   -0.443765
    31  H    0.137794
    32  H    0.162383
    33  H    0.170451
    34  C   -0.473986
    35  H    0.143319
    36  H    0.172254
    37  H    0.173320
    38  N   -0.594283
    39  H    0.361242
    40  C   -0.068947
    41  H    0.172786
    42  C    0.629111
    43  C   -0.079275
    44  H    0.151278
    45  O   -0.535878
    46  C   -0.467384
    47  H    0.149922
    48  H    0.161815
    49  H    0.170046
    50  C   -0.447302
    51  H    0.152723
    52  H    0.142558
    53  H    0.164310
    54  N   -0.642098
    55  H    0.363497
    56  C   -0.052633
    57  H    0.197211
    58  C    0.600282
    59  C   -0.059052
    60  H    0.142074
    61  H    0.190179
    62  O   -0.530726
    63  O   -0.644650
    64  H    0.444796
    65  N   -0.626090
    66  H    0.355177
    67  C   -0.076620
    68  H    0.181695
    69  C    0.643054
    70  C    0.131635
    71  H    0.136518
    72  O   -0.578437
    73  C   -0.469717
    74  H    0.160220
    75  H    0.160218
    76  H    0.183966
    77  O   -0.614784
    78  H    0.402615
    79  N   -0.587346
    80  H    0.359444
    81  C   -0.070945
    82  H    0.180684
    83  C    0.641486
    84  C   -0.254293
    85  H    0.171355
    86  H    0.177292
    87  O   -0.555877
    88  C   -0.409723
    89  H    0.177109
    90  H    0.177630
    91  C    0.592744
    92  N   -0.790546
    93  H    0.335592
    94  H    0.354311
    95  O   -0.505343
    96  N   -0.601531
    97  H    0.352973
    98  C   -0.083999
    99  H    0.186762
   100  C    0.650196
   101  C    0.107746
   102  H    0.154811
   103  O   -0.551131
   104  C   -0.454100
   105  H    0.150331
   106  H    0.146148
   107  H    0.174081
   108  O   -0.651358
   109  H    0.420372
   110  N   -0.601273
   111  H    0.370537
   112  C   -0.030073
   113  H    0.156352
   114  C    0.641482
   115  C   -0.482706
   116  H    0.168907
   117  H    0.163006
   118  H    0.179392
   119  O   -0.541143
   120  N   -0.592527
   121  H    0.344424
   122  C   -0.076204
   123  H    0.179158
   124  C    0.627740
   125  C   -0.251739
   126  H    0.141913
   127  H    0.133174
   128  O   -0.545483
   129  C   -0.088154
   130  H    0.167242
   131  C   -0.442025
   132  H    0.137321
   133  H    0.139681
   134  H    0.139462
   135  C   -0.466323
   136  H    0.127380
   137  H    0.133614
   138  H    0.182172
   139  N   -0.618416
   140  H    0.354819
   141  C   -0.018338
   142  H    0.197520
   143  C    0.579342
   144  C   -0.452268
   145  H    0.170798
   146  H    0.190370
   147  H    0.156140
   148  O   -0.466221
   149  O   -0.561393
   150  H    0.421566
 Sum of Mulliken charges =   1.00000

 Dipole moment (field-independent basis, Debye):
    X=            -20.0438    Y=              7.1513    Z=            -29.7862  Tot=             36.6075
 Quadrupole moment (field-independent basis, Debye-Ang):
   XX=           -245.0422   YY=           -348.9512   ZZ=           -146.9966
   XY=             17.5046   XZ=            176.3806   YZ=            -60.7874

 Normal termination of Gaussian 16 at Sat Jul  2 15:26:16 2022.
