 Gaussian 16, Revision C.01,
 Gaussian 16:  ES64L-G16RevC.01  3-Jul-2019

 ----------------------------------------------------------------------
 # B3LYP/6-31G* empiricaldispersion=gd3 guess=read geom=check nosymm in
 tegral(ultrafinegrid)
 ----------------------------------------------------------------------

 ------------------------------------------------------
 Candidate Structure: Conf:584 Charge calc in gas phase
 ------------------------------------------------------
 Structure from the checkpoint file:  "conf-584.chk"
 Charge =  1 Multiplicity = 1

                          Input orientation:
 ---------------------------------------------------------------------
 Center     Atomic      Atomic             Coordinates (Angstroms)
 Number     Number       Type             X           Y           Z
 ---------------------------------------------------------------------
      1          7           0      -10.019896   -6.005618   -7.093372
      2          1           0      -10.001972   -6.053409   -8.115437
      3          1           0      -10.993944   -6.057256   -6.782646
      4          1           0       -9.439005   -6.808371   -6.696653
      5          6           0       -9.285730   -4.802560   -6.533599
      6          1           0       -9.080540   -4.115301   -7.356244
      7          6           0       -7.978082   -5.432963   -5.984489
      8          6           0      -10.101136   -4.127561   -5.421796
      9          1           0       -9.467336   -3.344323   -4.987850
     10          1           0      -10.262949   -4.862275   -4.620409
     11          8           0       -7.921602   -6.670874   -5.914648
     12          6           0      -11.444013   -3.503854   -5.856327
     13          1           0      -12.090590   -4.296643   -6.272957
     14          6           0      -12.160625   -2.940655   -4.619554
     15          1           0      -11.573057   -2.132174   -4.168354
     16          1           0      -12.317141   -3.711560   -3.856761
     17          1           0      -13.138249   -2.531754   -4.892444
     18          6           0      -11.263305   -2.421040   -6.929647
     19          1           0      -10.603246   -1.623366   -6.567536
     20          1           0      -10.840204   -2.810622   -7.863995
     21          1           0      -12.226333   -1.965997   -7.180356
     22          7           0       -7.039056   -4.577091   -5.609128
     23          1           0       -7.213785   -3.571182   -5.593812
     24          6           0       -5.837073   -4.922411   -4.843278
     25          1           0       -5.999318   -5.899578   -4.377124
     26          6           0       -5.755001   -3.797042   -3.787642
     27          6           0       -4.572613   -4.980192   -5.746543
     28          1           0       -4.417519   -3.965354   -6.139360
     29          8           0       -6.242293   -2.691998   -4.048846
     30          6           0       -3.328719   -5.397591   -4.946137
     31          1           0       -3.469853   -6.386732   -4.491006
     32          1           0       -3.069656   -4.696204   -4.149328
     33          1           0       -2.465750   -5.468900   -5.615509
     34          6           0       -4.794609   -5.937697   -6.926453
     35          1           0       -5.009451   -6.952772   -6.573378
     36          1           0       -3.895714   -5.977924   -7.549806
     37          1           0       -5.625060   -5.617421   -7.563702
     38          7           0       -5.155803   -4.110099   -2.627147
     39          1           0       -4.635960   -4.979867   -2.541980
     40          6           0       -4.781268   -3.113176   -1.630308
     41          1           0       -4.771127   -2.135358   -2.123689
     42          6           0       -3.359175   -3.487468   -1.171842
     43          6           0       -5.772921   -3.060791   -0.434699
     44          1           0       -5.394498   -2.282925    0.243233
     45          8           0       -2.870178   -4.584914   -1.451458
     46          6           0       -7.171323   -2.642006   -0.906041
     47          1           0       -7.601644   -3.405314   -1.564449
     48          1           0       -7.145751   -1.699822   -1.462498
     49          1           0       -7.840154   -2.522606   -0.046919
     50          6           0       -5.814905   -4.390007    0.330813
     51          1           0       -6.174416   -5.198597   -0.316682
     52          1           0       -4.829831   -4.678216    0.712775
     53          1           0       -6.498219   -4.316667    1.182943
     54          7           0       -2.723945   -2.559000   -0.430274
     55          1           0       -3.158821   -1.675149   -0.182977
     56          6           0       -1.432408   -2.796740    0.184458
     57          1           0       -1.393369   -3.818715    0.576245
     58          6           0       -1.266719   -1.772678    1.305313
     59          6           0       -0.279477   -2.642671   -0.853980
     60          1           0       -0.354955   -1.646874   -1.312570
     61          1           0       -0.444413   -3.397175   -1.627736
     62          8           0       -1.977765   -0.775455    1.381678
     63          8           0        0.993415   -2.868052   -0.277902
     64          1           0        1.336692   -2.007348    0.036206
     65          7           0       -0.234698   -2.035558    2.166873
     66          1           0        0.436484   -2.714253    1.811384
     67          6           0        0.333924   -0.940286    2.943290
     68          1           0       -0.492793   -0.396795    3.407487
     69          6           0        1.121450   -0.005210    2.019589
     70          6           0        1.203049   -1.543214    4.084986
     71          1           0        1.955169   -2.206701    3.630178
     72          8           0        1.715797   -0.435854    1.007735
     73          6           0        1.928199   -0.497593    4.918489
     74          1           0        2.707577    0.002249    4.338896
     75          1           0        1.227081    0.245567    5.316794
     76          1           0        2.400597   -0.998137    5.767381
     77          8           0        0.348864   -2.259374    4.961609
     78          1           0       -0.136511   -2.914161    4.433380
     79          7           0        1.167339    1.286681    2.379897
     80          1           0        0.711437    1.559887    3.241898
     81          6           0        2.037314    2.290830    1.745848
     82          1           0        2.011765    2.099030    0.667958
     83          6           0        3.465040    2.052805    2.286793
     84          6           0        1.526426    3.693952    2.053896
     85          1           0        1.552915    3.851445    3.138607
     86          1           0        0.486976    3.785893    1.726189
     87          8           0        3.920990    2.697377    3.233127
     88          6           0        2.359541    4.782867    1.373457
     89          1           0        2.465567    4.565350    0.300760
     90          1           0        3.368514    4.810848    1.798414
     91          6           0        1.665134    6.143549    1.488168
     92          7           0        2.500467    7.221775    1.493820
     93          1           0        3.501206    7.133050    1.583888
     94          1           0        2.089427    8.140001    1.592083
     95          8           0        0.447598    6.250537    1.527268
     96          7           0        4.124184    1.035308    1.687341
     97          1           0        3.631099    0.532682    0.959046
     98          6           0        5.291601    0.397983    2.301928
     99          1           0        5.198646    0.545224    3.384481
    100          6           0        6.571025    1.102997    1.815308
    101          6           0        5.284726   -1.117823    2.015845
    102          1           0        5.463965   -1.269792    0.941934
    103          8           0        7.367925    0.566379    1.039718
    104          6           0        6.359938   -1.841468    2.814518
    105          1           0        7.353579   -1.477441    2.544560
    106          1           0        6.195905   -1.692898    3.888043
    107          1           0        6.305155   -2.913564    2.607660
    108          8           0        4.025291   -1.677177    2.401960
    109          1           0        3.356118   -1.461439    1.732007
    110          7           0        6.722246    2.354730    2.302082
    111          1           0        5.997090    2.719093    2.916252
    112          6           0        7.814594    3.242613    1.891211
    113          1           0        8.028012    3.017067    0.839506
    114          6           0        9.086112    2.926825    2.715138
    115          6           0        7.395097    4.698713    2.053367
    116          1           0        8.196498    5.360466    1.716449
    117          1           0        6.493547    4.899183    1.464438
    118          1           0        7.204129    4.928524    3.105867
    119          8           0        9.548358    3.726240    3.533238
    120          7           0        9.613333    1.706375    2.471391
    121          1           0        9.154220    1.114748    1.781913
    122          6           0       10.681041    1.132382    3.294014
    123          1           0       10.554863    1.553418    4.297014
    124          6           0       12.062094    1.583139    2.767874
    125          6           0       10.536270   -0.389917    3.342327
    126          1           0        9.517047   -0.607737    3.694500
    127          1           0       10.621241   -0.783939    2.321688
    128          8           0       12.836601    0.826071    2.192746
    129          6           0       11.552212   -1.123822    4.241119
    130          1           0       12.531268   -1.038129    3.758414
    131          6           0       11.656583   -0.507987    5.644607
    132          1           0       10.671657   -0.447329    6.127954
    133          1           0       12.087969    0.499325    5.617933
    134          1           0       12.302076   -1.120059    6.285133
    135          6           0       11.178380   -2.610460    4.320534
    136          1           0       10.210002   -2.746691    4.821218
    137          1           0       11.928033   -3.175213    4.886549
    138          1           0       11.104865   -3.057488    3.321734
    139          7           0       12.319516    2.899160    3.003305
    140          1           0       11.604359    3.445582    3.476810
    141          6           0       13.610828    3.492857    2.737666
    142          1           0       14.118037    2.823513    2.032497
    143          6           0       14.516083    3.529301    3.975410
    144          6           0       13.484410    4.891696    2.126215
    145          1           0       14.475028    5.326119    1.975969
    146          1           0       12.962137    4.831157    1.167334
    147          1           0       12.917238    5.556097    2.788720
    148          8           0       15.522237    4.198025    4.056591
    149          8           0       14.095836    2.708861    4.967357
    150          1           0       14.765725    2.778034    5.673573
 ---------------------------------------------------------------------

 SCF Done:  E(RB3LYP) =  -3455.69325698     A.U. after    1 cycles

 Alpha  occ. eigenvalues --  -19.27252 -19.22466 -19.22359 -19.22160 -19.21224
 Alpha  occ. eigenvalues --  -19.20711 -19.20636 -19.20430 -19.20125 -19.19608
 Alpha  occ. eigenvalues --  -19.17678 -19.16328 -19.16075 -19.15908 -19.13692
 Alpha  occ. eigenvalues --  -14.60376 -14.49694 -14.46205 -14.45717 -14.44523
 Alpha  occ. eigenvalues --  -14.44077 -14.43425 -14.41450 -14.40760 -14.39399
 Alpha  occ. eigenvalues --  -14.37612 -10.43870 -10.41053 -10.39173 -10.38761
 Alpha  occ. eigenvalues --  -10.37466 -10.37253 -10.36324 -10.34571 -10.34464
 Alpha  occ. eigenvalues --  -10.34376 -10.34051 -10.33933 -10.32720 -10.32660
 Alpha  occ. eigenvalues --  -10.31977 -10.31633 -10.31274 -10.31105 -10.31090
 Alpha  occ. eigenvalues --  -10.30740 -10.30670 -10.29769 -10.29500 -10.29493
 Alpha  occ. eigenvalues --  -10.29276 -10.28613 -10.28383 -10.27945 -10.26524
 Alpha  occ. eigenvalues --  -10.26317 -10.25999 -10.25898 -10.25658 -10.25577
 Alpha  occ. eigenvalues --  -10.25118 -10.25036 -10.23770 -10.23087 -10.22046
 Alpha  occ. eigenvalues --  -10.21214 -10.20928 -10.20764 -10.19471 -10.19452
 Alpha  occ. eigenvalues --   -1.19665  -1.14465  -1.13966  -1.13919  -1.13056
 Alpha  occ. eigenvalues --   -1.12715  -1.11971  -1.11313  -1.09382  -1.08708
 Alpha  occ. eigenvalues --   -1.08520  -1.07991  -1.07568  -1.07411  -1.06496
 Alpha  occ. eigenvalues --   -1.05428  -1.03958  -1.02417  -1.02344  -1.01064
 Alpha  occ. eigenvalues --   -1.00668  -0.99762  -0.97939  -0.96016  -0.95652
 Alpha  occ. eigenvalues --   -0.95335  -0.94621  -0.91542  -0.89256  -0.88578
 Alpha  occ. eigenvalues --   -0.87909  -0.85476  -0.84475  -0.83488  -0.83429
 Alpha  occ. eigenvalues --   -0.82850  -0.81717  -0.80784  -0.80226  -0.79948
 Alpha  occ. eigenvalues --   -0.79765  -0.78716  -0.77492  -0.77187  -0.76825
 Alpha  occ. eigenvalues --   -0.76139  -0.75913  -0.74403  -0.73481  -0.72734
 Alpha  occ. eigenvalues --   -0.71900  -0.70771  -0.70479  -0.70107  -0.69933
 Alpha  occ. eigenvalues --   -0.69811  -0.69524  -0.69007  -0.67894  -0.67797
 Alpha  occ. eigenvalues --   -0.67250  -0.66917  -0.66599  -0.66432  -0.65382
 Alpha  occ. eigenvalues --   -0.64950  -0.64604  -0.64065  -0.63728  -0.63228
 Alpha  occ. eigenvalues --   -0.62739  -0.62710  -0.61807  -0.61374  -0.60595
 Alpha  occ. eigenvalues --   -0.60023  -0.59827  -0.59726  -0.59121  -0.59006
 Alpha  occ. eigenvalues --   -0.58694  -0.58618  -0.58198  -0.58000  -0.57909
 Alpha  occ. eigenvalues --   -0.57204  -0.57005  -0.56768  -0.56047  -0.55885
 Alpha  occ. eigenvalues --   -0.55803  -0.55362  -0.55198  -0.54812  -0.54625
 Alpha  occ. eigenvalues --   -0.54393  -0.53852  -0.53541  -0.53183  -0.52853
 Alpha  occ. eigenvalues --   -0.52632  -0.52162  -0.52041  -0.52015  -0.51767
 Alpha  occ. eigenvalues --   -0.51601  -0.51363  -0.51300  -0.50863  -0.50736
 Alpha  occ. eigenvalues --   -0.50560  -0.50161  -0.50080  -0.49858  -0.49531
 Alpha  occ. eigenvalues --   -0.49252  -0.49020  -0.48891  -0.48507  -0.48183
 Alpha  occ. eigenvalues --   -0.48080  -0.47971  -0.47668  -0.47324  -0.47062
 Alpha  occ. eigenvalues --   -0.46937  -0.46710  -0.46437  -0.46367  -0.46133
 Alpha  occ. eigenvalues --   -0.46053  -0.45850  -0.45794  -0.45591  -0.45582
 Alpha  occ. eigenvalues --   -0.45526  -0.45487  -0.45455  -0.44904  -0.44822
 Alpha  occ. eigenvalues --   -0.44700  -0.44649  -0.44290  -0.43952  -0.43712
 Alpha  occ. eigenvalues --   -0.43644  -0.43538  -0.43236  -0.43055  -0.43037
 Alpha  occ. eigenvalues --   -0.42834  -0.42799  -0.42666  -0.42616  -0.42348
 Alpha  occ. eigenvalues --   -0.42321  -0.42152  -0.41921  -0.41698  -0.41546
 Alpha  occ. eigenvalues --   -0.41397  -0.41362  -0.40859  -0.40700  -0.40575
 Alpha  occ. eigenvalues --   -0.40256  -0.40158  -0.39697  -0.39370  -0.39228
 Alpha  occ. eigenvalues --   -0.39082  -0.38585  -0.38406  -0.38255  -0.37197
 Alpha  occ. eigenvalues --   -0.36930  -0.36448  -0.36268  -0.35579  -0.35176
 Alpha  occ. eigenvalues --   -0.34884  -0.34750  -0.34523  -0.34399  -0.34347
 Alpha  occ. eigenvalues --   -0.34191  -0.33776  -0.33315  -0.33107  -0.32772
 Alpha  occ. eigenvalues --   -0.32473  -0.32320  -0.31726  -0.31321  -0.30622
 Alpha  occ. eigenvalues --   -0.30279  -0.29995  -0.28637  -0.26809  -0.26295
 Alpha virt. eigenvalues --   -0.12404  -0.11851  -0.08761  -0.08092  -0.07185
 Alpha virt. eigenvalues --   -0.07024  -0.06025  -0.05647  -0.04548  -0.04271
 Alpha virt. eigenvalues --   -0.02745  -0.02274  -0.01991  -0.01728  -0.01555

 Mulliken charges:
               1
     1  N   -0.758034
     2  H    0.416501
     3  H    0.412960
     4  H    0.433600
     5  C   -0.119421
     6  H    0.216890
     7  C    0.653298
     8  C   -0.298679
     9  H    0.198221
    10  H    0.173351
    11  O   -0.541908
    12  C   -0.098793
    13  H    0.113861
    14  C   -0.448059
    15  H    0.167746
    16  H    0.159194
    17  H    0.175816
    18  C   -0.454831
    19  H    0.169845
    20  H    0.131538
    21  H    0.184941
    22  N   -0.594148
    23  H    0.370255
    24  C   -0.074418
    25  H    0.185550
    26  C    0.626466
    27  C   -0.076202
    28  H    0.148224
    29  O   -0.552007
    30  C   -0.477438
    31  H    0.154416
    32  H    0.174864
    33  H    0.169835
    34  C   -0.446001
    35  H    0.164129
    36  H    0.168855
    37  H    0.129382
    38  N   -0.598294
    39  H    0.366585
    40  C   -0.074502
    41  H    0.186509
    42  C    0.635291
    43  C   -0.078094
    44  H    0.144498
    45  O   -0.547759
    46  C   -0.442572
    47  H    0.134837
    48  H    0.160716
    49  H    0.155832
    50  C   -0.462593
    51  H    0.144780
    52  H    0.164605
    53  H    0.162103
    54  N   -0.623880
    55  H    0.361039
    56  C   -0.058239
    57  H    0.191855
    58  C    0.596800
    59  C   -0.047122
    60  H    0.143697
    61  H    0.183025
    62  O   -0.522615
    63  O   -0.647229
    64  H    0.438351
    65  N   -0.626788
    66  H    0.350300
    67  C   -0.097720
    68  H    0.192278
    69  C    0.664699
    70  C    0.130699
    71  H    0.158550
    72  O   -0.606031
    73  C   -0.479852
    74  H    0.169766
    75  H    0.144537
    76  H    0.187874
    77  O   -0.614574
    78  H    0.401653
    79  N   -0.582907
    80  H    0.359001
    81  C   -0.061762
    82  H    0.179232
    83  C    0.636802
    84  C   -0.283325
    85  H    0.169025
    86  H    0.189738
    87  O   -0.544730
    88  C   -0.386710
    89  H    0.171912
    90  H    0.169808
    91  C    0.607794
    92  N   -0.748054
    93  H    0.340238
    94  H    0.349478
    95  O   -0.503700
    96  N   -0.612682
    97  H    0.354692
    98  C   -0.065783
    99  H    0.183682
   100  C    0.645976
   101  C    0.102045
   102  H    0.148809
   103  O   -0.550540
   104  C   -0.468868
   105  H    0.183710
   106  H    0.152020
   107  H    0.168028
   108  O   -0.653141
   109  H    0.409302
   110  N   -0.612837
   111  H    0.372634
   112  C   -0.058548
   113  H    0.181245
   114  C    0.630798
   115  C   -0.462890
   116  H    0.176918
   117  H    0.137606
   118  H    0.175806
   119  O   -0.545679
   120  N   -0.624504
   121  H    0.376854
   122  C   -0.067486
   123  H    0.176383
   124  C    0.637401
   125  C   -0.280556
   126  H    0.128482
   127  H    0.153024
   128  O   -0.526334
   129  C   -0.076961
   130  H    0.170048
   131  C   -0.461730
   132  H    0.131263
   133  H    0.157791
   134  H    0.143699
   135  C   -0.446162
   136  H    0.130500
   137  H    0.144363
   138  H    0.142373
   139  N   -0.613365
   140  H    0.365363
   141  C   -0.056551
   142  H    0.212753
   143  C    0.595932
   144  C   -0.453572
   145  H    0.184015
   146  H    0.157221
   147  H    0.153312
   148  O   -0.461839
   149  O   -0.561298
   150  H    0.412621
 Sum of Mulliken charges =   1.00000

 Dipole moment (field-independent basis, Debye):
    X=            -42.0655    Y=            -18.0245    Z=            -25.1017  Tot=             52.1966
 Quadrupole moment (field-independent basis, Debye-Ang):
   XX=           -101.7153   YY=           -298.0685   ZZ=           -224.3656
   XY=            217.6635   XZ=            266.3337   YZ=            135.7252

 Normal termination of Gaussian 16 at Mon Jul 18 20:48:48 2022.
