 Gaussian 16, Revision C.01,
 Gaussian 16:  ES64L-G16RevC.01  3-Jul-2019

 ----------------------------------------------------------------------
 # B3LYP/6-31G* empiricaldispersion=gd3 guess=read geom=check nosymm in
 tegral(ultrafinegrid)
 ----------------------------------------------------------------------

 ------------------------------------------------------
 Candidate Structure: Conf:239 Charge calc in gas phase
 ------------------------------------------------------
 Structure from the checkpoint file:  "conf-239.chk"
 Charge =  1 Multiplicity = 1

                          Input orientation:
 ---------------------------------------------------------------------
 Center     Atomic      Atomic             Coordinates (Angstroms)
 Number     Number       Type             X           Y           Z
 ---------------------------------------------------------------------
      1          7           0       -7.897218   -8.268049   -2.789208
      2          1           0       -8.475414   -8.678587   -3.528954
      3          1           0       -8.209510   -8.633151   -1.884864
      4          1           0       -6.886206   -8.520389   -2.980147
      5          6           0       -7.852514   -6.750097   -2.838033
      6          1           0       -8.760999   -6.394211   -3.326558
      7          6           0       -6.576891   -6.488871   -3.677468
      8          6           0       -7.719617   -6.208940   -1.401285
      9          1           0       -6.829466   -6.669564   -0.951129
     10          1           0       -8.594649   -6.549406   -0.828059
     11          8           0       -5.728023   -7.391721   -3.713168
     12          6           0       -7.616814   -4.672655   -1.274258
     13          1           0       -6.738572   -4.331715   -1.832824
     14          6           0       -8.850761   -3.952855   -1.836391
     15          1           0       -9.759112   -4.249186   -1.296934
     16          1           0       -9.018295   -4.146858   -2.903448
     17          1           0       -8.732503   -2.870625   -1.734126
     18          6           0       -7.396010   -4.303780    0.199970
     19          1           0       -8.251884   -4.602629    0.817681
     20          1           0       -6.498356   -4.784387    0.605384
     21          1           0       -7.270575   -3.221504    0.303177
     22          7           0       -6.486648   -5.300325   -4.263784
     23          1           0       -7.185314   -4.579915   -4.083449
     24          6           0       -5.243463   -4.732403   -4.797421
     25          1           0       -4.413453   -5.355065   -4.448540
     26          6           0       -5.192141   -3.323743   -4.167474
     27          6           0       -5.243545   -4.695085   -6.349360
     28          1           0       -6.078582   -4.047869   -6.652497
     29          8           0       -6.247674   -2.748447   -3.880879
     30          6           0       -3.935230   -4.100702   -6.893877
     31          1           0       -3.067402   -4.682734   -6.556866
     32          1           0       -3.783132   -3.060525   -6.593589
     33          1           0       -3.940555   -4.129657   -7.987685
     34          6           0       -5.474996   -6.102919   -6.916194
     35          1           0       -4.679380   -6.788034   -6.600968
     36          1           0       -5.481771   -6.071703   -8.010261
     37          1           0       -6.432124   -6.521554   -6.588982
     38          7           0       -3.969264   -2.815147   -3.946795
     39          1           0       -3.139584   -3.289302   -4.290144
     40          6           0       -3.736227   -1.447579   -3.490418
     41          1           0       -4.657849   -0.881173   -3.657274
     42          6           0       -2.585168   -0.921680   -4.360682
     43          6           0       -3.369335   -1.396514   -1.979218
     44          1           0       -2.429215   -1.955139   -1.864667
     45          8           0       -1.691326   -1.690878   -4.721159
     46          6           0       -3.143648    0.047155   -1.502809
     47          1           0       -4.038541    0.659736   -1.681455
     48          1           0       -2.288799    0.531350   -1.984373
     49          1           0       -2.957873    0.059602   -0.423950
     50          6           0       -4.454295   -2.085515   -1.138466
     51          1           0       -5.425055   -1.595139   -1.275179
     52          1           0       -4.567603   -3.139504   -1.411339
     53          1           0       -4.192801   -2.039898   -0.076059
     54          7           0       -2.620150    0.392223   -4.697604
     55          1           0       -3.229551    0.988325   -4.148056
     56          6           0       -1.438376    1.050094   -5.287364
     57          1           0       -1.138419    0.461733   -6.157255
     58          6           0       -0.347196    1.060596   -4.213413
     59          6           0       -1.815875    2.459441   -5.754126
     60          1           0       -0.912796    2.950706   -6.118715
     61          1           0       -2.184615    3.035930   -4.889321
     62          8           0       -0.505459    1.727619   -3.176757
     63          8           0       -2.743814    2.429019   -6.824021
     64          1           0       -3.548976    1.983548   -6.517590
     65          7           0        0.691193    0.238931   -4.425742
     66          1           0        0.640810   -0.419045   -5.196404
     67          6           0        1.612249   -0.150222   -3.361704
     68          1           0        1.027839   -0.225870   -2.432092
     69          6           0        2.704812    0.915431   -3.142843
     70          6           0        2.241702   -1.523007   -3.703801
     71          1           0        3.068450   -1.348234   -4.396115
     72          8           0        3.888827    0.704532   -3.411489
     73          6           0        2.770969   -2.213481   -2.450730
     74          1           0        3.545987   -1.611101   -1.964563
     75          1           0        1.959588   -2.389586   -1.730714
     76          1           0        3.204482   -3.180511   -2.721073
     77          8           0        1.322616   -2.334710   -4.439909
     78          1           0        0.496678   -2.428049   -3.935438
     79          7           0        2.265689    2.072952   -2.598659
     80          1           0        1.259812    2.175717   -2.472335
     81          6           0        3.143011    3.236857   -2.484988
     82          1           0        3.871821    3.150386   -3.300885
     83          6           0        3.948266    3.214381   -1.166221
     84          6           0        2.360103    4.548171   -2.630164
     85          1           0        3.093146    5.358384   -2.700678
     86          1           0        1.803873    4.746406   -1.707960
     87          8           0        4.066483    4.214311   -0.451644
     88          6           0        1.377416    4.569107   -3.821233
     89          1           0        1.050772    5.603840   -3.988336
     90          1           0        0.484417    3.981983   -3.597993
     91          6           0        1.926723    4.010052   -5.131324
     92          7           0        3.094721    4.561394   -5.566261
     93          1           0        3.532812    5.342282   -5.101107
     94          1           0        3.480159    4.244162   -6.445053
     95          8           0        1.364713    3.113236   -5.754975
     96          7           0        4.499029    2.016860   -0.870489
     97          1           0        4.536501    1.281983   -1.575538
     98          6           0        5.169558    1.747997    0.391525
     99          1           0        4.707287    2.381570    1.156573
    100          6           0        6.658258    2.119343    0.273047
    101          6           0        4.993127    0.259099    0.752471
    102          1           0        5.593783    0.066931    1.653760
    103          8           0        7.542961    1.254828    0.189391
    104          6           0        3.536969   -0.098112    1.019351
    105          1           0        3.149306    0.457356    1.880263
    106          1           0        2.918575    0.137737    0.146827
    107          1           0        3.456049   -1.169711    1.223025
    108          8           0        5.443526   -0.555408   -0.324794
    109          1           0        6.398987   -0.366742   -0.405202
    110          7           0        6.903191    3.443834    0.233979
    111          1           0        6.104722    4.074743    0.258850
    112          6           0        8.241026    3.995461   -0.010491
    113          1           0        8.758328    3.288153   -0.668374
    114          6           0        9.008726    4.077174    1.331142
    115          6           0        8.130260    5.366364   -0.665859
    116          1           0        9.126263    5.754262   -0.894480
    117          1           0        7.552029    5.299567   -1.593102
    118          1           0        7.652547    6.076799    0.014903
    119          8           0        9.187975    5.141656    1.916630
    120          7           0        9.441349    2.878252    1.797928
    121          1           0        9.147655    2.016698    1.340329
    122          6           0       10.016244    2.762178    3.128778
    123          1           0       10.670371    3.625957    3.276696
    124          6           0       10.799193    1.449845    3.180277
    125          6           0        8.906939    2.757454    4.208768
    126          1           0        8.314768    3.668079    4.054235
    127          1           0        8.256412    1.899033    3.996171
    128          8           0       10.366396    0.429629    2.652836
    129          6           0        9.380738    2.698533    5.672764
    130          1           0       10.004330    1.804483    5.806893
    131          6           0       10.220380    3.924097    6.063407
    132          1           0        9.651461    4.849967    5.912400
    133          1           0       11.141758    4.009966    5.476039
    134          1           0       10.514203    3.873967    7.118006
    135          6           0        8.165056    2.567888    6.602388
    136          1           0        7.506959    3.441584    6.508748
    137          1           0        8.475369    2.495469    7.651414
    138          1           0        7.574325    1.675701    6.362777
    139          7           0       11.966034    1.489716    3.882982
    140          1           0       12.234310    2.349631    4.339809
    141          6           0       12.723734    0.287257    4.183611
    142          1           0       12.060938   -0.554717    3.955001
    143          6           0       13.079449    0.167897    5.662527
    144          6           0       13.992679    0.157433    3.325660
    145          1           0       14.530398   -0.757448    3.587024
    146          1           0       13.710334    0.125425    2.270086
    147          1           0       14.659128    1.012675    3.483655
    148          8           0       13.742631   -0.732592    6.120937
    149          8           0       12.588288    1.182292    6.420419
    150          1           0       12.878362    1.005058    7.335436
 ---------------------------------------------------------------------

 SCF Done:  E(RB3LYP) =  -3455.69341459     A.U. after    2 cycles

 Alpha  occ. eigenvalues --  -19.27456 -19.24244 -19.22896 -19.22032 -19.20901
 Alpha  occ. eigenvalues --  -19.20474 -19.19470 -19.17895 -19.17836 -19.17676
 Alpha  occ. eigenvalues --  -19.16963 -19.16885 -19.16779 -19.14867 -19.13825
 Alpha  occ. eigenvalues --  -14.61200 -14.50177 -14.46887 -14.46033 -14.43135
 Alpha  occ. eigenvalues --  -14.41347 -14.41332 -14.40332 -14.40303 -14.39891
 Alpha  occ. eigenvalues --  -14.37741 -10.44239 -10.41501 -10.39989 -10.38808
 Alpha  occ. eigenvalues --  -10.36217 -10.36159 -10.35059 -10.34613 -10.34541
 Alpha  occ. eigenvalues --  -10.34152 -10.33762 -10.33276 -10.33126 -10.32026
 Alpha  occ. eigenvalues --  -10.31426 -10.30896 -10.30795 -10.30054 -10.29591
 Alpha  occ. eigenvalues --  -10.29555 -10.29354 -10.28926 -10.28828 -10.28750
 Alpha  occ. eigenvalues --  -10.28168 -10.28065 -10.27709 -10.27571 -10.26971
 Alpha  occ. eigenvalues --  -10.26776 -10.26764 -10.26320 -10.25904 -10.25675
 Alpha  occ. eigenvalues --  -10.25174 -10.24838 -10.22208 -10.22074 -10.21767
 Alpha  occ. eigenvalues --  -10.21681 -10.21451 -10.21160 -10.20345 -10.20204
 Alpha  occ. eigenvalues --   -1.19990  -1.15209  -1.14789  -1.14695  -1.13788
 Alpha  occ. eigenvalues --   -1.11134  -1.09667  -1.08832  -1.08508  -1.08342
 Alpha  occ. eigenvalues --   -1.08031  -1.07757  -1.07013  -1.06936  -1.05710
 Alpha  occ. eigenvalues --   -1.05607  -1.05235  -1.03417  -1.01883  -0.99593
 Alpha  occ. eigenvalues --   -0.98372  -0.97294  -0.96429  -0.96246  -0.95892
 Alpha  occ. eigenvalues --   -0.95595  -0.94487  -0.91792  -0.89731  -0.88854
 Alpha  occ. eigenvalues --   -0.85881  -0.84689  -0.84107  -0.83674  -0.82738
 Alpha  occ. eigenvalues --   -0.82462  -0.81439  -0.80963  -0.80387  -0.79605
 Alpha  occ. eigenvalues --   -0.78940  -0.78506  -0.77838  -0.76979  -0.76779
 Alpha  occ. eigenvalues --   -0.75972  -0.74918  -0.74896  -0.74036  -0.72857
 Alpha  occ. eigenvalues --   -0.71348  -0.71341  -0.71102  -0.70054  -0.69608
 Alpha  occ. eigenvalues --   -0.69292  -0.68938  -0.68576  -0.68099  -0.67688
 Alpha  occ. eigenvalues --   -0.67271  -0.67226  -0.65881  -0.65310  -0.64738
 Alpha  occ. eigenvalues --   -0.64410  -0.64020  -0.63953  -0.63733  -0.63041
 Alpha  occ. eigenvalues --   -0.62713  -0.62442  -0.62236  -0.60648  -0.60581
 Alpha  occ. eigenvalues --   -0.60169  -0.59805  -0.59628  -0.59049  -0.58703
 Alpha  occ. eigenvalues --   -0.58499  -0.57974  -0.57687  -0.57369  -0.57273
 Alpha  occ. eigenvalues --   -0.56994  -0.56342  -0.55923  -0.55831  -0.55454
 Alpha  occ. eigenvalues --   -0.55093  -0.54999  -0.54625  -0.54520  -0.54141
 Alpha  occ. eigenvalues --   -0.53949  -0.53467  -0.52598  -0.52339  -0.52261
 Alpha  occ. eigenvalues --   -0.52172  -0.52117  -0.51669  -0.51314  -0.51188
 Alpha  occ. eigenvalues --   -0.50988  -0.50657  -0.50506  -0.50221  -0.49903
 Alpha  occ. eigenvalues --   -0.49722  -0.49620  -0.49293  -0.49196  -0.49110
 Alpha  occ. eigenvalues --   -0.49052  -0.48700  -0.48562  -0.48409  -0.48117
 Alpha  occ. eigenvalues --   -0.48018  -0.47650  -0.47645  -0.47500  -0.47252
 Alpha  occ. eigenvalues --   -0.47054  -0.46855  -0.46812  -0.46643  -0.46218
 Alpha  occ. eigenvalues --   -0.46084  -0.45715  -0.45587  -0.45408  -0.45377
 Alpha  occ. eigenvalues --   -0.45105  -0.45005  -0.44865  -0.44780  -0.44711
 Alpha  occ. eigenvalues --   -0.44648  -0.44471  -0.44288  -0.43854  -0.43687
 Alpha  occ. eigenvalues --   -0.43458  -0.43199  -0.43185  -0.42947  -0.42926
 Alpha  occ. eigenvalues --   -0.42694  -0.42350  -0.42275  -0.42239  -0.42050
 Alpha  occ. eigenvalues --   -0.41828  -0.41714  -0.41444  -0.41370  -0.41305
 Alpha  occ. eigenvalues --   -0.41035  -0.40878  -0.40762  -0.40466  -0.40306
 Alpha  occ. eigenvalues --   -0.40193  -0.39934  -0.39638  -0.39391  -0.39301
 Alpha  occ. eigenvalues --   -0.38994  -0.38345  -0.37841  -0.37409  -0.37063
 Alpha  occ. eigenvalues --   -0.36913  -0.36306  -0.36279  -0.35874  -0.35371
 Alpha  occ. eigenvalues --   -0.35181  -0.35066  -0.34305  -0.34182  -0.33336
 Alpha  occ. eigenvalues --   -0.33141  -0.32873  -0.32433  -0.32363  -0.32240
 Alpha  occ. eigenvalues --   -0.31341  -0.31058  -0.30582  -0.30321  -0.29323
 Alpha  occ. eigenvalues --   -0.29120  -0.28696  -0.28394  -0.27152  -0.26747
 Alpha virt. eigenvalues --   -0.13284  -0.11826  -0.09211  -0.07957  -0.07145
 Alpha virt. eigenvalues --   -0.05852  -0.05673  -0.04708  -0.03662  -0.03309
 Alpha virt. eigenvalues --   -0.03117  -0.02849  -0.02146  -0.01958  -0.01586

 Mulliken charges:
               1
     1  N   -0.750802
     2  H    0.418716
     3  H    0.415199
     4  H    0.431683
     5  C   -0.123917
     6  H    0.214264
     7  C    0.645578
     8  C   -0.284422
     9  H    0.172975
    10  H    0.164780
    11  O   -0.537538
    12  C   -0.112681
    13  H    0.165389
    14  C   -0.456050
    15  H    0.156305
    16  H    0.131949
    17  H    0.190833
    18  C   -0.451852
    19  H    0.156141
    20  H    0.155933
    21  H    0.176141
    22  N   -0.597021
    23  H    0.382186
    24  C   -0.076759
    25  H    0.186782
    26  C    0.633246
    27  C   -0.077003
    28  H    0.150109
    29  O   -0.553174
    30  C   -0.474054
    31  H    0.156659
    32  H    0.165926
    33  H    0.175850
    34  C   -0.445959
    35  H    0.163839
    36  H    0.171291
    37  H    0.131770
    38  N   -0.602730
    39  H    0.361500
    40  C   -0.061173
    41  H    0.178826
    42  C    0.630802
    43  C   -0.071073
    44  H    0.139513
    45  O   -0.547569
    46  C   -0.499448
    47  H    0.140818
    48  H    0.193881
    49  H    0.166780
    50  C   -0.452347
    51  H    0.158648
    52  H    0.138963
    53  H    0.159605
    54  N   -0.610155
    55  H    0.345056
    56  C   -0.078997
    57  H    0.189236
    58  C    0.676929
    59  C   -0.076322
    60  H    0.220826
    61  H    0.134510
    62  O   -0.583332
    63  O   -0.603564
    64  H    0.388395
    65  N   -0.577033
    66  H    0.369639
    67  C   -0.110356
    68  H    0.159660
    69  C    0.651482
    70  C    0.123233
    71  H    0.185598
    72  O   -0.537337
    73  C   -0.485575
    74  H    0.206325
    75  H    0.119318
    76  H    0.167670
    77  O   -0.635904
    78  H    0.394081
    79  N   -0.622281
    80  H    0.380428
    81  C   -0.067001
    82  H    0.196522
    83  C    0.626020
    84  C   -0.296120
    85  H    0.159348
    86  H    0.175212
    87  O   -0.550485
    88  C   -0.393671
    89  H    0.169032
    90  H    0.189662
    91  C    0.598914
    92  N   -0.732516
    93  H    0.345000
    94  H    0.352529
    95  O   -0.520335
    96  N   -0.617418
    97  H    0.389241
    98  C   -0.080534
    99  H    0.175348
   100  C    0.638035
   101  C    0.125813
   102  H    0.143811
   103  O   -0.560198
   104  C   -0.454725
   105  H    0.144645
   106  H    0.145609
   107  H    0.162317
   108  O   -0.644484
   109  H    0.423695
   110  N   -0.609153
   111  H    0.371414
   112  C   -0.056216
   113  H    0.176453
   114  C    0.625835
   115  C   -0.461699
   116  H    0.170908
   117  H    0.142533
   118  H    0.177053
   119  O   -0.533828
   120  N   -0.632167
   121  H    0.382024
   122  C   -0.045363
   123  H    0.165784
   124  C    0.611019
   125  C   -0.258827
   126  H    0.159386
   127  H    0.141231
   128  O   -0.529888
   129  C   -0.091053
   130  H    0.140396
   131  C   -0.440852
   132  H    0.154221
   133  H    0.127458
   134  H    0.141697
   135  C   -0.442580
   136  H    0.141650
   137  H    0.140860
   138  H    0.140487
   139  N   -0.603027
   140  H    0.345886
   141  C   -0.058817
   142  H    0.218886
   143  C    0.589757
   144  C   -0.441674
   145  H    0.181754
   146  H    0.173610
   147  H    0.150088
   148  O   -0.452873
   149  O   -0.572131
   150  H    0.417647
 Sum of Mulliken charges =   1.00000

 Dipole moment (field-independent basis, Debye):
    X=            -33.4360    Y=            -24.4808    Z=            -11.9759  Tot=             43.1358
 Quadrupole moment (field-independent basis, Debye-Ang):
   XX=           -136.9764   YY=           -190.2325   ZZ=           -349.7604
   XY=            271.3923   XZ=            103.7967   YZ=             68.4513

 Normal termination of Gaussian 16 at Sat Jul  2 15:27:48 2022.
