 Gaussian 16, Revision C.01,
 Gaussian 16:  ES64L-G16RevC.01  3-Jul-2019

 ----------------------------------------------------------------------
 # B3LYP/6-31G* empiricaldispersion=gd3 guess=read geom=check nosymm in
 tegral(ultrafinegrid)
 ----------------------------------------------------------------------

 ------------------------------------------------------
 Candidate Structure: Conf:705 Charge calc in gas phase
 ------------------------------------------------------
 Structure from the checkpoint file:  "conf-705.chk"
 Charge =  1 Multiplicity = 1

                          Input orientation:
 ---------------------------------------------------------------------
 Center     Atomic      Atomic             Coordinates (Angstroms)
 Number     Number       Type             X           Y           Z
 ---------------------------------------------------------------------
      1          7           0       -7.429274   -8.387946   -4.936447
      2          1           0       -7.643935   -8.847603   -5.825282
      3          1           0       -8.070549   -8.745306   -4.222798
      4          1           0       -6.412809   -8.583140   -4.681202
      5          6           0       -7.432201   -6.873891   -5.025237
      6          1           0       -7.891383   -6.588834   -5.973431
      7          6           0       -5.919022   -6.531830   -5.003420
      8          6           0       -8.169599   -6.254264   -3.829454
      9          1           0       -8.032224   -5.167747   -3.893613
     10          1           0       -7.656348   -6.568503   -2.909631
     11          8           0       -5.126723   -7.440348   -4.710253
     12          6           0       -9.678033   -6.565421   -3.735053
     13          1           0       -9.815376   -7.658208   -3.650421
     14          6           0      -10.240972   -5.938917   -2.450135
     15          1           0      -10.148797   -4.846688   -2.481398
     16          1           0       -9.712440   -6.297719   -1.559908
     17          1           0      -11.301572   -6.182115   -2.334513
     18          6           0      -10.451179   -6.080521   -4.969643
     19          1           0      -10.320658   -5.000348   -5.108469
     20          1           0      -10.137582   -6.579906   -5.894890
     21          1           0      -11.521849   -6.272281   -4.850480
     22          7           0       -5.609246   -5.271577   -5.275058
     23          1           0       -6.334886   -4.562114   -5.387434
     24          6           0       -4.295282   -4.661447   -5.049564
     25          1           0       -3.732320   -5.310736   -4.370982
     26          6           0       -4.642461   -3.311610   -4.382119
     27          6           0       -3.501828   -4.484706   -6.374039
     28          1           0       -4.076079   -3.785501   -6.998012
     29          8           0       -5.735560   -2.786253   -4.616600
     30          6           0       -2.108576   -3.888633   -6.117043
     31          1           0       -1.525012   -4.532692   -5.445824
     32          1           0       -2.143992   -2.887209   -5.680490
     33          1           0       -1.556558   -3.817420   -7.059292
     34          6           0       -3.382389   -5.824858   -7.114098
     35          1           0       -2.860577   -6.567574   -6.499766
     36          1           0       -2.815960   -5.691944   -8.041289
     37          1           0       -4.362258   -6.233566   -7.380287
     38          7           0       -3.712598   -2.796966   -3.561924
     39          1           0       -2.801010   -3.234096   -3.480632
     40          6           0       -3.807304   -1.469063   -2.962950
     41          1           0       -4.589424   -0.921296   -3.498030
     42          6           0       -2.437632   -0.811303   -3.169175
     43          6           0       -4.182323   -1.550236   -1.450805
     44          1           0       -3.397533   -2.130466   -0.950780
     45          8           0       -1.409544   -1.511894   -3.195597
     46          6           0       -4.231736   -0.163099   -0.792285
     47          1           0       -4.921818    0.509162   -1.320388
     48          1           0       -3.251562    0.318011   -0.744248
     49          1           0       -4.594551   -0.257044    0.236131
     50          6           0       -5.525623   -2.275140   -1.284895
     51          1           0       -6.332454   -1.731136   -1.790024
     52          1           0       -5.492989   -3.288445   -1.697303
     53          1           0       -5.778284   -2.353767   -0.222274
     54          7           0       -2.430036    0.525812   -3.281609
     55          1           0       -3.291162    1.050314   -3.150480
     56          6           0       -1.227514    1.360750   -3.162561
     57          1           0       -0.435086    0.966431   -3.802194
     58          6           0       -0.792824    1.318789   -1.687310
     59          6           0       -1.613736    2.785551   -3.580121
     60          1           0       -1.836104    2.805067   -4.650851
     61          1           0       -0.762316    3.445054   -3.383700
     62          8           0       -1.160312    2.178344   -0.867949
     63          8           0       -2.797576    3.195302   -2.906985
     64          1           0       -2.549539    3.234836   -1.963274
     65          7           0       -0.105935    0.219746   -1.330907
     66          1           0        0.188835   -0.411128   -2.065117
     67          6           0        0.153015   -0.140885    0.060432
     68          1           0       -0.650208    0.306639    0.654543
     69          6           0        1.499342    0.497276    0.439645
     70          6           0        0.113475   -1.673254    0.242864
     71          1           0        1.018948   -2.095256   -0.217147
     72          8           0        2.556981   -0.146865    0.467694
     73          6           0        0.058122   -2.047036    1.717928
     74          1           0        0.890977   -1.627564    2.286872
     75          1           0       -0.882005   -1.684021    2.148908
     76          1           0        0.079865   -3.135385    1.820295
     77          8           0       -1.059621   -2.215516   -0.362403
     78          1           0       -0.997763   -2.133866   -1.330560
     79          7           0        1.428834    1.832090    0.635122
     80          1           0        0.518475    2.269193    0.522065
     81          6           0        2.619801    2.685282    0.699387
     82          1           0        3.364842    2.236995    0.031722
     83          6           0        3.164779    2.653958    2.144358
     84          6           0        2.310566    4.112989    0.244254
     85          1           0        3.261991    4.657526    0.225865
     86          1           0        1.704968    4.608207    1.009909
     87          8           0        2.926197    3.545459    2.960129
     88          6           0        1.594409    4.208461   -1.120457
     89          1           0        1.606158    5.256015   -1.448283
     90          1           0        0.547347    3.912068   -1.035325
     91          6           0        2.191968    3.341089   -2.225357
     92          7           0        3.518684    3.526815   -2.472310
     93          1           0        4.043468    4.280976   -2.054197
     94          1           0        3.939663    3.020757   -3.239659
     95          8           0        1.531258    2.510410   -2.847173
     96          7           0        3.873339    1.535556    2.420127
     97          1           0        3.893046    0.836465    1.684524
     98          6           0        4.122565    1.082991    3.791411
     99          1           0        3.282455    1.429099    4.406369
    100          6           0        5.421097    1.724020    4.319999
    101          6           0        4.163423   -0.460874    3.837744
    102          1           0        5.063709   -0.794323    3.302149
    103          8           0        6.457123    1.071694    4.488676
    104          6           0        4.210822   -0.974306    5.270990
    105          1           0        5.110548   -0.623587    5.780446
    106          1           0        3.324701   -0.637858    5.821567
    107          1           0        4.209915   -2.067681    5.262847
    108          8           0        2.986572   -1.004955    3.238893
    109          1           0        3.052243   -0.960138    2.270180
    110          7           0        5.319869    3.046457    4.575856
    111          1           0        4.442479    3.509313    4.344893
    112          6           0        6.460852    3.862333    5.004937
    113          1           0        7.350423    3.450781    4.512749
    114          6           0        6.655795    3.725127    6.534355
    115          6           0        6.247451    5.316269    4.601999
    116          1           0        7.114146    5.916432    4.889329
    117          1           0        6.101096    5.392309    3.519803
    118          1           0        5.377223    5.733460    5.117055
    119          8           0        6.455761    4.667148    7.305604
    120          7           0        7.037378    2.491525    6.935170
    121          1           0        7.159540    1.774760    6.222389
    122          6           0        7.049200    2.093724    8.344751
    123          1           0        6.275058    2.690841    8.838584
    124          6           0        8.394344    2.463353    9.004383
    125          6           0        6.714936    0.605860    8.468760
    126          1           0        5.758922    0.447946    7.948095
    127          1           0        7.477171    0.025290    7.933334
    128          8           0        9.208232    1.632283    9.391882
    129          6           0        6.600859    0.066646    9.909878
    130          1           0        7.611557    0.049180   10.329811
    131          6           0        5.729389    0.955691   10.809946
    132          1           0        4.740399    1.128208   10.362521
    133          1           0        6.198616    1.927072   11.001678
    134          1           0        5.572504    0.476987   11.783563
    135          6           0        6.064979   -1.371274    9.869492
    136          1           0        5.038105   -1.397533    9.479478
    137          1           0        6.051719   -1.814416   10.871995
    138          1           0        6.682927   -2.010986    9.227376
    139          7           0        8.592497    3.807337    9.122856
    140          1           0        7.832428    4.423529    8.845848
    141          6           0        9.641574    4.309551    9.977596
    142          1           0       10.560775    3.754701    9.765790
    143          6           0        9.294960    4.038394   11.447861
    144          6           0        9.870318    5.808398    9.744500
    145          1           0       10.673848    6.174947   10.387863
    146          1           0       10.141593    5.983489    8.699191
    147          1           0        8.961143    6.379575    9.966169
    148          8           0        8.218890    3.684273   11.871048
    149          8           0       10.364803    4.275163   12.244041
    150          1           0       10.076704    4.092561   13.158104
 ---------------------------------------------------------------------

 SCF Done:  E(RB3LYP) =  -3455.71262652     A.U. after    2 cycles

 Alpha  occ. eigenvalues --  -19.27478 -19.22478 -19.22118 -19.21807 -19.21203
 Alpha  occ. eigenvalues --  -19.20902 -19.20624 -19.20222 -19.18971 -19.18381
 Alpha  occ. eigenvalues --  -19.18317 -19.16436 -19.16125 -19.14890 -19.13044
 Alpha  occ. eigenvalues --  -14.60583 -14.49935 -14.46452 -14.45809 -14.44517
 Alpha  occ. eigenvalues --  -14.43810 -14.43174 -14.41734 -14.40156 -14.38366
 Alpha  occ. eigenvalues --  -14.36713 -10.44102 -10.41231 -10.39600 -10.38830
 Alpha  occ. eigenvalues --  -10.37517 -10.36878 -10.36485 -10.34991 -10.34844
 Alpha  occ. eigenvalues --  -10.34052 -10.33865 -10.33316 -10.32811 -10.32607
 Alpha  occ. eigenvalues --  -10.31615 -10.31459 -10.30594 -10.30586 -10.30573
 Alpha  occ. eigenvalues --  -10.30349 -10.29920 -10.29855 -10.29571 -10.28670
 Alpha  occ. eigenvalues --  -10.28386 -10.27922 -10.27633 -10.27217 -10.26863
 Alpha  occ. eigenvalues --  -10.26768 -10.26698 -10.26507 -10.25902 -10.25250
 Alpha  occ. eigenvalues --  -10.25063 -10.24966 -10.22743 -10.21791 -10.21331
 Alpha  occ. eigenvalues --  -10.20882 -10.20321 -10.19768 -10.18684 -10.18171
 Alpha  occ. eigenvalues --   -1.19884  -1.14805  -1.14301  -1.13699  -1.12593
 Alpha  occ. eigenvalues --   -1.12513  -1.11612  -1.10492  -1.09886  -1.08645
 Alpha  occ. eigenvalues --   -1.08128  -1.08094  -1.06758  -1.06436  -1.05899
 Alpha  occ. eigenvalues --   -1.04869  -1.03560  -1.03018  -1.02137  -1.01068
 Alpha  occ. eigenvalues --   -1.00149  -0.98252  -0.97782  -0.96676  -0.95794
 Alpha  occ. eigenvalues --   -0.95026  -0.93828  -0.91862  -0.89420  -0.88807
 Alpha  occ. eigenvalues --   -0.87438  -0.85629  -0.83647  -0.83403  -0.83157
 Alpha  occ. eigenvalues --   -0.82499  -0.80965  -0.80630  -0.79984  -0.79924
 Alpha  occ. eigenvalues --   -0.79784  -0.78979  -0.77717  -0.77229  -0.76119
 Alpha  occ. eigenvalues --   -0.76025  -0.74846  -0.74592  -0.73656  -0.72551
 Alpha  occ. eigenvalues --   -0.71841  -0.70717  -0.69956  -0.69708  -0.69535
 Alpha  occ. eigenvalues --   -0.69309  -0.69132  -0.68605  -0.68275  -0.68112
 Alpha  occ. eigenvalues --   -0.67180  -0.66929  -0.66536  -0.65776  -0.65637
 Alpha  occ. eigenvalues --   -0.65349  -0.64761  -0.63913  -0.63410  -0.62749
 Alpha  occ. eigenvalues --   -0.62612  -0.62140  -0.61376  -0.60905  -0.60882
 Alpha  occ. eigenvalues --   -0.60175  -0.59593  -0.59440  -0.59287  -0.59248
 Alpha  occ. eigenvalues --   -0.58635  -0.58161  -0.57942  -0.57499  -0.57265
 Alpha  occ. eigenvalues --   -0.56916  -0.56691  -0.56471  -0.56240  -0.55922
 Alpha  occ. eigenvalues --   -0.55644  -0.55504  -0.54803  -0.54208  -0.54072
 Alpha  occ. eigenvalues --   -0.53892  -0.53607  -0.53294  -0.53001  -0.52828
 Alpha  occ. eigenvalues --   -0.52423  -0.52308  -0.52140  -0.51820  -0.51574
 Alpha  occ. eigenvalues --   -0.51310  -0.50803  -0.50552  -0.50413  -0.50246
 Alpha  occ. eigenvalues --   -0.50208  -0.50082  -0.49862  -0.49427  -0.49119
 Alpha  occ. eigenvalues --   -0.49057  -0.48946  -0.48832  -0.48639  -0.48424
 Alpha  occ. eigenvalues --   -0.48375  -0.47627  -0.47531  -0.47494  -0.47430
 Alpha  occ. eigenvalues --   -0.47005  -0.46963  -0.46754  -0.46401  -0.46171
 Alpha  occ. eigenvalues --   -0.46165  -0.45948  -0.45782  -0.45649  -0.45535
 Alpha  occ. eigenvalues --   -0.45518  -0.45365  -0.45162  -0.44850  -0.44626
 Alpha  occ. eigenvalues --   -0.44282  -0.43901  -0.43662  -0.43537  -0.43465
 Alpha  occ. eigenvalues --   -0.43284  -0.43151  -0.43019  -0.42877  -0.42844
 Alpha  occ. eigenvalues --   -0.42610  -0.42447  -0.42336  -0.42165  -0.41963
 Alpha  occ. eigenvalues --   -0.41801  -0.41764  -0.41672  -0.41508  -0.41217
 Alpha  occ. eigenvalues --   -0.41043  -0.40909  -0.40786  -0.40550  -0.40056
 Alpha  occ. eigenvalues --   -0.39684  -0.39485  -0.39416  -0.39181  -0.39013
 Alpha  occ. eigenvalues --   -0.38344  -0.37777  -0.37519  -0.37280  -0.36990
 Alpha  occ. eigenvalues --   -0.36813  -0.36301  -0.35805  -0.35198  -0.35038
 Alpha  occ. eigenvalues --   -0.34735  -0.34226  -0.34182  -0.33961  -0.33951
 Alpha  occ. eigenvalues --   -0.33674  -0.33507  -0.33212  -0.33116  -0.32504
 Alpha  occ. eigenvalues --   -0.32032  -0.31732  -0.31463  -0.31027  -0.29821
 Alpha  occ. eigenvalues --   -0.29634  -0.28985  -0.27567  -0.27103  -0.25469
 Alpha virt. eigenvalues --   -0.12646  -0.11998  -0.08932  -0.08211  -0.07335
 Alpha virt. eigenvalues --   -0.07095  -0.05481  -0.04933  -0.04736  -0.04285
 Alpha virt. eigenvalues --   -0.03115  -0.02939  -0.01935  -0.01577  -0.01242

 Mulliken charges:
               1
     1  N   -0.757487
     2  H    0.416932
     3  H    0.413673
     4  H    0.433589
     5  C   -0.119863
     6  H    0.217148
     7  C    0.652317
     8  C   -0.299406
     9  H    0.198829
    10  H    0.174131
    11  O   -0.540321
    12  C   -0.099072
    13  H    0.113954
    14  C   -0.448147
    15  H    0.167985
    16  H    0.159739
    17  H    0.176154
    18  C   -0.455001
    19  H    0.170015
    20  H    0.131486
    21  H    0.185389
    22  N   -0.593664
    23  H    0.370901
    24  C   -0.076385
    25  H    0.185630
    26  C    0.630354
    27  C   -0.075369
    28  H    0.150250
    29  O   -0.550385
    30  C   -0.476537
    31  H    0.152602
    32  H    0.170091
    33  H    0.172137
    34  C   -0.446471
    35  H    0.164143
    36  H    0.169085
    37  H    0.132462
    38  N   -0.598255
    39  H    0.359017
    40  C   -0.072398
    41  H    0.184950
    42  C    0.647543
    43  C   -0.087682
    44  H    0.177532
    45  O   -0.586602
    46  C   -0.486419
    47  H    0.145514
    48  H    0.170897
    49  H    0.167355
    50  C   -0.445097
    51  H    0.154888
    52  H    0.131994
    53  H    0.159002
    54  N   -0.592041
    55  H    0.364079
    56  C   -0.076686
    57  H    0.196607
    58  C    0.685277
    59  C   -0.064656
    60  H    0.161321
    61  H    0.175576
    62  O   -0.591015
    63  O   -0.638416
    64  H    0.420500
    65  N   -0.598814
    66  H    0.359564
    67  C   -0.073795
    68  H    0.185477
    69  C    0.661972
    70  C    0.107443
    71  H    0.144777
    72  O   -0.567967
    73  C   -0.478078
    74  H    0.194069
    75  H    0.151123
    76  H    0.165117
    77  O   -0.658740
    78  H    0.417120
    79  N   -0.604130
    80  H    0.373681
    81  C   -0.068293
    82  H    0.181917
    83  C    0.637022
    84  C   -0.305743
    85  H    0.154566
    86  H    0.194578
    87  O   -0.538719
    88  C   -0.399025
    89  H    0.175208
    90  H    0.194401
    91  C    0.599007
    92  N   -0.731360
    93  H    0.348760
    94  H    0.352708
    95  O   -0.530227
    96  N   -0.617462
    97  H    0.356695
    98  C   -0.060278
    99  H    0.177593
   100  C    0.642466
   101  C    0.108430
   102  H    0.146336
   103  O   -0.553584
   104  C   -0.469464
   105  H    0.182336
   106  H    0.149752
   107  H    0.162631
   108  O   -0.659440
   109  H    0.421480
   110  N   -0.614462
   111  H    0.376484
   112  C   -0.058073
   113  H    0.177836
   114  C    0.630537
   115  C   -0.459658
   116  H    0.171634
   117  H    0.143130
   118  H    0.175529
   119  O   -0.547040
   120  N   -0.625124
   121  H    0.377054
   122  C   -0.071249
   123  H    0.180011
   124  C    0.645931
   125  C   -0.282184
   126  H    0.129911
   127  H    0.149599
   128  O   -0.531246
   129  C   -0.075019
   130  H    0.169883
   131  C   -0.467800
   132  H    0.125894
   133  H    0.175847
   134  H    0.140768
   135  C   -0.445766
   136  H    0.129023
   137  H    0.141870
   138  H    0.139235
   139  N   -0.611796
   140  H    0.366970
   141  C   -0.029292
   142  H    0.194511
   143  C    0.598153
   144  C   -0.473450
   145  H    0.177527
   146  H    0.168223
   147  H    0.161113
   148  O   -0.462080
   149  O   -0.569679
   150  H    0.412460
 Sum of Mulliken charges =   1.00000

 Dipole moment (field-independent basis, Debye):
    X=            -30.6113    Y=            -24.4540    Z=            -27.9988  Tot=             48.1558
 Quadrupole moment (field-independent basis, Debye-Ang):
   XX=           -174.3893   YY=           -164.4506   ZZ=           -339.1043
   XY=            272.0343   XZ=            108.6076   YZ=            146.2228

 Normal termination of Gaussian 16 at Mon Jul 18 20:49:42 2022.
