 Gaussian 16, Revision C.01,
 Gaussian 16:  ES64L-G16RevC.01  3-Jul-2019

 ----------------------------------------------------------------------
 # B3LYP/6-31G* empiricaldispersion=gd3 guess=read geom=check nosymm in
 tegral(ultrafinegrid)
 ----------------------------------------------------------------------

 ------------------------------------------------------
 Candidate Structure: Conf:535 Charge calc in gas phase
 ------------------------------------------------------
 Structure from the checkpoint file:  "conf-535.chk"
 Charge =  1 Multiplicity = 1

                          Input orientation:
 ---------------------------------------------------------------------
 Center     Atomic      Atomic             Coordinates (Angstroms)
 Number     Number       Type             X           Y           Z
 ---------------------------------------------------------------------
      1          7           0        0.714493    3.225692   -4.422107
      2          1           0        1.375857    2.976189   -5.162199
      3          1           0        1.168708    3.886549   -3.784546
      4          1           0       -0.151567    3.632354   -4.868800
      5          6           0        0.158366    2.017391   -3.691844
      6          1           0        0.858532    1.187278   -3.781511
      7          6           0       -1.171155    1.749612   -4.432219
      8          6           0       -0.104974    2.379898   -2.224090
      9          1           0       -0.620615    1.525420   -1.776083
     10          1           0       -0.819156    3.215520   -2.202870
     11          8           0       -1.669833    2.681536   -5.082904
     12          6           0        1.147785    2.716840   -1.392679
     13          1           0        1.713164    3.539976   -1.862588
     14          6           0        0.718545    3.229051   -0.010773
     15          1           0        0.178869    2.447685    0.539998
     16          1           0        0.056009    4.099010   -0.089004
     17          1           0        1.599095    3.521940    0.564150
     18          6           0        2.103419    1.524393   -1.261089
     19          1           0        1.629837    0.715179   -0.693782
     20          1           0        2.404707    1.105911   -2.228188
     21          1           0        3.008380    1.841582   -0.742067
     22          7           0       -1.667587    0.530494   -4.255000
     23          1           0       -1.105969   -0.114097   -3.674854
     24          6           0       -3.007316    0.133513   -4.653058
     25          1           0       -3.432749    0.965457   -5.224423
     26          6           0       -3.849261   -0.052394   -3.368539
     27          6           0       -2.968467   -1.134721   -5.550097
     28          1           0       -4.000948   -1.325802   -5.875465
     29          8           0       -3.389761    0.209321   -2.249681
     30          6           0       -2.133408   -0.875138   -6.810320
     31          1           0       -1.079179   -0.724613   -6.553392
     32          1           0       -2.482699    0.012529   -7.350036
     33          1           0       -2.193112   -1.732305   -7.488461
     34          6           0       -2.471109   -2.368998   -4.782910
     35          1           0       -1.442805   -2.232606   -4.428245
     36          1           0       -2.482891   -3.249261   -5.433173
     37          1           0       -3.105564   -2.589962   -3.918434
     38          7           0       -5.107939   -0.504642   -3.535087
     39          1           0       -5.414992   -0.803032   -4.451549
     40          6           0       -5.966827   -0.866740   -2.397380
     41          1           0       -5.723132   -0.168689   -1.591234
     42          6           0       -5.593112   -2.311780   -1.993441
     43          6           0       -7.455824   -0.741779   -2.759102
     44          1           0       -7.655280   -1.467532   -3.559288
     45          8           0       -6.103832   -3.285340   -2.537073
     46          6           0       -8.324089   -1.123024   -1.550907
     47          1           0       -8.122333   -0.461338   -0.698632
     48          1           0       -8.148547   -2.157178   -1.241796
     49          1           0       -9.384896   -1.024886   -1.802525
     50          6           0       -7.791203    0.673358   -3.249879
     51          1           0       -7.599712    1.414213   -2.463438
     52          1           0       -7.204611    0.962223   -4.128502
     53          1           0       -8.850402    0.739029   -3.518929
     54          7           0       -4.629946   -2.411911   -1.038310
     55          1           0       -4.189118   -1.580803   -0.662265
     56          6           0       -4.160468   -3.695284   -0.556962
     57          1           0       -5.018595   -4.350861   -0.373953
     58          6           0       -3.348889   -3.487883    0.711935
     59          6           0       -3.251549   -4.413302   -1.610444
     60          1           0       -2.405299   -3.752041   -1.844205
     61          1           0       -3.859404   -4.539694   -2.509393
     62          8           0       -2.849344   -2.396479    1.007410
     63          8           0       -2.828210   -5.688457   -1.171684
     64          1           0       -1.954622   -5.585741   -0.739238
     65          7           0       -3.121438   -4.617735    1.440943
     66          1           0       -3.302462   -5.476310    0.921250
     67          6           0       -1.955311   -4.647366    2.325348
     68          1           0       -2.062639   -3.837181    3.051028
     69          6           0       -0.692173   -4.441586    1.474337
     70          6           0       -1.941814   -5.984977    3.100814
     71          1           0       -1.937443   -6.802852    2.358530
     72          8           0       -0.568738   -4.989995    0.369201
     73          6           0       -0.724137   -6.124397    4.004413
     74          1           0        0.202333   -6.176135    3.425006
     75          1           0       -0.664524   -5.280688    4.700907
     76          1           0       -0.820848   -7.041255    4.591259
     77          8           0       -3.083580   -6.058226    3.936308
     78          1           0       -3.874328   -5.910927    3.392287
     79          7           0        0.242324   -3.632625    2.001829
     80          1           0        0.094921   -3.198956    2.908388
     81          6           0        1.497372   -3.262096    1.366636
     82          1           0        1.912439   -4.133260    0.848649
     83          6           0        2.429095   -2.763812    2.479061
     84          6           0        1.315487   -2.072209    0.378249
     85          1           0        2.267843   -1.544627    0.253046
     86          1           0        0.636996   -1.364709    0.867474
     87          8           0        1.969392   -2.333411    3.538220
     88          6           0        0.782616   -2.483837   -1.014204
     89          1           0        0.200729   -3.406481   -0.925161
     90          1           0        1.609771   -2.682515   -1.699232
     91          6           0       -0.106979   -1.440139   -1.665838
     92          7           0       -1.200135   -1.071666   -0.976255
     93          1           0       -1.512018   -1.564869   -0.142668
     94          1           0       -1.904380   -0.490959   -1.434423
     95          8           0        0.164138   -0.965671   -2.788003
     96          7           0        3.742791   -2.707404    2.151587
     97          1           0        4.038852   -2.973443    1.215799
     98          6           0        4.642391   -1.721218    2.760513
     99          1           0        4.613277   -1.827319    3.848198
    100          6           0        4.107751   -0.346959    2.317726
    101          6           0        6.071011   -1.966035    2.220265
    102          1           0        6.684434   -1.100513    2.515593
    103          8           0        4.383380    0.105856    1.189455
    104          6           0        6.687400   -3.243367    2.770834
    105          1           0        6.801302   -3.184996    3.858247
    106          1           0        6.062637   -4.109364    2.530406
    107          1           0        7.672099   -3.393926    2.320616
    108          8           0        6.021520   -2.081623    0.800530
    109          1           0        5.668990   -1.226444    0.483271
    110          7           0        3.253670    0.256537    3.161963
    111          1           0        2.974997   -0.269584    3.982300
    112          6           0        2.346368    1.337713    2.739168
    113          1           0        2.081185    1.134571    1.694924
    114          6           0        3.061794    2.710447    2.787189
    115          6           0        1.099581    1.330271    3.613709
    116          1           0        0.386018    2.072962    3.248326
    117          1           0        0.630036    0.341165    3.595413
    118          1           0        1.351674    1.600910    4.642737
    119          8           0        2.808717    3.550308    3.642236
    120          7           0        3.961592    2.875675    1.783740
    121          1           0        4.157056    2.074982    1.190124
    122          6           0        4.776529    4.059754    1.632534
    123          1           0        4.589247    4.682754    2.511120
    124          6           0        4.351208    4.823745    0.366875
    125          6           0        6.275739    3.695910    1.539884
    126          1           0        6.451098    3.195464    0.577148
    127          1           0        6.857909    4.627204    1.518804
    128          8           0        3.849917    4.261730   -0.610354
    129          6           0        6.781788    2.794481    2.682070
    130          1           0        6.231828    1.844748    2.619039
    131          6           0        8.272697    2.489008    2.480350
    132          1           0        8.873149    3.405153    2.545885
    133          1           0        8.461539    2.034013    1.500459
    134          1           0        8.638632    1.798845    3.249183
    135          6           0        6.522622    3.406000    4.066288
    136          1           0        7.002366    4.389967    4.152337
    137          1           0        6.940355    2.768044    4.853480
    138          1           0        5.454141    3.529788    4.272347
    139          7           0        4.610662    6.151705    0.391981
    140          1           0        5.055213    6.585712    1.192961
    141          6           0        4.375127    7.006572   -0.757654
    142          1           0        4.728772    6.490458   -1.658008
    143          6           0        5.205208    8.268585   -0.570985
    144          6           0        2.883448    7.345891   -0.937068
    145          1           0        2.734752    7.966412   -1.825206
    146          1           0        2.327065    6.411256   -1.044385
    147          1           0        2.504006    7.881565   -0.061234
    148          8           0        5.809450    8.552543    0.440225
    149          8           0        5.164583    9.047747   -1.667871
    150          1           0        5.691422    9.846710   -1.473981
 ---------------------------------------------------------------------

 SCF Done:  E(RB3LYP) =  -3455.75856136     A.U. after    3 cycles

 Alpha  occ. eigenvalues --  -19.28027 -19.24302 -19.22562 -19.22536 -19.22523
 Alpha  occ. eigenvalues --  -19.22338 -19.22303 -19.22088 -19.21983 -19.21808
 Alpha  occ. eigenvalues --  -19.21622 -19.21593 -19.19556 -19.19157 -19.18547
 Alpha  occ. eigenvalues --  -14.57996 -14.46376 -14.46333 -14.46087 -14.46013
 Alpha  occ. eigenvalues --  -14.46009 -14.45289 -14.44081 -14.43941 -14.43387
 Alpha  occ. eigenvalues --  -14.42431 -10.40878 -10.40509 -10.39234 -10.39232
 Alpha  occ. eigenvalues --  -10.38918 -10.38845 -10.38671 -10.38565 -10.37488
 Alpha  occ. eigenvalues --  -10.36444 -10.36421 -10.35719 -10.33813 -10.33397
 Alpha  occ. eigenvalues --  -10.32747 -10.32486 -10.32451 -10.32272 -10.32123
 Alpha  occ. eigenvalues --  -10.31744 -10.31564 -10.31417 -10.31186 -10.30280
 Alpha  occ. eigenvalues --  -10.30244 -10.29427 -10.29338 -10.29128 -10.27947
 Alpha  occ. eigenvalues --  -10.26800 -10.26357 -10.26034 -10.25907 -10.25848
 Alpha  occ. eigenvalues --  -10.25770 -10.25766 -10.25730 -10.25423 -10.25001
 Alpha  occ. eigenvalues --  -10.24903 -10.24501 -10.23932 -10.23362 -10.22958
 Alpha  occ. eigenvalues --   -1.19033  -1.16669  -1.14850  -1.14405  -1.14122
 Alpha  occ. eigenvalues --   -1.13679  -1.13122  -1.12577  -1.11747  -1.11429
 Alpha  occ. eigenvalues --   -1.11176  -1.10354  -1.10114  -1.09695  -1.09648
 Alpha  occ. eigenvalues --   -1.09085  -1.03998  -1.02831  -1.02609  -1.02519
 Alpha  occ. eigenvalues --   -1.02043  -1.01865  -1.00581  -1.00369  -0.99552
 Alpha  occ. eigenvalues --   -0.99071  -0.92566  -0.90390  -0.89953  -0.88184
 Alpha  occ. eigenvalues --   -0.88071  -0.86876  -0.86603  -0.86365  -0.86020
 Alpha  occ. eigenvalues --   -0.84850  -0.83954  -0.82408  -0.81610  -0.81222
 Alpha  occ. eigenvalues --   -0.79378  -0.78653  -0.77940  -0.77191  -0.77129
 Alpha  occ. eigenvalues --   -0.76389  -0.75430  -0.75174  -0.74212  -0.73816
 Alpha  occ. eigenvalues --   -0.73688  -0.72660  -0.72206  -0.71715  -0.70978
 Alpha  occ. eigenvalues --   -0.70902  -0.70095  -0.69526  -0.69338  -0.68452
 Alpha  occ. eigenvalues --   -0.68219  -0.67790  -0.67415  -0.67341  -0.67162
 Alpha  occ. eigenvalues --   -0.66664  -0.66481  -0.66223  -0.65971  -0.65738
 Alpha  occ. eigenvalues --   -0.65398  -0.64251  -0.63039  -0.62932  -0.62321
 Alpha  occ. eigenvalues --   -0.61881  -0.61185  -0.60752  -0.60563  -0.60277
 Alpha  occ. eigenvalues --   -0.60118  -0.59427  -0.59261  -0.58733  -0.58514
 Alpha  occ. eigenvalues --   -0.58170  -0.57880  -0.57604  -0.57531  -0.57123
 Alpha  occ. eigenvalues --   -0.56908  -0.56475  -0.56322  -0.55869  -0.55619
 Alpha  occ. eigenvalues --   -0.55292  -0.55158  -0.54977  -0.54741  -0.54343
 Alpha  occ. eigenvalues --   -0.53998  -0.53639  -0.53503  -0.53169  -0.52955
 Alpha  occ. eigenvalues --   -0.52681  -0.52537  -0.52348  -0.52168  -0.51879
 Alpha  occ. eigenvalues --   -0.51710  -0.51456  -0.51350  -0.50965  -0.50904
 Alpha  occ. eigenvalues --   -0.50878  -0.50494  -0.50368  -0.49832  -0.49651
 Alpha  occ. eigenvalues --   -0.49441  -0.49351  -0.49212  -0.49000  -0.48966
 Alpha  occ. eigenvalues --   -0.48802  -0.48732  -0.48673  -0.48296  -0.48066
 Alpha  occ. eigenvalues --   -0.47809  -0.47443  -0.47381  -0.47126  -0.47034
 Alpha  occ. eigenvalues --   -0.46969  -0.46815  -0.46678  -0.46561  -0.46478
 Alpha  occ. eigenvalues --   -0.46327  -0.46079  -0.45963  -0.45953  -0.45852
 Alpha  occ. eigenvalues --   -0.45763  -0.45375  -0.45318  -0.45041  -0.44932
 Alpha  occ. eigenvalues --   -0.44834  -0.44588  -0.44234  -0.44155  -0.44098
 Alpha  occ. eigenvalues --   -0.43953  -0.43849  -0.43756  -0.43574  -0.43410
 Alpha  occ. eigenvalues --   -0.42730  -0.42615  -0.42447  -0.42283  -0.42252
 Alpha  occ. eigenvalues --   -0.41948  -0.41514  -0.41409  -0.40911  -0.40794
 Alpha  occ. eigenvalues --   -0.40464  -0.40225  -0.40188  -0.39127  -0.38801
 Alpha  occ. eigenvalues --   -0.38734  -0.38651  -0.38132  -0.38012  -0.37285
 Alpha  occ. eigenvalues --   -0.37103  -0.36912  -0.36742  -0.36505  -0.36281
 Alpha  occ. eigenvalues --   -0.36217  -0.36049  -0.35783  -0.35516  -0.35475
 Alpha  occ. eigenvalues --   -0.34984  -0.34646  -0.34113  -0.33791  -0.33656
 Alpha  occ. eigenvalues --   -0.33533  -0.32388  -0.32032  -0.31874  -0.31592
 Alpha virt. eigenvalues --   -0.09855  -0.09802  -0.09123  -0.08829  -0.08639
 Alpha virt. eigenvalues --   -0.08303  -0.07470  -0.07449  -0.06815  -0.05498
 Alpha virt. eigenvalues --   -0.05405  -0.05014  -0.04357  -0.02356  -0.01975

 Mulliken charges:
               1
     1  N   -0.751891
     2  H    0.411483
     3  H    0.410419
     4  H    0.422423
     5  C   -0.135846
     6  H    0.232818
     7  C    0.631722
     8  C   -0.287615
     9  H    0.199439
    10  H    0.160674
    11  O   -0.550619
    12  C   -0.102383
    13  H    0.131738
    14  C   -0.469693
    15  H    0.145478
    16  H    0.146233
    17  H    0.192531
    18  C   -0.468459
    19  H    0.148760
    20  H    0.133129
    21  H    0.195293
    22  N   -0.612729
    23  H    0.417769
    24  C   -0.092449
    25  H    0.205569
    26  C    0.639249
    27  C   -0.096023
    28  H    0.137943
    29  O   -0.560938
    30  C   -0.447358
    31  H    0.148325
    32  H    0.156443
    33  H    0.168474
    34  C   -0.494389
    35  H    0.168322
    36  H    0.172244
    37  H    0.162779
    38  N   -0.598823
    39  H    0.350837
    40  C   -0.041081
    41  H    0.172371
    42  C    0.629956
    43  C   -0.101380
    44  H    0.155327
    45  O   -0.527177
    46  C   -0.464143
    47  H    0.143748
    48  H    0.173981
    49  H    0.163055
    50  C   -0.448166
    51  H    0.149872
    52  H    0.137455
    53  H    0.164747
    54  N   -0.628918
    55  H    0.357057
    56  C   -0.048269
    57  H    0.195910
    58  C    0.605420
    59  C   -0.058452
    60  H    0.134479
    61  H    0.195372
    62  O   -0.557377
    63  O   -0.646855
    64  H    0.438745
    65  N   -0.618043
    66  H    0.355552
    67  C   -0.071461
    68  H    0.184674
    69  C    0.645942
    70  C    0.128203
    71  H    0.137824
    72  O   -0.572305
    73  C   -0.465883
    74  H    0.154801
    75  H    0.160256
    76  H    0.188219
    77  O   -0.611074
    78  H    0.404257
    79  N   -0.600187
    80  H    0.365868
    81  C   -0.057970
    82  H    0.192436
    83  C    0.613707
    84  C   -0.305285
    85  H    0.179114
    86  H    0.171986
    87  O   -0.538394
    88  C   -0.382618
    89  H    0.220744
    90  H    0.178403
    91  C    0.595612
    92  N   -0.815654
    93  H    0.390680
    94  H    0.410292
    95  O   -0.578982
    96  N   -0.590933
    97  H    0.354140
    98  C   -0.074402
    99  H    0.180352
   100  C    0.640715
   101  C    0.107263
   102  H    0.148436
   103  O   -0.592492
   104  C   -0.451746
   105  H    0.155094
   106  H    0.161741
   107  H    0.180518
   108  O   -0.644633
   109  H    0.420138
   110  N   -0.577811
   111  H    0.369525
   112  C   -0.074595
   113  H    0.174978
   114  C    0.626516
   115  C   -0.482877
   116  H    0.177861
   117  H    0.158569
   118  H    0.188731
   119  O   -0.518807
   120  N   -0.617325
   121  H    0.390826
   122  C   -0.085103
   123  H    0.189662
   124  C    0.643829
   125  C   -0.276059
   126  H    0.145246
   127  H    0.146508
   128  O   -0.557691
   129  C   -0.072210
   130  H    0.123072
   131  C   -0.445235
   132  H    0.149994
   133  H    0.142587
   134  H    0.146994
   135  C   -0.468932
   136  H    0.144171
   137  H    0.146886
   138  H    0.173598
   139  N   -0.608852
   140  H    0.359995
   141  C   -0.017138
   142  H    0.187927
   143  C    0.583507
   144  C   -0.455305
   145  H    0.170262
   146  H    0.168470
   147  H    0.170534
   148  O   -0.457781
   149  O   -0.563378
   150  H    0.427391
 Sum of Mulliken charges =   1.00000

 Dipole moment (field-independent basis, Debye):
    X=              4.2402    Y=              7.0093    Z=            -10.1407  Tot=             13.0363
 Quadrupole moment (field-independent basis, Debye-Ang):
   XX=           -341.7377   YY=           -342.6837   ZZ=           -349.8880
   XY=             28.3956   XZ=             18.0007   YZ=            -58.5837

 Normal termination of Gaussian 16 at Mon Jul 18 20:43:51 2022.
