 Gaussian 16, Revision C.01,
 Gaussian 16:  ES64L-G16RevC.01  3-Jul-2019

 -------------------------------------------------------------------
 # B3LYP/6-31G* guess=read geom=check nosymm integral(ultrafinegrid)
 -------------------------------------------------------------------

 ------------------------------------------------------
 Candidate Structure: Conf:197 Charge calc in gas phase
 ------------------------------------------------------
 Structure from the checkpoint file:  "conf-197.chk"
 Charge =  1 Multiplicity = 1

                          Input orientation:
 ---------------------------------------------------------------------
 Center     Atomic      Atomic             Coordinates (Angstroms)
 Number     Number       Type             X           Y           Z
 ---------------------------------------------------------------------
      1          7           0       -3.408023   -1.987127    3.647570
      2          1           0       -4.269738   -2.520607    3.537824
      3          1           0       -2.793580   -2.286251    2.882468
      4          6           0       -3.677252   -0.554244    3.427824
      5          1           0       -4.643956   -0.305148    3.879974
      6          6           0       -3.662154   -0.234892    1.914535
      7          6           0       -2.561638    0.328835    4.056129
      8          1           0       -1.604250    0.229683    3.494593
      9          1           0       -2.803889    1.391809    3.989368
     10          8           0       -3.020908   -0.962118    1.162440
     11          6           0       -2.173739    0.005764    5.452161
     12          7           0       -2.258345   -1.213628    5.909132
     13          1           0       -2.671440   -1.895986    5.205425
     14          1           0       -1.942267   -1.489913    6.832790
     15          8           0       -1.696515    1.012009    6.149560
     16          7           0       -4.286861    0.903528    1.516822
     17          1           0       -4.658985    1.501761    2.244780
     18          6           0       -3.769378    1.620949    0.339902
     19          1           0       -3.801231    0.930192   -0.506240
     20          6           0       -2.313832    2.007393    0.695336
     21          6           0       -4.618592    2.872703    0.051141
     22          1           0       -4.485767    3.572079    0.885788
     23          1           0       -4.185628    3.359953   -0.831516
     24          8           0       -2.081563    2.541029    1.783006
     25          6           0       -6.089159    2.584726   -0.170157
     26          6           0       -7.043312    2.970996    0.778779
     27          1           0       -6.725529    3.508436    1.670583
     28          6           0       -6.524837    1.920900   -1.325581
     29          1           0       -5.801184    1.624057   -2.082106
     30          6           0       -8.399073    2.696695    0.585402
     31          1           0       -9.125517    3.010997    1.330002
     32          6           0       -7.876863    1.643511   -1.522080
     33          1           0       -8.196804    1.131534   -2.425471
     34          6           0       -8.818901    2.029491   -0.565166
     35          1           0       -9.873014    1.817759   -0.720611
     36          7           0       -1.358929    1.676190   -0.194008
     37          1           0       -1.574322    1.212315   -1.071010
     38          6           0        0.052500    1.700214    0.140487
     39          1           0        0.235792    2.564141    0.783307
     40          6           0        0.847415    1.790541   -1.171076
     41          6           0        0.493750    0.370026    0.873023
     42          1           0        1.261252   -0.136407    0.277583
     43          1           0       -0.371599   -0.292647    0.928056
     44          8           0        0.369572    1.360650   -2.220096
     45          6           0        1.021715    0.560868    2.292986
     46          7           0        2.285300    1.011947    2.387625
     47          1           0        2.659588    1.139446    3.318938
     48          1           0        2.936804    1.126958    1.591744
     49          8           0        0.322151    0.313878    3.289460
     50          7           0        2.105373    2.265660   -1.018089
     51          1           0        2.432376    2.408003   -0.060050
     52          6           0        3.235595    1.778187   -1.813086
     53          1           0        2.982406    0.778949   -2.190413
     54          6           0        4.463620    1.636735   -0.824145
     55          6           0        3.573732    2.644593   -3.033774
     56          1           0        4.314386    2.085551   -3.615290
     57          1           0        2.674844    2.770655   -3.650291
     58          8           0        5.580248    1.572247   -1.359545
     59          6           0        4.179416    3.999713   -2.652324
     60          1           0        3.448184    4.604557   -2.098890
     61          1           0        5.038415    3.796554   -2.003536
     62          6           0        4.667783    4.772261   -3.874872
     63          1           0        5.332452    4.138387   -4.473452
     64          1           0        3.830360    5.102326   -4.503263
     65          7           0        5.442980    5.956524   -3.434772
     66          1           0        5.364870    6.199631   -2.454372
     67          7           0        6.306750    6.503427   -5.515591
     68          1           0        7.112837    6.782827   -6.056117
     69          1           0        5.630373    5.907555   -5.970705
     70          7           0        7.143653    7.528949   -3.617401
     71          1           0        7.594297    8.246593   -4.166435
     72          1           0        7.283831    7.552424   -2.617582
     73          6           0        6.289777    6.652916   -4.180379
     74          8           0        4.165406    1.638620    0.411564
     75          1           0       -1.322132    0.744578    7.009725
 ---------------------------------------------------------------------

 SCF Done:  E(RB3LYP) =  -1917.30853203     A.U. after    1 cycles

 Alpha  occ. eigenvalues --  -19.35087 -19.21006 -19.17828 -19.16610 -19.16520
 Alpha  occ. eigenvalues --  -19.10840 -19.09601 -14.52001 -14.51950 -14.51563
 Alpha  occ. eigenvalues --  -14.50965 -14.44583 -14.44245 -14.42217 -14.38969
 Alpha  occ. eigenvalues --  -14.38874 -10.48149 -10.46463 -10.37712 -10.35063
 Alpha  occ. eigenvalues --  -10.34227 -10.33981 -10.33819 -10.33207 -10.30931
 Alpha  occ. eigenvalues --  -10.30370 -10.29344 -10.28607 -10.26530 -10.26044
 Alpha  occ. eigenvalues --  -10.25788 -10.25009 -10.24866 -10.24833 -10.24663
 Alpha  occ. eigenvalues --  -10.24653 -10.24582 -10.24438 -10.23493  -1.24837
 Alpha  occ. eigenvalues --   -1.16622  -1.12987  -1.09812  -1.08077  -1.08037
 Alpha  occ. eigenvalues --   -1.07621  -1.05591  -1.04925  -1.03603  -1.01054
 Alpha  occ. eigenvalues --   -1.00470  -0.98596  -0.96418  -0.94693  -0.94027
 Alpha  occ. eigenvalues --   -0.91413  -0.89520  -0.88359  -0.86068  -0.83339
 Alpha  occ. eigenvalues --   -0.81353  -0.81013  -0.80069  -0.78865  -0.78273
 Alpha  occ. eigenvalues --   -0.75068  -0.74278  -0.74270  -0.72753  -0.72667
 Alpha  occ. eigenvalues --   -0.70769  -0.69752  -0.67730  -0.67258  -0.66541
 Alpha  occ. eigenvalues --   -0.65964  -0.65291  -0.64733  -0.64395  -0.64218
 Alpha  occ. eigenvalues --   -0.63299  -0.62853  -0.61261  -0.60310  -0.60041
 Alpha  occ. eigenvalues --   -0.59270  -0.58535  -0.57866  -0.57498  -0.57153
 Alpha  occ. eigenvalues --   -0.56918  -0.56158  -0.55295  -0.54672  -0.53729
 Alpha  occ. eigenvalues --   -0.53220  -0.53052  -0.52446  -0.51489  -0.51069
 Alpha  occ. eigenvalues --   -0.51039  -0.50461  -0.50125  -0.49945  -0.49352
 Alpha  occ. eigenvalues --   -0.48959  -0.48463  -0.47822  -0.47610  -0.47395
 Alpha  occ. eigenvalues --   -0.46943  -0.46635  -0.45717  -0.45285  -0.44832
 Alpha  occ. eigenvalues --   -0.44476  -0.43953  -0.43883  -0.43366  -0.43184
 Alpha  occ. eigenvalues --   -0.43118  -0.42618  -0.41935  -0.41190  -0.40995
 Alpha  occ. eigenvalues --   -0.40467  -0.40348  -0.39811  -0.39688  -0.39629
 Alpha  occ. eigenvalues --   -0.39299  -0.38318  -0.37350  -0.35367  -0.34488
 Alpha  occ. eigenvalues --   -0.32531  -0.31360  -0.31088  -0.30919  -0.30666
 Alpha  occ. eigenvalues --   -0.30212  -0.30023  -0.29518  -0.26077  -0.25569
 Alpha  occ. eigenvalues --   -0.23774
 Alpha virt. eigenvalues --   -0.13971  -0.11991  -0.08243  -0.08102  -0.07118
 Alpha virt. eigenvalues --   -0.06360  -0.05808  -0.04554  -0.04173  -0.03274
 Alpha virt. eigenvalues --   -0.02956  -0.02654  -0.02631  -0.01642  -0.01315

 Mulliken charges:
               1
     1  N   -0.773899
     2  H    0.344883
     3  H    0.362888
     4  C   -0.088915
     5  H    0.168375
     6  C    0.622330
     7  C   -0.407298
     8  H    0.310572
     9  H    0.224486
    10  O   -0.511789
    11  C    0.625807
    12  N   -0.706995
    13  H    0.437468
    14  H    0.366753
    15  O   -0.512286
    16  N   -0.567144
    17  H    0.334598
    18  C   -0.046961
    19  H    0.179521
    20  C    0.629714
    21  C   -0.404157
    22  H    0.168235
    23  H    0.176189
    24  O   -0.559301
    25  C    0.193103
    26  C   -0.199949
    27  H    0.119901
    28  C   -0.179916
    29  H    0.130249
    30  C   -0.126505
    31  H    0.138273
    32  C   -0.127171
    33  H    0.142859
    34  C   -0.128915
    35  H    0.142399
    36  N   -0.599963
    37  H    0.353550
    38  C   -0.044464
    39  H    0.192867
    40  C    0.577487
    41  C   -0.387415
    42  H    0.188869
    43  H    0.191786
    44  O   -0.535437
    45  C    0.586334
    46  N   -0.764365
    47  H    0.329986
    48  H    0.416301
    49  O   -0.560886
    50  N   -0.600585
    51  H    0.337817
    52  C   -0.077838
    53  H    0.162775
    54  C    0.575069
    55  C   -0.250005
    56  H    0.157201
    57  H    0.145560
    58  O   -0.571588
    59  C   -0.324163
    60  H    0.152252
    61  H    0.197103
    62  C   -0.149276
    63  H    0.186443
    64  H    0.178904
    65  N   -0.598512
    66  H    0.369743
    67  N   -0.754934
    68  H    0.383488
    69  H    0.394931
    70  N   -0.764972
    71  H    0.383259
    72  H    0.386719
    73  C    0.831125
    74  O   -0.613939
    75  H    0.441366
 Sum of Mulliken charges =   1.00000

 Dipole moment (field-independent basis, Debye):
    X=              4.1695    Y=             21.5081    Z=              2.1792  Tot=             22.0166
 Quadrupole moment (field-independent basis, Debye-Ang):
   XX=            -63.0563   YY=            -40.9622   ZZ=            -30.4425
   XY=            165.2018   XZ=           -140.8709   YZ=           -122.9295

 Normal termination of Gaussian 16 at Tue Jun  7 03:34:18 2022.
