 Gaussian 16, Revision C.01,
 Gaussian 16:  ES64L-G16RevC.01  3-Jul-2019

 -------------------------------------------------------------------
 # B3LYP/6-31G* guess=read geom=check nosymm integral(ultrafinegrid)
 -------------------------------------------------------------------

 ------------------------------------------------------
 Candidate Structure: Conf:497 Charge calc in gas phase
 ------------------------------------------------------
 Structure from the checkpoint file:  "conf-497.chk"
 Charge =  1 Multiplicity = 1

                          Input orientation:
 ---------------------------------------------------------------------
 Center     Atomic      Atomic             Coordinates (Angstroms)
 Number     Number       Type             X           Y           Z
 ---------------------------------------------------------------------
      1          7           0       -5.505477   -0.811050    3.353400
      2          1           0       -5.185560   -1.776496    3.295852
      3          1           0       -6.118758   -0.727872    4.161176
      4          6           0       -4.357805    0.079515    3.469581
      5          1           0       -4.725260    1.112389    3.436408
      6          6           0       -3.478542   -0.212455    2.248909
      7          6           0       -3.511078   -0.113157    4.756495
      8          1           0       -4.177798   -0.136784    5.626016
      9          1           0       -3.016186   -1.091231    4.694291
     10          8           0       -2.990000   -1.321690    2.075957
     11          6           0       -2.442785    0.952707    4.931298
     12          7           0       -2.191588    1.362122    6.189326
     13          1           0       -2.661477    0.969877    6.991898
     14          1           0       -1.448207    2.031716    6.343891
     15          8           0       -1.828952    1.450200    3.974259
     16          7           0       -3.272092    0.818351    1.371625
     17          1           0       -3.622941    1.745805    1.576485
     18          6           0       -2.440646    0.640749    0.206587
     19          1           0       -2.525565   -0.413417   -0.082847
     20          6           0       -0.960530    0.844919    0.561662
     21          6           0       -2.917989    1.530062   -0.976615
     22          1           0       -2.305289    1.312415   -1.858485
     23          1           0       -3.930937    1.190801   -1.216041
     24          8           0       -0.550074    1.076983    1.763007
     25          6           0       -2.911181    3.016821   -0.684347
     26          6           0       -4.038877    3.637021   -0.124311
     27          1           0       -4.945069    3.057417    0.042936
     28          6           0       -1.778251    3.798187   -0.956890
     29          1           0       -0.911055    3.344899   -1.432018
     30          6           0       -4.026311    4.999775    0.180524
     31          1           0       -4.910891    5.465897    0.605136
     32          6           0       -1.766812    5.160092   -0.654365
     33          1           0       -0.885255    5.753777   -0.878986
     34          6           0       -2.887158    5.762672   -0.078478
     35          1           0       -2.877628    6.824000    0.151746
     36          7           0       -0.056284    0.744847   -0.374811
     37          1           0       -0.322295    0.689587   -1.364510
     38          6           0        1.388218    0.964694   -0.229622
     39          1           0        1.539793    1.860148    0.383793
     40          6           0        1.859154    1.198677   -1.690868
     41          6           0        2.126798   -0.210786    0.455183
     42          1           0        2.449707   -0.956364   -0.277520
     43          1           0        1.442976   -0.699531    1.155360
     44          8           0        1.015443    1.267689   -2.593869
     45          6           0        3.286942    0.321107    1.317498
     46          7           0        4.506540   -0.221350    1.065257
     47          1           0        5.280592    0.166252    1.591217
     48          1           0        4.729104   -0.633935    0.159929
     49          8           0        3.069543    1.157951    2.184505
     50          7           0        3.185530    1.275458   -1.873090
     51          1           0        3.803136    1.001378   -1.111580
     52          6           0        3.829395    1.047965   -3.171335
     53          1           0        3.053148    0.726375   -3.870793
     54          6           0        4.843864   -0.125149   -2.952308
     55          6           0        4.472051    2.368753   -3.694859
     56          1           0        3.824195    3.171971   -3.330774
     57          1           0        5.442704    2.523412   -3.204149
     58          8           0        5.140212   -0.418830   -1.778495
     59          6           0        4.606844    2.535796   -5.233381
     60          1           0        3.930925    1.843874   -5.751899
     61          1           0        4.271438    3.541315   -5.510583
     62          6           0        6.018576    2.377140   -5.818849
     63          1           0        5.992895    2.620215   -6.889485
     64          1           0        6.714235    3.075051   -5.334239
     65          7           0        6.480683    1.003408   -5.619877
     66          1           0        5.789144    0.348333   -5.188012
     67          7           0        8.774638    1.355652   -5.867153
     68          1           0        9.725172    1.075307   -5.676814
     69          1           0        8.633249    2.021089   -6.612398
     70          7           0        7.950214   -0.515341   -4.732721
     71          1           0        8.829965   -1.006946   -4.777537
     72          1           0        7.131032   -0.938191   -4.267392
     73          6           0        7.736010    0.613827   -5.419999
     74          8           0        5.292480   -0.671349   -4.009643
     75          1           0       -1.249650    1.138647    2.491649
 ---------------------------------------------------------------------

 SCF Done:  E(RB3LYP) =  -1917.37397504     A.U. after    1 cycles

 Alpha  occ. eigenvalues --  -19.31404 -19.23348 -19.21632 -19.21596 -19.18060
 Alpha  occ. eigenvalues --  -19.17319 -19.16868 -14.50024 -14.48284 -14.46718
 Alpha  occ. eigenvalues --  -14.46713 -14.45969 -14.45159 -14.44128 -14.41738
 Alpha  occ. eigenvalues --  -14.40459 -10.44258 -10.43125 -10.40657 -10.38744
 Alpha  occ. eigenvalues --  -10.38446 -10.36034 -10.35990 -10.35082 -10.34306
 Alpha  occ. eigenvalues --  -10.32591 -10.32165 -10.30369 -10.30010 -10.29704
 Alpha  occ. eigenvalues --  -10.28804 -10.28566 -10.27864 -10.27613 -10.27421
 Alpha  occ. eigenvalues --  -10.27284 -10.27210 -10.27147 -10.27023  -1.22102
 Alpha  occ. eigenvalues --   -1.14733  -1.13813  -1.13469  -1.11866  -1.10295
 Alpha  occ. eigenvalues --   -1.09949  -1.07215  -1.03571  -1.02441  -1.01499
 Alpha  occ. eigenvalues --   -1.01072  -1.00344  -0.99822  -0.98135  -0.96761
 Alpha  occ. eigenvalues --   -0.94216  -0.90564  -0.88271  -0.87337  -0.85903
 Alpha  occ. eigenvalues --   -0.83506  -0.82765  -0.82236  -0.79743  -0.77407
 Alpha  occ. eigenvalues --   -0.76503  -0.75228  -0.74295  -0.73516  -0.70437
 Alpha  occ. eigenvalues --   -0.69422  -0.69069  -0.68487  -0.68241  -0.67398
 Alpha  occ. eigenvalues --   -0.67179  -0.66309  -0.65760  -0.65601  -0.65055
 Alpha  occ. eigenvalues --   -0.64135  -0.62531  -0.61821  -0.60934  -0.60511
 Alpha  occ. eigenvalues --   -0.60236  -0.59938  -0.59034  -0.58519  -0.58149
 Alpha  occ. eigenvalues --   -0.57309  -0.56707  -0.56239  -0.55786  -0.54925
 Alpha  occ. eigenvalues --   -0.54753  -0.54594  -0.54199  -0.54113  -0.53678
 Alpha  occ. eigenvalues --   -0.53087  -0.52813  -0.52370  -0.51433  -0.51218
 Alpha  occ. eigenvalues --   -0.51026  -0.50330  -0.49985  -0.49544  -0.49123
 Alpha  occ. eigenvalues --   -0.48915  -0.48688  -0.48560  -0.48343  -0.48123
 Alpha  occ. eigenvalues --   -0.47975  -0.47372  -0.46594  -0.46020  -0.45929
 Alpha  occ. eigenvalues --   -0.45537  -0.44682  -0.44138  -0.44001  -0.43589
 Alpha  occ. eigenvalues --   -0.42750  -0.42534  -0.42371  -0.41765  -0.40433
 Alpha  occ. eigenvalues --   -0.38813  -0.38175  -0.37934  -0.36519  -0.36043
 Alpha  occ. eigenvalues --   -0.35896  -0.35537  -0.35250  -0.33660  -0.33416
 Alpha  occ. eigenvalues --   -0.33031  -0.32594  -0.32469  -0.31931  -0.31355
 Alpha  occ. eigenvalues --   -0.31022
 Alpha virt. eigenvalues --   -0.13248  -0.09233  -0.08842  -0.08692  -0.07712
 Alpha virt. eigenvalues --   -0.07572  -0.07284  -0.04570  -0.04147  -0.02652
 Alpha virt. eigenvalues --   -0.02188  -0.01277  -0.00631  -0.00378   0.00783

 Mulliken charges:
               1
     1  N   -0.709738
     2  H    0.326756
     3  H    0.314163
     4  C   -0.050144
     5  H    0.150628
     6  C    0.629515
     7  C   -0.391310
     8  H    0.157354
     9  H    0.214538
    10  O   -0.515684
    11  C    0.639695
    12  N   -0.729666
    13  H    0.363070
    14  H    0.368898
    15  O   -0.567796
    16  N   -0.630124
    17  H    0.354840
    18  C   -0.056611
    19  H    0.233783
    20  C    0.645500
    21  C   -0.396483
    22  H    0.183396
    23  H    0.195871
    24  O   -0.565816
    25  C    0.153099
    26  C   -0.210387
    27  H    0.144062
    28  C   -0.194222
    29  H    0.144598
    30  C   -0.124545
    31  H    0.152236
    32  C   -0.124343
    33  H    0.150242
    34  C   -0.124235
    35  H    0.153576
    36  N   -0.588602
    37  H    0.396323
    38  C   -0.058006
    39  H    0.235414
    40  C    0.606532
    41  C   -0.376471
    42  H    0.183979
    43  H    0.204705
    44  O   -0.547101
    45  C    0.549757
    46  N   -0.748647
    47  H    0.344082
    48  H    0.396192
    49  O   -0.497801
    50  N   -0.595473
    51  H    0.356090
    52  C   -0.087598
    53  H    0.186518
    54  C    0.608840
    55  C   -0.272139
    56  H    0.168886
    57  H    0.149498
    58  O   -0.567008
    59  C   -0.308283
    60  H    0.172545
    61  H    0.166601
    62  C   -0.145682
    63  H    0.167261
    64  H    0.166049
    65  N   -0.614075
    66  H    0.412951
    67  N   -0.756730
    68  H    0.367890
    69  H    0.374545
    70  N   -0.778467
    71  H    0.354832
    72  H    0.416384
    73  C    0.777697
    74  O   -0.615469
    75  H    0.509266
 Sum of Mulliken charges =   1.00000

 Dipole moment (field-independent basis, Debye):
    X=              9.0614    Y=              8.6495    Z=             -3.0596  Tot=             12.8951
 Quadrupole moment (field-independent basis, Debye-Ang):
   XX=            -18.3523   YY=           -198.5045   ZZ=            -80.6010
   XY=             11.7790   XZ=           -153.5890   YZ=            -18.8096

 Normal termination of Gaussian 16 at Tue Jun  7 03:38:02 2022.
