 Gaussian 16, Revision C.01,
 Gaussian 16:  ES64L-G16RevC.01  3-Jul-2019

 -------------------------------------------------------------------
 # B3LYP/6-31G* guess=read geom=check nosymm integral(ultrafinegrid)
 -------------------------------------------------------------------

 ------------------------------------------------------
 Candidate Structure: Conf:883 Charge calc in gas phase
 ------------------------------------------------------
 Structure from the checkpoint file:  "conf-883.chk"
 Charge =  1 Multiplicity = 1

                          Input orientation:
 ---------------------------------------------------------------------
 Center     Atomic      Atomic             Coordinates (Angstroms)
 Number     Number       Type             X           Y           Z
 ---------------------------------------------------------------------
      1          7           0       -3.129795   -2.751548    3.030416
      2          1           0       -3.500877   -3.316334    3.791040
      3          1           0       -3.519511   -3.086920    2.151926
      4          6           0       -3.446230   -1.330440    3.217768
      5          1           0       -4.414694   -1.165117    3.712174
      6          6           0       -3.455931   -0.653654    1.832668
      7          6           0       -2.360238   -0.666055    4.122993
      8          1           0       -2.609194    0.376322    4.331831
      9          1           0       -2.325357   -1.200518    5.080715
     10          8           0       -2.859779   -1.166186    0.886757
     11          6           0       -0.982670   -0.674980    3.508297
     12          7           0       -0.554693   -1.736149    2.869827
     13          1           0       -1.251313   -2.486966    2.725833
     14          1           0        0.328838   -1.688215    2.365889
     15          8           0       -0.267862    0.389494    3.649110
     16          7           0       -4.081683    0.542034    1.743576
     17          1           0       -4.559358    0.931218    2.546214
     18          6           0       -3.784119    1.437457    0.627297
     19          1           0       -4.123863    0.966258   -0.301163
     20          6           0       -2.253643    1.644127    0.599278
     21          6           0       -4.491778    2.797404    0.828319
     22          1           0       -4.013897    3.304747    1.674772
     23          1           0       -4.286636    3.405567   -0.060674
     24          8           0       -1.629039    1.786602    1.649913
     25          6           0       -5.983856    2.681262    1.063985
     26          6           0       -6.849339    2.294356    0.030659
     27          1           0       -6.450646    2.098887   -0.962667
     28          6           0       -6.525332    2.944295    2.329137
     29          1           0       -5.872088    3.277346    3.134082
     30          6           0       -8.218520    2.167864    0.258964
     31          1           0       -8.875950    1.873303   -0.554269
     32          6           0       -7.897605    2.818061    2.561428
     33          1           0       -8.300990    3.035636    3.546571
     34          6           0       -8.746646    2.427010    1.526821
     35          1           0       -9.814456    2.332958    1.702214
     36          7           0       -1.651516    1.673224   -0.608743
     37          1           0       -2.134618    1.472718   -1.479404
     38          6           0       -0.207745    1.725781   -0.706972
     39          1           0        0.158201    2.487576   -0.012789
     40          6           0        0.124974    2.079888   -2.166290
     41          6           0        0.436559    0.326269   -0.349161
     42          1           0        0.727899   -0.186308   -1.273026
     43          1           0       -0.334478   -0.277791    0.130096
     44          8           0       -0.667113    1.809259   -3.063076
     45          6           0        1.629242    0.381279    0.595398
     46          7           0        2.806682    0.765619    0.093187
     47          1           0        3.587483    0.777721    0.739688
     48          1           0        3.025668    0.902745   -0.909836
     49          8           0        1.533832    0.068140    1.808700
     50          7           0        1.347743    2.638293   -2.350612
     51          1           0        1.953310    2.711583   -1.541465
     52          6           0        2.058667    2.591024   -3.628760
     53          1           0        1.325727    2.358783   -4.401644
     54          6           0        3.123354    1.469770   -3.605897
     55          6           0        2.712895    3.969301   -3.906626
     56          1           0        1.903127    4.686850   -4.074413
     57          1           0        3.215009    4.303431   -2.986239
     58          8           0        3.374844    0.868692   -4.650464
     59          6           0        3.709241    4.004821   -5.094375
     60          1           0        3.580852    3.116792   -5.721518
     61          1           0        3.497076    4.877550   -5.722841
     62          6           0        5.189123    4.123355   -4.681400
     63          1           0        5.812266    4.206816   -5.575627
     64          1           0        5.348708    5.037440   -4.098756
     65          7           0        5.668197    2.996889   -3.863019
     66          1           0        5.081051    2.766894   -3.057018
     67          7           0        7.139993    2.003312   -5.386315
     68          1           0        7.574424    1.177880   -5.769571
     69          1           0        7.426997    2.893998   -5.760802
     70          7           0        6.236202    0.785024   -3.613498
     71          1           0        6.708115   -0.041954   -3.951135
     72          1           0        5.336668    0.660886   -3.105710
     73          6           0        6.337082    1.922820   -4.308587
     74          8           0        3.768197    1.344417   -2.479586
     75          1           0        0.492169    0.400947    2.971229
 ---------------------------------------------------------------------

 SCF Done:  E(RB3LYP) =  -1917.38441479     A.U. after    1 cycles

 Alpha  occ. eigenvalues --  -19.30427 -19.23021 -19.21817 -19.19948 -19.19898
 Alpha  occ. eigenvalues --  -19.18272 -19.16659 -14.48808 -14.48594 -14.46788
 Alpha  occ. eigenvalues --  -14.45903 -14.45747 -14.45044 -14.44507 -14.44090
 Alpha  occ. eigenvalues --  -14.44040 -10.44353 -10.43701 -10.40138 -10.38935
 Alpha  occ. eigenvalues --  -10.37152 -10.37105 -10.35030 -10.34803 -10.33020
 Alpha  occ. eigenvalues --  -10.32699 -10.32649 -10.32398 -10.29578 -10.29238
 Alpha  occ. eigenvalues --  -10.28100 -10.27238 -10.27226 -10.27194 -10.26215
 Alpha  occ. eigenvalues --  -10.25989 -10.25954 -10.25868 -10.25693  -1.21455
 Alpha  occ. eigenvalues --   -1.14072  -1.13724  -1.12416  -1.12294  -1.11519
 Alpha  occ. eigenvalues --   -1.10293  -1.05668  -1.02322  -1.02098  -1.01649
 Alpha  occ. eigenvalues --   -1.01039  -1.00576  -1.00381  -1.00017  -0.99884
 Alpha  occ. eigenvalues --   -0.92768  -0.89454  -0.88345  -0.87535  -0.86270
 Alpha  occ. eigenvalues --   -0.82624  -0.81941  -0.81372  -0.78851  -0.77973
 Alpha  occ. eigenvalues --   -0.75720  -0.74164  -0.73763  -0.71946  -0.69807
 Alpha  occ. eigenvalues --   -0.69189  -0.69034  -0.68809  -0.68636  -0.67746
 Alpha  occ. eigenvalues --   -0.67316  -0.67136  -0.66434  -0.65547  -0.65321
 Alpha  occ. eigenvalues --   -0.63713  -0.62964  -0.62633  -0.61245  -0.60251
 Alpha  occ. eigenvalues --   -0.59590  -0.59539  -0.59014  -0.58552  -0.57957
 Alpha  occ. eigenvalues --   -0.57445  -0.57062  -0.56134  -0.55903  -0.55099
 Alpha  occ. eigenvalues --   -0.54640  -0.54364  -0.54230  -0.53712  -0.52930
 Alpha  occ. eigenvalues --   -0.52730  -0.52407  -0.52225  -0.51903  -0.51329
 Alpha  occ. eigenvalues --   -0.50481  -0.50332  -0.50121  -0.49694  -0.48999
 Alpha  occ. eigenvalues --   -0.48908  -0.48779  -0.48579  -0.48085  -0.47836
 Alpha  occ. eigenvalues --   -0.47446  -0.47058  -0.46446  -0.46397  -0.45894
 Alpha  occ. eigenvalues --   -0.45219  -0.44822  -0.43892  -0.43276  -0.43130
 Alpha  occ. eigenvalues --   -0.42549  -0.41960  -0.41940  -0.41131  -0.40954
 Alpha  occ. eigenvalues --   -0.39062  -0.37641  -0.37419  -0.36870  -0.36042
 Alpha  occ. eigenvalues --   -0.35986  -0.35598  -0.35445  -0.34682  -0.33642
 Alpha  occ. eigenvalues --   -0.33585  -0.33487  -0.32527  -0.32046  -0.31432
 Alpha  occ. eigenvalues --   -0.29526
 Alpha virt. eigenvalues --   -0.12819  -0.09733  -0.08601  -0.08230  -0.07839
 Alpha virt. eigenvalues --   -0.07292  -0.06020  -0.05217  -0.04749  -0.03449
 Alpha virt. eigenvalues --   -0.02907  -0.00805  -0.00581  -0.00142   0.00965

 Mulliken charges:
               1
     1  N   -0.757726
     2  H    0.333639
     3  H    0.351605
     4  C   -0.097748
     5  H    0.170992
     6  C    0.632212
     7  C   -0.339124
     8  H    0.214372
     9  H    0.209971
    10  O   -0.531115
    11  C    0.608565
    12  N   -0.690911
    13  H    0.421547
    14  H    0.386699
    15  O   -0.537841
    16  N   -0.592094
    17  H    0.341146
    18  C   -0.019369
    19  H    0.175217
    20  C    0.642131
    21  C   -0.408828
    22  H    0.175518
    23  H    0.180202
    24  O   -0.559047
    25  C    0.175765
    26  C   -0.177423
    27  H    0.133381
    28  C   -0.210590
    29  H    0.128975
    30  C   -0.126672
    31  H    0.148403
    32  C   -0.125907
    33  H    0.144990
    34  C   -0.127856
    35  H    0.148545
    36  N   -0.614588
    37  H    0.361071
    38  C   -0.035562
    39  H    0.188621
    40  C    0.600031
    41  C   -0.385798
    42  H    0.197193
    43  H    0.204543
    44  O   -0.515183
    45  C    0.602052
    46  N   -0.753873
    47  H    0.350998
    48  H    0.419556
    49  O   -0.605616
    50  N   -0.596857
    51  H    0.327292
    52  C   -0.054531
    53  H    0.200962
    54  C    0.590963
    55  C   -0.294821
    56  H    0.175230
    57  H    0.131552
    58  O   -0.526754
    59  C   -0.281025
    60  H    0.196128
    61  H    0.161726
    62  C   -0.169103
    63  H    0.152981
    64  H    0.181295
    65  N   -0.599418
    66  H    0.374858
    67  N   -0.761285
    68  H    0.373065
    69  H    0.375803
    70  N   -0.755124
    71  H    0.349544
    72  H    0.408548
    73  C    0.796661
    74  O   -0.674877
    75  H    0.482117
 Sum of Mulliken charges =   1.00000

 Dipole moment (field-independent basis, Debye):
    X=              6.0842    Y=              3.8826    Z=             -0.1557  Tot=              7.2192
 Quadrupole moment (field-independent basis, Debye-Ang):
   XX=            -48.6043   YY=           -184.2215   ZZ=           -144.7731
   XY=             36.5272   XZ=           -110.6324   YZ=            -45.6129

 Normal termination of Gaussian 16 at Tue Jun  7 03:42:24 2022.
