 Gaussian 16, Revision C.01,
 Gaussian 16:  ES64L-G16RevC.01  3-Jul-2019

 -------------------------------------------------------------------
 # B3LYP/6-31G* guess=read geom=check nosymm integral(ultrafinegrid)
 -------------------------------------------------------------------

 ------------------------------------------------------
 Candidate Structure: Conf:112 Charge calc in gas phase
 ------------------------------------------------------
 Structure from the checkpoint file:  "conf-112.chk"
 Charge =  1 Multiplicity = 1

                          Input orientation:
 ---------------------------------------------------------------------
 Center     Atomic      Atomic             Coordinates (Angstroms)
 Number     Number       Type             X           Y           Z
 ---------------------------------------------------------------------
      1          7           0       -4.798884   -1.224613    4.077651
      2          1           0       -5.766397   -1.209402    3.757126
      3          1           0       -4.371462   -2.035511    3.626702
      4          6           0       -4.107036   -0.036855    3.595047
      5          1           0       -4.722655    0.838709    3.837425
      6          6           0       -3.828608   -0.082140    2.077838
      7          6           0       -2.753940    0.062329    4.356141
      8          1           0       -2.978024    0.087605    5.427821
      9          1           0       -2.167616   -0.835347    4.146926
     10          8           0       -3.460328   -1.120761    1.542660
     11          6           0       -1.909459    1.254798    3.954614
     12          7           0       -2.341415    2.470175    4.346095
     13          1           0       -3.131677    2.579021    4.965671
     14          1           0       -1.865259    3.305329    4.030116
     15          8           0       -0.881471    1.105867    3.268204
     16          7           0       -4.014505    1.093897    1.404736
     17          1           0       -4.125170    1.940325    1.949253
     18          6           0       -3.510496    1.286336    0.053190
     19          1           0       -3.450437    0.291208   -0.394231
     20          6           0       -2.114721    1.919450    0.156235
     21          6           0       -4.444756    2.193868   -0.783686
     22          1           0       -4.481035    3.182134   -0.308967
     23          1           0       -3.974583    2.337855   -1.765061
     24          8           0       -1.882396    2.835083    0.948145
     25          6           0       -5.840828    1.632137   -0.946887
     26          6           0       -6.083542    0.571838   -1.830568
     27          1           0       -5.264439    0.161632   -2.418273
     28          6           0       -6.913741    2.150627   -0.212681
     29          1           0       -6.745457    2.983266    0.467217
     30          6           0       -7.364513    0.039489   -1.972423
     31          1           0       -7.534907   -0.780389   -2.664704
     32          6           0       -8.198627    1.623142   -0.353514
     33          1           0       -9.020880    2.043326    0.219339
     34          6           0       -8.426736    0.564094   -1.232692
     35          1           0       -9.426128    0.153698   -1.346277
     36          7           0       -1.160245    1.423854   -0.670579
     37          1           0       -1.317372    0.629203   -1.282413
     38          6           0        0.189600    1.923377   -0.624911
     39          1           0        0.149315    3.012871   -0.535277
     40          6           0        0.909995    1.501557   -1.915869
     41          6           0        1.003945    1.322965    0.600003
     42          1           0        1.836628    0.714292    0.236166
     43          1           0        0.339363    0.675964    1.174629
     44          8           0        0.561416    0.496168   -2.529320
     45          6           0        1.554080    2.385721    1.510828
     46          7           0        2.668130    3.001835    1.203303
     47          1           0        3.006591    3.724955    1.830753
     48          1           0        3.252305    2.768994    0.362287
     49          8           0        0.940548    2.742543    2.591222
     50          7           0        1.976796    2.272916   -2.227029
     51          1           0        2.234192    3.007570   -1.574764
     52          6           0        3.149701    1.764617   -2.933329
     53          1           0        3.043392    0.674009   -2.968277
     54          6           0        4.410219    2.055579   -2.058526
     55          6           0        3.273920    2.310126   -4.377929
     56          1           0        2.669429    3.219544   -4.455101
     57          1           0        4.310571    2.606396   -4.571929
     58          8           0        5.505507    1.661676   -2.527223
     59          6           0        2.810155    1.296824   -5.435339
     60          1           0        1.850601    0.862813   -5.128072
     61          1           0        2.633897    1.799019   -6.396033
     62          6           0        3.794229    0.139382   -5.656989
     63          1           0        4.109880   -0.310615   -4.712549
     64          1           0        3.318294   -0.652844   -6.245701
     65          7           0        5.012249    0.540904   -6.382488
     66          1           0        4.889947    0.805480   -7.351609
     67          7           0        6.556124    0.512754   -4.631280
     68          1           0        7.518525    0.361053   -4.358214
     69          1           0        5.942986    0.926004   -3.863304
     70          7           0        7.270815    0.576910   -6.844215
     71          1           0        8.221005    0.769168   -6.563124
     72          1           0        7.129319    0.224685   -7.779790
     73          6           0        6.275280    0.543175   -5.925350
     74          8           0        4.237519    2.649572   -0.962214
     75          1           0        0.118924    2.154415    2.816246
 ---------------------------------------------------------------------

 SCF Done:  E(RB3LYP) =  -1917.37890527     A.U. after    1 cycles

 Alpha  occ. eigenvalues --  -19.30193 -19.24260 -19.21271 -19.20690 -19.19307
 Alpha  occ. eigenvalues --  -19.17937 -19.17745 -14.49792 -14.49769 -14.48449
 Alpha  occ. eigenvalues --  -14.47347 -14.46914 -14.45402 -14.44452 -14.44114
 Alpha  occ. eigenvalues --  -14.39029 -10.45460 -10.44161 -10.40897 -10.38236
 Alpha  occ. eigenvalues --  -10.37629 -10.36176 -10.35945 -10.34487 -10.33596
 Alpha  occ. eigenvalues --  -10.31605 -10.31522 -10.31513 -10.30611 -10.28695
 Alpha  occ. eigenvalues --  -10.28198 -10.27185 -10.27142 -10.25937 -10.24918
 Alpha  occ. eigenvalues --  -10.24862 -10.24731 -10.24711 -10.24550  -1.20911
 Alpha  occ. eigenvalues --   -1.15160  -1.13799  -1.13361  -1.12466  -1.11139
 Alpha  occ. eigenvalues --   -1.11078  -1.05134  -1.03507  -1.02913  -1.02170
 Alpha  occ. eigenvalues --   -1.01945  -1.01243  -1.00893  -1.00570  -0.96802
 Alpha  occ. eigenvalues --   -0.91555  -0.89846  -0.88856  -0.86359  -0.84987
 Alpha  occ. eigenvalues --   -0.83776  -0.81305  -0.80187  -0.79328  -0.76952
 Alpha  occ. eigenvalues --   -0.75916  -0.74982  -0.74661  -0.71916  -0.71191
 Alpha  occ. eigenvalues --   -0.70100  -0.69421  -0.68357  -0.68103  -0.67543
 Alpha  occ. eigenvalues --   -0.67027  -0.66815  -0.65929  -0.65082  -0.64500
 Alpha  occ. eigenvalues --   -0.64476  -0.63934  -0.63339  -0.61680  -0.61376
 Alpha  occ. eigenvalues --   -0.60553  -0.59243  -0.58936  -0.58322  -0.58133
 Alpha  occ. eigenvalues --   -0.57079  -0.56634  -0.56566  -0.55917  -0.55211
 Alpha  occ. eigenvalues --   -0.54850  -0.54784  -0.53777  -0.52948  -0.52528
 Alpha  occ. eigenvalues --   -0.52467  -0.51825  -0.51506  -0.51285  -0.50672
 Alpha  occ. eigenvalues --   -0.50382  -0.50098  -0.49869  -0.49514  -0.49151
 Alpha  occ. eigenvalues --   -0.48778  -0.48575  -0.48098  -0.47885  -0.47629
 Alpha  occ. eigenvalues --   -0.46869  -0.46600  -0.46458  -0.46002  -0.45219
 Alpha  occ. eigenvalues --   -0.45012  -0.44485  -0.43928  -0.43502  -0.43276
 Alpha  occ. eigenvalues --   -0.42500  -0.41730  -0.41378  -0.40330  -0.40136
 Alpha  occ. eigenvalues --   -0.39870  -0.38706  -0.38226  -0.37950  -0.36218
 Alpha  occ. eigenvalues --   -0.35594  -0.35210  -0.34546  -0.34349  -0.33481
 Alpha  occ. eigenvalues --   -0.32894  -0.32334  -0.31780  -0.31187  -0.30741
 Alpha  occ. eigenvalues --   -0.30219
 Alpha virt. eigenvalues --   -0.12937  -0.09979  -0.09298  -0.07577  -0.06773
 Alpha virt. eigenvalues --   -0.06350  -0.06230  -0.05795  -0.05003  -0.03320
 Alpha virt. eigenvalues --   -0.03149  -0.02267  -0.01237  -0.01069   0.00275

 Mulliken charges:
               1
     1  N   -0.696226
     2  H    0.317055
     3  H    0.325245
     4  C   -0.083756
     5  H    0.134439
     6  C    0.603392
     7  C   -0.343180
     8  H    0.192224
     9  H    0.202175
    10  O   -0.517856
    11  C    0.625566
    12  N   -0.727131
    13  H    0.365289
    14  H    0.373576
    15  O   -0.566832
    16  N   -0.579432
    17  H    0.330569
    18  C   -0.071628
    19  H    0.189719
    20  C    0.645644
    21  C   -0.380734
    22  H    0.161604
    23  H    0.164075
    24  O   -0.565713
    25  C    0.196174
    26  C   -0.178147
    27  H    0.123475
    28  C   -0.186403
    29  H    0.117775
    30  C   -0.126321
    31  H    0.141812
    32  C   -0.128861
    33  H    0.139449
    34  C   -0.128543
    35  H    0.143189
    36  N   -0.615019
    37  H    0.363830
    38  C   -0.031850
    39  H    0.197270
    40  C    0.584291
    41  C   -0.399287
    42  H    0.212803
    43  H    0.236552
    44  O   -0.522146
    45  C    0.606113
    46  N   -0.723045
    47  H    0.376158
    48  H    0.448373
    49  O   -0.571335
    50  N   -0.584374
    51  H    0.330591
    52  C   -0.081403
    53  H    0.173363
    54  C    0.612631
    55  C   -0.271532
    56  H    0.166045
    57  H    0.154230
    58  O   -0.581882
    59  C   -0.284801
    60  H    0.188613
    61  H    0.143425
    62  C   -0.164344
    63  H    0.193479
    64  H    0.184153
    65  N   -0.593477
    66  H    0.353061
    67  N   -0.768484
    68  H    0.357932
    69  H    0.436858
    70  N   -0.764454
    71  H    0.374342
    72  H    0.370556
    73  C    0.787734
    74  O   -0.596200
    75  H    0.489547
 Sum of Mulliken charges =   1.00000

 Dipole moment (field-independent basis, Debye):
    X=              9.4852    Y=              7.5566    Z=            -11.3961  Tot=             16.6415
 Quadrupole moment (field-independent basis, Debye-Ang):
   XX=            -73.1345   YY=           -208.7852   ZZ=            -56.8880
   XY=             -9.4517   XZ=           -133.8479   YZ=             17.4324

 Normal termination of Gaussian 16 at Tue Jun  7 03:34:19 2022.
