 Gaussian 16, Revision C.01,
 Gaussian 16:  ES64L-G16RevC.01  3-Jul-2019

 -------------------------------------------------------------------
 # B3LYP/6-31G* guess=read geom=check nosymm integral(ultrafinegrid)
 -------------------------------------------------------------------

 ------------------------------------------------------
 Candidate Structure: Conf:962 Charge calc in gas phase
 ------------------------------------------------------
 Structure from the checkpoint file:  "conf-962.chk"
 Charge =  1 Multiplicity = 1

                          Input orientation:
 ---------------------------------------------------------------------
 Center     Atomic      Atomic             Coordinates (Angstroms)
 Number     Number       Type             X           Y           Z
 ---------------------------------------------------------------------
      1          7           0       -4.007116   -1.927208    3.669101
      2          1           0       -4.147812   -1.766305    4.666550
      3          1           0       -4.792354   -1.488809    3.189057
      4          6           0       -2.725786   -1.316687    3.227595
      5          1           0       -2.534894   -0.339350    3.685377
      6          6           0       -2.747264   -1.171493    1.692851
      7          6           0       -1.538622   -2.226944    3.586438
      8          1           0       -0.617285   -1.719223    3.294847
      9          1           0       -1.509794   -2.401548    4.670154
     10          8           0       -2.251627   -2.051134    0.985498
     11          6           0       -1.618527   -3.559809    2.908003
     12          7           0       -2.734203   -4.247174    2.941563
     13          1           0       -3.564571   -3.686427    3.238157
     14          1           0       -2.854689   -5.123592    2.444682
     15          8           0       -0.490191   -4.037245    2.445101
     16          7           0       -3.405129   -0.085992    1.219710
     17          1           0       -3.506534    0.696150    1.860751
     18          6           0       -3.279252    0.347280   -0.188857
     19          1           0       -3.097003   -0.549666   -0.783442
     20          6           0       -2.054668    1.282927   -0.153038
     21          6           0       -4.557832    1.061760   -0.653792
     22          1           0       -5.407131    0.396300   -0.461022
     23          1           0       -4.689156    1.958415   -0.037608
     24          8           0       -2.132394    2.346855    0.457898
     25          6           0       -4.504472    1.437709   -2.121122
     26          6           0       -3.965305    2.666280   -2.526531
     27          1           0       -3.599451    3.362341   -1.776208
     28          6           0       -4.970346    0.549925   -3.099952
     29          1           0       -5.402295   -0.402881   -2.799374
     30          6           0       -3.894766    2.997692   -3.880311
     31          1           0       -3.478887    3.956120   -4.178825
     32          6           0       -4.900711    0.879505   -4.453873
     33          1           0       -5.273107    0.182656   -5.199846
     34          6           0       -4.361549    2.105695   -4.847199
     35          1           0       -4.310528    2.366173   -5.900697
     36          7           0       -0.907963    0.784594   -0.673686
     37          1           0       -0.913336   -0.073424   -1.210870
     38          6           0        0.386522    1.320194   -0.312830
     39          1           0        0.202561    2.312519    0.104414
     40          6           0        1.345958    1.395337   -1.504207
     41          6           0        1.099264    0.405527    0.746520
     42          1           0        2.179625    0.430935    0.581603
     43          1           0        0.752575   -0.621652    0.610650
     44          8           0        1.337185    0.552664   -2.392278
     45          6           0        0.805531    0.843603    2.172781
     46          7           0        1.673449    1.763711    2.647870
     47          1           0        1.526545    2.137818    3.575410
     48          1           0        2.492052    2.056326    2.113044
     49          8           0       -0.158455    0.413731    2.820204
     50          7           0        2.258754    2.403478   -1.364457
     51          1           0        2.219291    2.875358   -0.463449
     52          6           0        3.660160    2.233636   -1.745799
     53          1           0        3.747597    1.265352   -2.249915
     54          6           0        4.477385    2.177882   -0.403234
     55          6           0        4.103880    3.354119   -2.735805
     56          1           0        3.196143    3.629354   -3.279840
     57          1           0        4.398222    4.251669   -2.174430
     58          8           0        3.871667    2.431364    0.658913
     59          6           0        5.194673    2.988086   -3.780275
     60          1           0        5.313129    1.898800   -3.840905
     61          1           0        4.864996    3.307093   -4.775137
     62          6           0        6.577085    3.618439   -3.554872
     63          1           0        7.247065    3.335887   -4.377872
     64          1           0        6.498320    4.714505   -3.546803
     65          7           0        7.112583    3.152088   -2.276679
     66          1           0        6.527225    2.445562   -1.760705
     67          7           0        8.795434    4.742090   -1.943619
     68          1           0        9.209159    5.416922   -1.317985
     69          1           0        8.857176    4.925553   -2.933340
     70          7           0        7.925097    3.516012   -0.162295
     71          1           0        8.740931    3.673032    0.410932
     72          1           0        7.194712    2.860157    0.150631
     73          6           0        7.942531    3.803848   -1.475319
     74          8           0        5.708623    1.870830   -0.508322
     75          1           0       -0.583248   -4.906723    2.012430
 ---------------------------------------------------------------------

 SCF Done:  E(RB3LYP) =  -1917.35248712     A.U. after    2 cycles

 Alpha  occ. eigenvalues --  -19.36017 -19.23094 -19.18582 -19.18329 -19.17609
 Alpha  occ. eigenvalues --  -19.16476 -19.15971 -14.51807 -14.47551 -14.46475
 Alpha  occ. eigenvalues --  -14.46219 -14.45152 -14.44405 -14.43315 -14.41580
 Alpha  occ. eigenvalues --  -14.40435 -10.47819 -10.42340 -10.39814 -10.36002
 Alpha  occ. eigenvalues --  -10.35776 -10.35153 -10.34447 -10.34054 -10.32297
 Alpha  occ. eigenvalues --  -10.31617 -10.31389 -10.30322 -10.28190 -10.26672
 Alpha  occ. eigenvalues --  -10.26316 -10.26275 -10.25517 -10.25387 -10.24417
 Alpha  occ. eigenvalues --  -10.24221 -10.24106 -10.24042 -10.24018  -1.25859
 Alpha  occ. eigenvalues --   -1.14714  -1.11089  -1.10796  -1.09604  -1.09402
 Alpha  occ. eigenvalues --   -1.08917  -1.08858  -1.03033  -1.01635  -1.01289
 Alpha  occ. eigenvalues --   -0.99968  -0.99725  -0.99035  -0.97563  -0.96560
 Alpha  occ. eigenvalues --   -0.91112  -0.90858  -0.86950  -0.86505  -0.84497
 Alpha  occ. eigenvalues --   -0.82029  -0.80666  -0.79601  -0.79551  -0.75858
 Alpha  occ. eigenvalues --   -0.75240  -0.73998  -0.73591  -0.72732  -0.71119
 Alpha  occ. eigenvalues --   -0.69367  -0.68316  -0.68115  -0.66991  -0.66098
 Alpha  occ. eigenvalues --   -0.65823  -0.65172  -0.64796  -0.64263  -0.63894
 Alpha  occ. eigenvalues --   -0.63150  -0.61638  -0.60623  -0.60268  -0.59951
 Alpha  occ. eigenvalues --   -0.59721  -0.59175  -0.58684  -0.57694  -0.57165
 Alpha  occ. eigenvalues --   -0.56439  -0.56018  -0.55882  -0.55443  -0.54979
 Alpha  occ. eigenvalues --   -0.54292  -0.53277  -0.52964  -0.51956  -0.51721
 Alpha  occ. eigenvalues --   -0.51617  -0.51021  -0.50669  -0.50411  -0.50150
 Alpha  occ. eigenvalues --   -0.49936  -0.49801  -0.49182  -0.48484  -0.48017
 Alpha  occ. eigenvalues --   -0.47808  -0.47289  -0.47021  -0.46801  -0.46462
 Alpha  occ. eigenvalues --   -0.46015  -0.45739  -0.45609  -0.44854  -0.44717
 Alpha  occ. eigenvalues --   -0.44322  -0.43475  -0.43129  -0.42332  -0.41647
 Alpha  occ. eigenvalues --   -0.41407  -0.40899  -0.39836  -0.39680  -0.39375
 Alpha  occ. eigenvalues --   -0.39169  -0.37980  -0.37024  -0.36331  -0.35184
 Alpha  occ. eigenvalues --   -0.33576  -0.33345  -0.33186  -0.32508  -0.32058
 Alpha  occ. eigenvalues --   -0.31759  -0.30418  -0.30183  -0.30010  -0.29779
 Alpha  occ. eigenvalues --   -0.29598
 Alpha virt. eigenvalues --   -0.14990  -0.09740  -0.08282  -0.07123  -0.06026
 Alpha virt. eigenvalues --   -0.05629  -0.05359  -0.04144  -0.03502  -0.03389
 Alpha virt. eigenvalues --   -0.02689  -0.02432  -0.01667   0.00589   0.00750

 Mulliken charges:
               1
     1  N   -0.767576
     2  H    0.342549
     3  H    0.345627
     4  C   -0.098964
     5  H    0.206673
     6  C    0.661222
     7  C   -0.364934
     8  H    0.261005
     9  H    0.205702
    10  O   -0.532783
    11  C    0.638837
    12  N   -0.687846
    13  H    0.425614
    14  H    0.369056
    15  O   -0.514602
    16  N   -0.605076
    17  H    0.354794
    18  C   -0.062106
    19  H    0.177175
    20  C    0.646691
    21  C   -0.360571
    22  H    0.152271
    23  H    0.171081
    24  O   -0.540781
    25  C    0.149657
    26  C   -0.182824
    27  H    0.152358
    28  C   -0.182740
    29  H    0.120769
    30  C   -0.127886
    31  H    0.139814
    32  C   -0.126547
    33  H    0.138398
    34  C   -0.125911
    35  H    0.140436
    36  N   -0.586501
    37  H    0.350355
    38  C   -0.079739
    39  H    0.203636
    40  C    0.586953
    41  C   -0.368474
    42  H    0.190539
    43  H    0.169734
    44  O   -0.518352
    45  C    0.592936
    46  N   -0.758404
    47  H    0.340123
    48  H    0.408113
    49  O   -0.565115
    50  N   -0.573344
    51  H    0.336791
    52  C   -0.093356
    53  H    0.180998
    54  C    0.603759
    55  C   -0.275608
    56  H    0.177395
    57  H    0.141586
    58  O   -0.566978
    59  C   -0.307083
    60  H    0.171099
    61  H    0.166123
    62  C   -0.149029
    63  H    0.167290
    64  H    0.158442
    65  N   -0.611999
    66  H    0.419122
    67  N   -0.761362
    68  H    0.368625
    69  H    0.374601
    70  N   -0.780341
    71  H    0.353845
    72  H    0.410895
    73  C    0.776346
    74  O   -0.616064
    75  H    0.443865
 Sum of Mulliken charges =   1.00000

 Dipole moment (field-independent basis, Debye):
    X=              6.6013    Y=             -1.5533    Z=              5.6243  Tot=              8.8104
 Quadrupole moment (field-independent basis, Debye-Ang):
   XX=            -32.2523   YY=           -116.1918   ZZ=           -162.3562
   XY=            120.9213   XZ=            -61.4646   YZ=            -56.6233

 Normal termination of Gaussian 16 at Tue Jun  7 03:42:26 2022.
