 Gaussian 16, Revision C.01,
 Gaussian 16:  ES64L-G16RevC.01  3-Jul-2019

 -------------------------------------------------------------------
 # B3LYP/6-31G* guess=read geom=check nosymm integral(ultrafinegrid)
 -------------------------------------------------------------------

 ------------------------------------------------------
 Candidate Structure: Conf:879 Charge calc in gas phase
 ------------------------------------------------------
 Structure from the checkpoint file:  "conf-879.chk"
 Charge =  1 Multiplicity = 1

                          Input orientation:
 ---------------------------------------------------------------------
 Center     Atomic      Atomic             Coordinates (Angstroms)
 Number     Number       Type             X           Y           Z
 ---------------------------------------------------------------------
      1          7           0       -3.357627   -2.916305    1.798023
      2          1           0       -3.899260   -3.724668    2.094185
      3          1           0       -3.318536   -2.891653    0.778451
      4          6           0       -3.954838   -1.664322    2.272761
      5          1           0       -5.052449   -1.712096    2.341580
      6          6           0       -3.600868   -0.568609    1.232546
      7          6           0       -3.424878   -1.341929    3.699820
      8          1           0       -3.930599   -0.481014    4.142717
      9          1           0       -3.631624   -2.200470    4.350825
     10          8           0       -3.072274   -0.881107    0.168328
     11          6           0       -1.944305   -1.062426    3.721923
     12          7           0       -1.136818   -1.801052    3.000888
     13          1           0       -1.593171   -2.515436    2.403446
     14          1           0       -0.151029   -1.545838    2.926983
     15          8           0       -1.536707   -0.078343    4.453141
     16          7           0       -3.881174    0.714697    1.569433
     17          1           0       -4.487379    0.898656    2.359630
     18          6           0       -3.706016    1.815208    0.603325
     19          1           0       -3.858456    1.386574   -0.392344
     20          6           0       -2.254493    2.346705    0.709993
     21          6           0       -4.723379    2.938801    0.869580
     22          1           0       -4.434322    3.456751    1.789537
     23          1           0       -4.611483    3.673392    0.064073
     24          8           0       -1.996363    3.385194    1.330696
     25          6           0       -6.153283    2.447002    0.956466
     26          6           0       -6.823420    2.425244    2.187306
     27          1           0       -6.326042    2.813452    3.074833
     28          6           0       -6.830110    1.983730   -0.181469
     29          1           0       -6.333433    2.004481   -1.149290
     30          6           0       -8.133873    1.948405    2.283540
     31          1           0       -8.640734    1.951119    3.244729
     32          6           0       -8.137314    1.507785   -0.089518
     33          1           0       -8.648722    1.160165   -0.982903
     34          6           0       -8.792756    1.486014    1.144838
     35          1           0       -9.813525    1.121066    1.214129
     36          7           0       -1.319200    1.564601    0.133899
     37          1           0       -1.592700    0.771249   -0.446005
     38          6           0        0.095409    1.899523    0.077470
     39          1           0        0.203033    2.981815    0.194266
     40          6           0        0.638853    1.445234   -1.299734
     41          6           0        0.933658    1.136996    1.138949
     42          1           0        2.000545    1.400319    1.027960
     43          1           0        0.867662    0.065390    0.926964
     44          8           0        0.035179    0.585489   -1.937958
     45          6           0        0.535198    1.319234    2.584469
     46          7           0        0.074316    2.504149    2.993296
     47          1           0       -0.177975    2.606394    3.969168
     48          1           0       -0.366944    3.154904    2.338559
     49          8           0        0.671965    0.357936    3.395127
     50          7           0        1.829718    2.000187   -1.616467
     51          1           0        2.308696    2.468526   -0.832249
     52          6           0        2.883252    1.223762   -2.284970
     53          1           0        2.562860    0.177005   -2.329517
     54          6           0        4.161907    1.335619   -1.342821
     55          6           0        3.202286    1.671417   -3.718192
     56          1           0        3.864283    0.906561   -4.138085
     57          1           0        2.282980    1.696535   -4.317700
     58          8           0        5.225922    0.940070   -1.847435
     59          6           0        3.932567    3.018887   -3.768384
     60          1           0        3.282635    3.824434   -3.400238
     61          1           0        4.802698    2.934134   -3.108206
     62          6           0        4.429608    3.358834   -5.171470
     63          1           0        4.997099    2.513937   -5.578754
     64          1           0        3.599418    3.590180   -5.851339
     65          7           0        5.340686    4.525841   -5.098589
     66          1           0        5.330767    5.042568   -4.227097
     67          7           0        6.185100    4.354661   -7.251279
     68          1           0        6.997646    4.369408   -7.850897
     69          1           0        5.424917    3.746379   -7.519005
     70          7           0        7.202736    5.765085   -5.724400
     71          1           0        7.719324    6.233216   -6.454795
     72          1           0        7.392689    6.039414   -4.771151
     73          6           0        6.234845    4.875058   -6.013472
     74          8           0        3.938272    1.857342   -0.209468
     75          1           0       -0.534105    0.151575    4.230860
 ---------------------------------------------------------------------

 SCF Done:  E(RB3LYP) =  -1917.33179148     A.U. after    2 cycles

 Alpha  occ. eigenvalues --  -19.31057 -19.23457 -19.22618 -19.20481 -19.17372
 Alpha  occ. eigenvalues --  -19.10154 -19.09047 -14.52070 -14.51978 -14.51610
 Alpha  occ. eigenvalues --  -14.49289 -14.46801 -14.45322 -14.43869 -14.43699
 Alpha  occ. eigenvalues --  -14.38905 -10.48199 -10.44960 -10.39932 -10.39671
 Alpha  occ. eigenvalues --  -10.37421 -10.35274 -10.34045 -10.33946 -10.33025
 Alpha  occ. eigenvalues --  -10.32596 -10.31192 -10.27925 -10.27508 -10.27279
 Alpha  occ. eigenvalues --  -10.27196 -10.26283 -10.26209 -10.26107 -10.26042
 Alpha  occ. eigenvalues --  -10.25986 -10.25832 -10.24848 -10.23781  -1.21866
 Alpha  occ. eigenvalues --   -1.16668  -1.14653  -1.14049  -1.12044  -1.08897
 Alpha  occ. eigenvalues --   -1.06154  -1.05644  -1.04971  -1.03029  -1.02953
 Alpha  occ. eigenvalues --   -1.00744  -1.00554  -1.00100  -0.96607  -0.94061
 Alpha  occ. eigenvalues --   -0.92795  -0.89821  -0.88505  -0.87269  -0.85900
 Alpha  occ. eigenvalues --   -0.81990  -0.81624  -0.81462  -0.78692  -0.78514
 Alpha  occ. eigenvalues --   -0.77000  -0.74751  -0.74024  -0.73063  -0.71708
 Alpha  occ. eigenvalues --   -0.70075  -0.69756  -0.69179  -0.68572  -0.67768
 Alpha  occ. eigenvalues --   -0.67359  -0.66891  -0.66029  -0.65540  -0.65379
 Alpha  occ. eigenvalues --   -0.64517  -0.63880  -0.63219  -0.60961  -0.60460
 Alpha  occ. eigenvalues --   -0.60082  -0.60030  -0.59085  -0.58749  -0.57889
 Alpha  occ. eigenvalues --   -0.57586  -0.57490  -0.56789  -0.55959  -0.55298
 Alpha  occ. eigenvalues --   -0.54913  -0.54431  -0.53541  -0.53150  -0.52522
 Alpha  occ. eigenvalues --   -0.52484  -0.52256  -0.51207  -0.51020  -0.50370
 Alpha  occ. eigenvalues --   -0.49790  -0.49124  -0.49025  -0.48968  -0.48527
 Alpha  occ. eigenvalues --   -0.48411  -0.48097  -0.47697  -0.47245  -0.46885
 Alpha  occ. eigenvalues --   -0.46294  -0.45631  -0.44466  -0.44170  -0.43822
 Alpha  occ. eigenvalues --   -0.43308  -0.43061  -0.42761  -0.42687  -0.41340
 Alpha  occ. eigenvalues --   -0.41076  -0.40960  -0.40653  -0.40470  -0.39703
 Alpha  occ. eigenvalues --   -0.38982  -0.38348  -0.37710  -0.37364  -0.37114
 Alpha  occ. eigenvalues --   -0.36978  -0.36269  -0.33985  -0.33621  -0.32185
 Alpha  occ. eigenvalues --   -0.31564  -0.31384  -0.30538  -0.25394  -0.24804
 Alpha  occ. eigenvalues --   -0.23106
 Alpha virt. eigenvalues --   -0.13384  -0.12051  -0.09287  -0.08797  -0.08123
 Alpha virt. eigenvalues --   -0.07704  -0.07354  -0.06449  -0.04237  -0.03446
 Alpha virt. eigenvalues --   -0.03285  -0.03065  -0.02680  -0.00520   0.00176

 Mulliken charges:
               1
     1  N   -0.765323
     2  H    0.334399
     3  H    0.364795
     4  C   -0.102023
     5  H    0.191871
     6  C    0.622902
     7  C   -0.348695
     8  H    0.197607
     9  H    0.217716
    10  O   -0.513832
    11  C    0.605632
    12  N   -0.699708
    13  H    0.421233
    14  H    0.401566
    15  O   -0.566334
    16  N   -0.607996
    17  H    0.343229
    18  C   -0.050338
    19  H    0.193423
    20  C    0.634073
    21  C   -0.396725
    22  H    0.180906
    23  H    0.183646
    24  O   -0.554884
    25  C    0.166438
    26  C   -0.215046
    27  H    0.129480
    28  C   -0.179600
    29  H    0.136587
    30  C   -0.128121
    31  H    0.144401
    32  C   -0.128411
    33  H    0.147931
    34  C   -0.130145
    35  H    0.147707
    36  N   -0.602717
    37  H    0.381686
    38  C   -0.104895
    39  H    0.182329
    40  C    0.590348
    41  C   -0.371780
    42  H    0.265888
    43  H    0.172954
    44  O   -0.525006
    45  C    0.612178
    46  N   -0.720707
    47  H    0.352805
    48  H    0.403252
    49  O   -0.616665
    50  N   -0.588847
    51  H    0.341730
    52  C   -0.090776
    53  H    0.162158
    54  C    0.571906
    55  C   -0.248390
    56  H    0.158004
    57  H    0.137491
    58  O   -0.579917
    59  C   -0.326348
    60  H    0.151760
    61  H    0.200239
    62  C   -0.148695
    63  H    0.185826
    64  H    0.178008
    65  N   -0.597812
    66  H    0.370593
    67  N   -0.754652
    68  H    0.383570
    69  H    0.394218
    70  N   -0.764669
    71  H    0.383413
    72  H    0.387839
    73  C    0.830632
    74  O   -0.603739
    75  H    0.468424
 Sum of Mulliken charges =   1.00000

 Dipole moment (field-independent basis, Debye):
    X=              2.2508    Y=             14.2255    Z=            -11.2643  Tot=             18.2843
 Quadrupole moment (field-independent basis, Debye-Ang):
   XX=            -55.0197   YY=           -111.7749   ZZ=            -39.5888
   XY=            129.5744   XZ=           -176.3635   YZ=           -122.2878

 Normal termination of Gaussian 16 at Tue Jun  7 03:38:21 2022.
