 Gaussian 16, Revision C.01,
 Gaussian 16:  ES64L-G16RevC.01  3-Jul-2019

 -------------------------------------------------------------------
 # B3LYP/6-31G* guess=read geom=check nosymm integral(ultrafinegrid)
 -------------------------------------------------------------------

 ------------------------------------------------------
 Candidate Structure: Conf:315 Charge calc in gas phase
 ------------------------------------------------------
 Structure from the checkpoint file:  "conf-315.chk"
 Charge =  1 Multiplicity = 1

                          Input orientation:
 ---------------------------------------------------------------------
 Center     Atomic      Atomic             Coordinates (Angstroms)
 Number     Number       Type             X           Y           Z
 ---------------------------------------------------------------------
      1          7           0       -5.748963    2.524561    2.817278
      2          1           0       -5.663083    3.437847    2.383949
      3          1           0       -6.308973    1.969168    2.175355
      4          6           0       -4.442391    1.903249    2.948073
      5          1           0       -3.770347    2.589548    3.464788
      6          6           0       -3.846580    1.500494    1.599776
      7          6           0       -4.592711    0.650371    3.850343
      8          1           0       -5.098292    1.023829    4.740632
      9          1           0       -5.231291   -0.114776    3.407389
     10          8           0       -4.545133    1.033096    0.708743
     11          6           0       -3.333917    0.034468    4.268968
     12          7           0       -3.206079   -1.251885    4.484162
     13          1           0       -3.990397   -1.887333    4.303648
     14          1           0       -2.316472   -1.687340    4.712248
     15          8           0       -2.343169    0.856210    4.518666
     16          7           0       -2.507279    1.625416    1.482973
     17          1           0       -1.931867    1.994240    2.226338
     18          6           0       -1.835678    1.179100    0.282470
     19          1           0       -2.266272    0.214400   -0.009182
     20          6           0       -0.350718    1.034404    0.613877
     21          6           0       -2.054484    2.166318   -0.884016
     22          1           0       -3.098821    2.478967   -0.848129
     23          1           0       -1.430427    3.047485   -0.725491
     24          8           0        0.180121    1.712427    1.474034
     25          6           0       -1.779140    1.496740   -2.200042
     26          6           0       -0.542161    1.566285   -2.820003
     27          1           0        0.267967    2.125705   -2.371866
     28          6           0       -2.765425    0.689704   -2.774432
     29          1           0       -3.725336    0.614592   -2.272223
     30          6           0       -0.270687    0.824406   -3.961472
     31          1           0        0.738322    0.879915   -4.360937
     32          6           0       -2.513658   -0.012165   -3.951204
     33          1           0       -3.296190   -0.619899   -4.387858
     34          6           0       -1.252159    0.042501   -4.548400
     35          1           0       -1.052242   -0.507076   -5.461405
     36          7           0        0.323971    0.105920   -0.119592
     37          1           0       -0.101563   -0.197282   -0.983306
     38          6           0        1.780957    0.044644   -0.049319
     39          1           0        2.068851    0.444651    0.919065
     40          6           0        2.383400    0.940873   -1.151224
     41          6           0        2.268906   -1.394217   -0.209119
     42          1           0        1.979745   -1.756928   -1.199833
     43          1           0        1.791613   -2.029940    0.534372
     44          8           0        2.180130    0.704357   -2.356694
     45          6           0        3.784073   -1.495759   -0.106828
     46          7           0        4.265832   -2.751757    0.097474
     47          1           0        5.261024   -2.876848    0.147666
     48          1           0        3.657118   -3.543152    0.192184
     49          8           0        4.511547   -0.524353   -0.237026
     50          7           0        3.068866    2.035191   -0.752150
     51          1           0        3.526481    2.075281    0.149529
     52          6           0        3.836723    2.708333   -1.766037
     53          1           0        4.268607    1.923269   -2.416025
     54          6           0        4.995167    3.419607   -1.025247
     55          6           0        3.004348    3.675835   -2.613867
     56          1           0        1.989396    3.269499   -2.616487
     57          1           0        2.959551    4.659269   -2.145460
     58          8           0        5.688246    4.199253   -1.684402
     59          6           0        3.498700    3.764559   -4.049632
     60          1           0        4.504364    4.194574   -4.061241
     61          1           0        3.578448    2.755197   -4.466690
     62          6           0        2.571261    4.570145   -4.939366
     63          1           0        2.382423    5.550938   -4.492177
     64          1           0        3.041887    4.736162   -5.911947
     65          7           0        1.303346    3.831319   -5.130605
     66          1           0        1.061147    3.151255   -4.412895
     67          7           0        0.391547    5.511386   -6.467706
     68          1           0       -0.284022    5.730326   -7.183079
     69          1           0        1.321606    5.866709   -6.622715
     70          7           0       -0.923770    3.701910   -5.772730
     71          1           0       -1.624957    3.976915   -6.440735
     72          1           0       -0.947742    2.733564   -5.488156
     73          6           0        0.268478    4.341220   -5.804582
     74          8           0        5.127340    3.081320    0.168211
     75          1           0       -1.524271    0.404463    4.841062
 ---------------------------------------------------------------------

 SCF Done:  E(RB3LYP) =  -1917.23057345     A.U. after    1 cycles

 Alpha  occ. eigenvalues --  -19.39851 -19.22320 -19.20985 -19.16625 -19.15817
 Alpha  occ. eigenvalues --  -19.07552 -19.07176 -14.57776 -14.51524 -14.50664
 Alpha  occ. eigenvalues --  -14.50245 -14.46724 -14.44563 -14.42618 -14.41346
 Alpha  occ. eigenvalues --  -14.37291 -10.50707 -10.47146 -10.39126 -10.37844
 Alpha  occ. eigenvalues --  -10.35609 -10.35475 -10.34663 -10.33180 -10.32737
 Alpha  occ. eigenvalues --  -10.32484 -10.29806 -10.28649 -10.28390 -10.28180
 Alpha  occ. eigenvalues --  -10.28110 -10.27843 -10.27796 -10.27443 -10.26548
 Alpha  occ. eigenvalues --  -10.25114 -10.24850 -10.22887 -10.22641  -1.29663
 Alpha  occ. eigenvalues --   -1.15670  -1.14856  -1.13614  -1.13442  -1.08903
 Alpha  occ. eigenvalues --   -1.07240  -1.04619  -1.04314  -1.03347  -1.01658
 Alpha  occ. eigenvalues --   -1.01208  -1.01021  -0.96312  -0.95388  -0.94816
 Alpha  occ. eigenvalues --   -0.94179  -0.92112  -0.89250  -0.87595  -0.85443
 Alpha  occ. eigenvalues --   -0.84098  -0.83706  -0.82441  -0.80282  -0.79156
 Alpha  occ. eigenvalues --   -0.77659  -0.77463  -0.76208  -0.74590  -0.73415
 Alpha  occ. eigenvalues --   -0.72553  -0.71152  -0.69913  -0.69405  -0.68940
 Alpha  occ. eigenvalues --   -0.67680  -0.66931  -0.65986  -0.65186  -0.64557
 Alpha  occ. eigenvalues --   -0.63961  -0.63706  -0.63510  -0.63204  -0.61075
 Alpha  occ. eigenvalues --   -0.60836  -0.60152  -0.59753  -0.59128  -0.58908
 Alpha  occ. eigenvalues --   -0.58084  -0.57380  -0.56938  -0.56857  -0.55407
 Alpha  occ. eigenvalues --   -0.55319  -0.54874  -0.54497  -0.53980  -0.53477
 Alpha  occ. eigenvalues --   -0.53270  -0.52773  -0.52510  -0.51200  -0.50907
 Alpha  occ. eigenvalues --   -0.50532  -0.50122  -0.49871  -0.49665  -0.49425
 Alpha  occ. eigenvalues --   -0.48670  -0.48251  -0.47835  -0.47559  -0.46685
 Alpha  occ. eigenvalues --   -0.45815  -0.45571  -0.45320  -0.44564  -0.44171
 Alpha  occ. eigenvalues --   -0.43194  -0.43004  -0.42728  -0.42381  -0.41852
 Alpha  occ. eigenvalues --   -0.41547  -0.40495  -0.39937  -0.38943  -0.38456
 Alpha  occ. eigenvalues --   -0.37480  -0.37167  -0.36975  -0.35563  -0.35043
 Alpha  occ. eigenvalues --   -0.34791  -0.34651  -0.34375  -0.33593  -0.32296
 Alpha  occ. eigenvalues --   -0.30774  -0.29586  -0.28423  -0.22818  -0.22045
 Alpha  occ. eigenvalues --   -0.21120
 Alpha virt. eigenvalues --   -0.20138  -0.12871  -0.11998  -0.10226  -0.09511
 Alpha virt. eigenvalues --   -0.08986  -0.07482  -0.06868  -0.06765  -0.06676
 Alpha virt. eigenvalues --   -0.03070  -0.02946  -0.02394  -0.02134  -0.01666

 Mulliken charges:
               1
     1  N   -0.699394
     2  H    0.328424
     3  H    0.327106
     4  C   -0.087630
     5  H    0.180868
     6  C    0.593293
     7  C   -0.356327
     8  H    0.253137
     9  H    0.199430
    10  O   -0.530874
    11  C    0.632765
    12  N   -0.713791
    13  H    0.411000
    14  H    0.390367
    15  O   -0.517403
    16  N   -0.619616
    17  H    0.351258
    18  C   -0.023657
    19  H    0.172296
    20  C    0.584239
    21  C   -0.357026
    22  H    0.182900
    23  H    0.173714
    24  O   -0.517144
    25  C    0.130566
    26  C   -0.219755
    27  H    0.187772
    28  C   -0.187621
    29  H    0.160840
    30  C   -0.189834
    31  H    0.175331
    32  C   -0.135636
    33  H    0.149901
    34  C   -0.149385
    35  H    0.151165
    36  N   -0.610557
    37  H    0.347817
    38  C   -0.049906
    39  H    0.192391
    40  C    0.629500
    41  C   -0.382552
    42  H    0.186722
    43  H    0.142969
    44  O   -0.595651
    45  C    0.620707
    46  N   -0.758333
    47  H    0.356485
    48  H    0.333943
    49  O   -0.478726
    50  N   -0.586953
    51  H    0.364364
    52  C   -0.047231
    53  H    0.163174
    54  C    0.581521
    55  C   -0.267088
    56  H    0.100966
    57  H    0.159306
    58  O   -0.557315
    59  C   -0.312658
    60  H    0.215464
    61  H    0.160236
    62  C   -0.173053
    63  H    0.187862
    64  H    0.172436
    65  N   -0.597807
    66  H    0.388270
    67  N   -0.731298
    68  H    0.371484
    69  H    0.392058
    70  N   -0.749998
    71  H    0.364875
    72  H    0.386996
    73  C    0.767287
    74  O   -0.576129
    75  H    0.457145
 Sum of Mulliken charges =   1.00000

 Dipole moment (field-independent basis, Debye):
    X=            -23.9625    Y=             -0.2790    Z=             -3.7505  Tot=             24.2559
 Quadrupole moment (field-independent basis, Debye-Ang):
   XX=           -263.4320   YY=           -161.2522   ZZ=            -12.9831
   XY=            -56.1484   XZ=            -36.6198   YZ=           -109.3004

 Normal termination of Gaussian 16 at Tue Jun  7 03:34:26 2022.
