 Gaussian 16, Revision C.01,
 Gaussian 16:  ES64L-G16RevC.01  3-Jul-2019

 -------------------------------------------------------------------
 # B3LYP/6-31G* guess=read geom=check nosymm integral(ultrafinegrid)
 -------------------------------------------------------------------

 ------------------------------------------------------
 Candidate Structure: Conf:234 Charge calc in gas phase
 ------------------------------------------------------
 Structure from the checkpoint file:  "conf-234.chk"
 Charge =  1 Multiplicity = 1

                          Input orientation:
 ---------------------------------------------------------------------
 Center     Atomic      Atomic             Coordinates (Angstroms)
 Number     Number       Type             X           Y           Z
 ---------------------------------------------------------------------
      1          7           0       -4.009020   -2.120718    3.640434
      2          1           0       -3.191807   -2.703194    3.467548
      3          1           0       -4.469849   -2.458738    4.481968
      4          6           0       -3.607163   -0.730107    3.778099
      5          1           0       -4.514629   -0.121914    3.876926
      6          6           0       -2.861689   -0.363857    2.493317
      7          6           0       -2.670912   -0.441589    4.993972
      8          1           0       -3.115241   -0.893252    5.887441
      9          1           0       -1.714340   -0.945984    4.809323
     10          8           0       -1.865149   -0.995946    2.143319
     11          6           0       -2.389316    1.035386    5.218849
     12          7           0       -2.578128    1.505554    6.466607
     13          1           0       -2.839238    0.909862    7.238430
     14          1           0       -2.349424    2.472348    6.661934
     15          8           0       -2.024365    1.799250    4.309774
     16          7           0       -3.298041    0.721508    1.806513
     17          1           0       -4.156142    1.187800    2.073367
     18          6           0       -2.599130    1.216181    0.636618
     19          1           0       -2.710274    0.513059   -0.197560
     20          6           0       -1.108535    1.340635    0.929949
     21          6           0       -3.159986    2.608962    0.224802
     22          1           0       -2.887497    3.336056    0.998289
     23          1           0       -2.645733    2.909579   -0.694772
     24          8           0       -0.658518    1.706671    2.093595
     25          6           0       -4.661312    2.601115    0.023838
     26          6           0       -5.232155    1.982767   -1.098027
     27          1           0       -4.590963    1.527217   -1.849908
     28          6           0       -5.506635    3.194765    0.971460
     29          1           0       -5.076965    3.704252    1.832067
     30          6           0       -6.615502    1.955858   -1.265473
     31          1           0       -7.043628    1.477645   -2.141749
     32          6           0       -6.894010    3.168596    0.804451
     33          1           0       -7.535296    3.641909    1.542430
     34          6           0       -7.450232    2.547035   -0.312913
     35          1           0       -8.527784    2.528105   -0.446733
     36          7           0       -0.253893    1.178387   -0.033719
     37          1           0       -0.522904    0.979592   -1.012783
     38          6           0        1.208163    1.266346    0.056506
     39          1           0        1.481690    2.166837    0.613253
     40          6           0        1.676798    1.368296   -1.421301
     41          6           0        1.809649    0.026537    0.763623
     42          1           0        1.471649    0.004062    1.804211
     43          1           0        2.899480    0.139943    0.758163
     44          8           0        0.839401    1.163631   -2.320207
     45          6           0        1.486536   -1.275260    0.019957
     46          7           0        0.596674   -2.104490    0.640154
     47          1           0        0.318669   -2.930701    0.126799
     48          1           0       -0.011892   -1.792886    1.385639
     49          8           0        2.006506   -1.542589   -1.053536
     50          7           0        2.961950    1.665604   -1.536145
     51          1           0        3.577960    1.695285   -0.683629
     52          6           0        3.894970    1.240933   -2.580651
     53          1           0        3.634486    0.219446   -2.886773
     54          6           0        5.306570    1.162405   -1.822862
     55          6           0        3.999056    2.140628   -3.808282
     56          1           0        3.966864    3.193377   -3.496151
     57          1           0        5.000055    1.943672   -4.212122
     58          8           0        6.287636    0.993365   -2.557101
     59          6           0        2.937004    1.868477   -4.880457
     60          1           0        2.959924    0.798623   -5.133172
     61          1           0        1.932161    2.087918   -4.500313
     62          6           0        3.225956    2.675106   -6.144887
     63          1           0        3.126456    3.751090   -5.956421
     64          1           0        4.251084    2.468763   -6.479454
     65          7           0        2.285907    2.298877   -7.226199
     66          1           0        1.642464    1.545422   -7.015936
     67          7           0        3.248604    3.653244   -8.838476
     68          1           0        3.159008    4.193099   -9.686891
     69          1           0        4.014564    3.880292   -8.220815
     70          7           0        1.324082    2.467951   -9.339626
     71          1           0        1.479296    2.582688  -10.331446
     72          1           0        0.583135    1.835026   -9.073670
     73          6           0        2.291357    2.794469   -8.456472
     74          8           0        5.211547    1.285327   -0.565930
     75          1           0       -1.318846    1.681377    2.860577
 ---------------------------------------------------------------------

 SCF Done:  E(RB3LYP) =  -1917.30895158     A.U. after    2 cycles

 Alpha  occ. eigenvalues --  -19.30899 -19.24366 -19.23549 -19.18116 -19.16348
 Alpha  occ. eigenvalues --  -19.08557 -19.07329 -14.52474 -14.52472 -14.52044
 Alpha  occ. eigenvalues --  -14.49425 -14.48125 -14.47742 -14.41586 -14.40754
 Alpha  occ. eigenvalues --  -14.38403 -10.48653 -10.44088 -10.41665 -10.40325
 Alpha  occ. eigenvalues --  -10.36846 -10.34534 -10.34345 -10.34114 -10.34045
 Alpha  occ. eigenvalues --  -10.32431 -10.31303 -10.30926 -10.29611 -10.28391
 Alpha  occ. eigenvalues --  -10.28245 -10.27970 -10.27939 -10.27724 -10.26531
 Alpha  occ. eigenvalues --  -10.26476 -10.26269 -10.23826 -10.22781  -1.21572
 Alpha  occ. eigenvalues --   -1.17142  -1.15759  -1.15357  -1.09877  -1.08174
 Alpha  occ. eigenvalues --   -1.06181  -1.06090  -1.05450  -1.04783  -1.02486
 Alpha  occ. eigenvalues --   -1.01589  -0.99369  -0.96193  -0.95453  -0.95029
 Alpha  occ. eigenvalues --   -0.92789  -0.90835  -0.88693  -0.87097  -0.86929
 Alpha  occ. eigenvalues --   -0.83801  -0.83488  -0.81467  -0.78716  -0.78624
 Alpha  occ. eigenvalues --   -0.78344  -0.75679  -0.75402  -0.74342  -0.72578
 Alpha  occ. eigenvalues --   -0.71497  -0.70401  -0.69941  -0.69691  -0.67797
 Alpha  occ. eigenvalues --   -0.67009  -0.66403  -0.65435  -0.65339  -0.64900
 Alpha  occ. eigenvalues --   -0.64432  -0.64017  -0.63006  -0.61558  -0.60854
 Alpha  occ. eigenvalues --   -0.60501  -0.60277  -0.59904  -0.59390  -0.58074
 Alpha  occ. eigenvalues --   -0.57884  -0.57566  -0.56540  -0.55817  -0.55642
 Alpha  occ. eigenvalues --   -0.55194  -0.54887  -0.54669  -0.53912  -0.53593
 Alpha  occ. eigenvalues --   -0.52166  -0.51980  -0.51193  -0.51071  -0.50851
 Alpha  occ. eigenvalues --   -0.50431  -0.50290  -0.49962  -0.49859  -0.48735
 Alpha  occ. eigenvalues --   -0.48452  -0.48340  -0.47432  -0.47324  -0.46600
 Alpha  occ. eigenvalues --   -0.45729  -0.45388  -0.44880  -0.44807  -0.44306
 Alpha  occ. eigenvalues --   -0.43608  -0.43516  -0.43226  -0.43130  -0.42888
 Alpha  occ. eigenvalues --   -0.40754  -0.40390  -0.40125  -0.39554  -0.39331
 Alpha  occ. eigenvalues --   -0.39013  -0.38301  -0.37641  -0.37472  -0.37338
 Alpha  occ. eigenvalues --   -0.35774  -0.34177  -0.33744  -0.33601  -0.32674
 Alpha  occ. eigenvalues --   -0.31937  -0.30403  -0.29663  -0.23546  -0.23434
 Alpha  occ. eigenvalues --   -0.21601
 Alpha virt. eigenvalues --   -0.13034  -0.12330  -0.10460  -0.09576  -0.09447
 Alpha virt. eigenvalues --   -0.08743  -0.08710  -0.04598  -0.04090  -0.03829
 Alpha virt. eigenvalues --   -0.03375  -0.03191  -0.02738  -0.01362  -0.01225

 Mulliken charges:
               1
     1  N   -0.704169
     2  H    0.326021
     3  H    0.317574
     4  C   -0.057548
     5  H    0.156568
     6  C    0.644218
     7  C   -0.387093
     8  H    0.157431
     9  H    0.210024
    10  O   -0.541262
    11  C    0.632969
    12  N   -0.725635
    13  H    0.365347
    14  H    0.369365
    15  O   -0.565916
    16  N   -0.621009
    17  H    0.357610
    18  C   -0.016858
    19  H    0.199501
    20  C    0.660411
    21  C   -0.398928
    22  H    0.181122
    23  H    0.187954
    24  O   -0.596896
    25  C    0.156817
    26  C   -0.175196
    27  H    0.134791
    28  C   -0.209709
    29  H    0.140828
    30  C   -0.124391
    31  H    0.153599
    32  C   -0.124259
    33  H    0.153750
    34  C   -0.124392
    35  H    0.156701
    36  N   -0.574200
    37  H    0.385986
    38  C   -0.091542
    39  H    0.205462
    40  C    0.650286
    41  C   -0.373598
    42  H    0.162394
    43  H    0.240713
    44  O   -0.589199
    45  C    0.582392
    46  N   -0.765408
    47  H    0.338907
    48  H    0.368960
    49  O   -0.488324
    50  N   -0.621308
    51  H    0.371684
    52  C   -0.081855
    53  H    0.169000
    54  C    0.597078
    55  C   -0.267560
    56  H    0.133702
    57  H    0.182689
    58  O   -0.569453
    59  C   -0.322922
    60  H    0.155484
    61  H    0.179640
    62  C   -0.148884
    63  H    0.184524
    64  H    0.185889
    65  N   -0.606270
    66  H    0.368895
    67  N   -0.757563
    68  H    0.384265
    69  H    0.400301
    70  N   -0.762594
    71  H    0.381988
    72  H    0.381164
    73  C    0.834389
    74  O   -0.615751
    75  H    0.501297
 Sum of Mulliken charges =   1.00000

 Dipole moment (field-independent basis, Debye):
    X=            -18.9996    Y=             12.7908    Z=            -15.0585  Tot=             27.4107
 Quadrupole moment (field-independent basis, Debye-Ang):
   XX=           -241.8117   YY=           -178.3779   ZZ=            156.3327
   XY=              4.8116   XZ=            -89.7284   YZ=            -88.8835

 Normal termination of Gaussian 16 at Tue Jun  7 03:34:37 2022.
