 Gaussian 16, Revision C.01,
 Gaussian 16:  ES64L-G16RevC.01  3-Jul-2019

 -------------------------------------------------------------------
 # B3LYP/6-31G* guess=read geom=check nosymm integral(ultrafinegrid)
 -------------------------------------------------------------------

 ------------------------------------------------------
 Candidate Structure: Conf:291 Charge calc in gas phase
 ------------------------------------------------------
 Structure from the checkpoint file:  "conf-291.chk"
 Charge =  1 Multiplicity = 1

                          Input orientation:
 ---------------------------------------------------------------------
 Center     Atomic      Atomic             Coordinates (Angstroms)
 Number     Number       Type             X           Y           Z
 ---------------------------------------------------------------------
      1          7           0       -4.739554   -2.924127    2.972389
      2          1           0       -5.703278   -2.685469    2.741553
      3          1           0       -4.375721   -3.422627    2.158308
      4          6           0       -3.958791   -1.704248    3.127418
      5          1           0       -4.505247   -1.032842    3.802015
      6          6           0       -3.683615   -0.994357    1.785038
      7          6           0       -2.601833   -2.093824    3.781328
      8          1           0       -2.822140   -2.590837    4.732019
      9          1           0       -2.090681   -2.805895    3.129462
     10          8           0       -3.391149   -1.641094    0.786750
     11          6           0       -1.663601   -0.922988    3.990897
     12          7           0       -1.996650   -0.033049    4.946192
     13          1           0       -2.783265   -0.184054    5.561585
     14          1           0       -1.461956    0.819036    5.056411
     15          8           0       -0.647272   -0.787306    3.283385
     16          7           0       -3.781554    0.369783    1.803836
     17          1           0       -3.835676    0.829918    2.703930
     18          6           0       -3.262744    1.186422    0.717015
     19          1           0       -3.284003    0.555903   -0.175209
     20          6           0       -1.819464    1.579238    1.067206
     21          6           0       -4.119262    2.456768    0.494732
     22          1           0       -4.075536    3.065731    1.406187
     23          1           0       -3.637852    3.046352   -0.296106
     24          8           0       -1.510063    1.943855    2.203729
     25          6           0       -5.556263    2.156407    0.125845
     26          6           0       -5.883190    1.712918   -1.162748
     27          1           0       -5.099590    1.601714   -1.909826
     28          6           0       -6.584340    2.304414    1.064026
     29          1           0       -6.349771    2.661704    2.064672
     30          6           0       -7.203118    1.419115   -1.503127
     31          1           0       -7.438713    1.079633   -2.507950
     32          6           0       -7.907761    2.014504    0.727095
     33          1           0       -8.693899    2.142361    1.466325
     34          6           0       -8.220099    1.568709   -0.557537
     35          1           0       -9.249455    1.345255   -0.823222
     36          7           0       -0.911870    1.511552    0.061662
     37          1           0       -1.133577    1.147174   -0.859863
     38          6           0        0.474833    1.822726    0.293244
     39          1           0        0.526454    2.715832    0.922697
     40          6           0        1.150306    2.060014   -1.068349
     41          6           0        1.238833    0.626597    1.007605
     42          1           0        2.020903    0.234250    0.351225
     43          1           0        0.525647   -0.176786    1.198235
     44          8           0        0.724220    1.512627   -2.078838
     45          6           0        1.868724    1.036309    2.309151
     46          7           0        3.025894    1.653880    2.311561
     47          1           0        3.421350    1.932259    3.204098
     48          1           0        3.582419    1.840185    1.447494
     49          8           0        1.291530    0.829957    3.444999
     50          7           0        2.264044    2.830220   -1.003344
     51          1           0        2.582742    3.115961   -0.083564
     52          6           0        3.375874    2.699041   -1.942901
     53          1           0        3.135424    1.861545   -2.605649
     54          6           0        4.639067    2.320319   -1.100040
     55          6           0        3.540122    3.987730   -2.808933
     56          1           0        2.547580    4.445499   -2.838529
     57          1           0        4.186262    4.706839   -2.287933
     58          8           0        5.680229    2.025248   -1.752552
     59          6           0        4.018537    3.790979   -4.275275
     60          1           0        3.935947    2.735715   -4.564399
     61          1           0        3.348507    4.335764   -4.948836
     62          6           0        5.441903    4.274947   -4.588858
     63          1           0        5.642997    4.139193   -5.659740
     64          1           0        5.543558    5.344546   -4.361014
     65          7           0        6.397389    3.508509   -3.788045
     66          1           0        5.988741    2.766259   -3.175996
     67          7           0        8.269182    4.879990   -4.029302
     68          1           0        9.128478    5.256505   -3.658226
     69          1           0        8.014752    5.136093   -4.971227
     70          7           0        8.105817    3.363440   -2.262917
     71          1           0        9.100295    3.359835   -2.091160
     72          1           0        7.495348    2.732738   -1.730865
     73          6           0        7.591492    3.913896   -3.375052
     74          8           0        4.542000    2.344786    0.151435
     75          1           0        0.423031    0.261729    3.378021
 ---------------------------------------------------------------------

 SCF Done:  E(RB3LYP) =  -1917.38626256     A.U. after    1 cycles

 Alpha  occ. eigenvalues --  -19.30469 -19.24490 -19.21122 -19.20781 -19.19343
 Alpha  occ. eigenvalues --  -19.19227 -19.19139 -14.49269 -14.48980 -14.47523
 Alpha  occ. eigenvalues --  -14.47211 -14.46278 -14.45455 -14.44567 -14.44171
 Alpha  occ. eigenvalues --  -14.39079 -10.44537 -10.44222 -10.41086 -10.38240
 Alpha  occ. eigenvalues --  -10.37703 -10.37162 -10.36219 -10.34579 -10.33044
 Alpha  occ. eigenvalues --  -10.31772 -10.31593 -10.31561 -10.31178 -10.28801
 Alpha  occ. eigenvalues --  -10.28588 -10.27927 -10.27168 -10.25921 -10.24908
 Alpha  occ. eigenvalues --  -10.24822 -10.24708 -10.24668 -10.24517  -1.21232
 Alpha  occ. eigenvalues --   -1.15373  -1.13454  -1.13018  -1.12559  -1.12088
 Alpha  occ. eigenvalues --   -1.11166  -1.05594  -1.03984  -1.02361  -1.02032
 Alpha  occ. eigenvalues --   -1.02012  -1.01220  -1.00962  -1.00624  -0.96863
 Alpha  occ. eigenvalues --   -0.91536  -0.89811  -0.88564  -0.86413  -0.85088
 Alpha  occ. eigenvalues --   -0.83748  -0.81300  -0.80158  -0.79173  -0.76507
 Alpha  occ. eigenvalues --   -0.76161  -0.74774  -0.74747  -0.71924  -0.70383
 Alpha  occ. eigenvalues --   -0.70075  -0.69134  -0.68585  -0.68229  -0.67460
 Alpha  occ. eigenvalues --   -0.66839  -0.66590  -0.65963  -0.65234  -0.64761
 Alpha  occ. eigenvalues --   -0.64603  -0.64109  -0.62348  -0.61704  -0.61195
 Alpha  occ. eigenvalues --   -0.60692  -0.59529  -0.59148  -0.58237  -0.57634
 Alpha  occ. eigenvalues --   -0.57450  -0.56856  -0.56559  -0.56084  -0.55422
 Alpha  occ. eigenvalues --   -0.54970  -0.54883  -0.53892  -0.53127  -0.52615
 Alpha  occ. eigenvalues --   -0.52111  -0.51806  -0.51404  -0.51344  -0.51158
 Alpha  occ. eigenvalues --   -0.50527  -0.50186  -0.49959  -0.49787  -0.49686
 Alpha  occ. eigenvalues --   -0.49054  -0.48858  -0.48632  -0.47916  -0.47642
 Alpha  occ. eigenvalues --   -0.47053  -0.46737  -0.46537  -0.45646  -0.45239
 Alpha  occ. eigenvalues --   -0.45081  -0.44341  -0.43956  -0.43720  -0.43353
 Alpha  occ. eigenvalues --   -0.42721  -0.42120  -0.41365  -0.40121  -0.39844
 Alpha  occ. eigenvalues --   -0.39797  -0.38901  -0.38450  -0.37045  -0.36523
 Alpha  occ. eigenvalues --   -0.35871  -0.35330  -0.34719  -0.34448  -0.34376
 Alpha  occ. eigenvalues --   -0.33394  -0.32942  -0.32695  -0.31221  -0.30714
 Alpha  occ. eigenvalues --   -0.30200
 Alpha virt. eigenvalues --   -0.13265  -0.09484  -0.08771  -0.07618  -0.06714
 Alpha virt. eigenvalues --   -0.06373  -0.05776  -0.05184  -0.05035  -0.04302
 Alpha virt. eigenvalues --   -0.03469  -0.01554  -0.01242   0.00153   0.00831

 Mulliken charges:
               1
     1  N   -0.696267
     2  H    0.317439
     3  H    0.325789
     4  C   -0.083501
     5  H    0.133741
     6  C    0.602995
     7  C   -0.343362
     8  H    0.192888
     9  H    0.203185
    10  O   -0.516664
    11  C    0.627399
    12  N   -0.726822
    13  H    0.365566
    14  H    0.374043
    15  O   -0.568953
    16  N   -0.579238
    17  H    0.329695
    18  C   -0.071393
    19  H    0.191018
    20  C    0.645343
    21  C   -0.381303
    22  H    0.160675
    23  H    0.165101
    24  O   -0.568004
    25  C    0.196182
    26  C   -0.178554
    27  H    0.125144
    28  C   -0.186637
    29  H    0.116871
    30  C   -0.126344
    31  H    0.142890
    32  C   -0.128825
    33  H    0.139241
    34  C   -0.128484
    35  H    0.143442
    36  N   -0.614216
    37  H    0.365890
    38  C   -0.032461
    39  H    0.194842
    40  C    0.583436
    41  C   -0.399771
    42  H    0.214773
    43  H    0.237675
    44  O   -0.509797
    45  C    0.607450
    46  N   -0.725992
    47  H    0.375740
    48  H    0.447095
    49  O   -0.570243
    50  N   -0.585742
    51  H    0.329138
    52  C   -0.091048
    53  H    0.191897
    54  C    0.613728
    55  C   -0.278528
    56  H    0.178257
    57  H    0.148666
    58  O   -0.595287
    59  C   -0.309492
    60  H    0.174278
    61  H    0.172838
    62  C   -0.148082
    63  H    0.170534
    64  H    0.167766
    65  N   -0.615423
    66  H    0.416675
    67  N   -0.758939
    68  H    0.371880
    69  H    0.378354
    70  N   -0.779110
    71  H    0.358485
    72  H    0.411564
    73  C    0.782581
    74  O   -0.584835
    75  H    0.491130
 Sum of Mulliken charges =   1.00000

 Dipole moment (field-independent basis, Debye):
    X=             14.0691    Y=             14.7536    Z=              0.1717  Tot=             20.3872
 Quadrupole moment (field-independent basis, Debye-Ang):
   XX=            -20.1056   YY=           -167.0465   ZZ=           -132.6063
   XY=             92.7312   XZ=            -89.6057   YZ=            -45.3424

 Normal termination of Gaussian 16 at Tue Jun  7 03:34:24 2022.
