 Gaussian 16, Revision C.01,
 Gaussian 16:  ES64L-G16RevC.01  3-Jul-2019

 -------------------------------------------------------------------
 # B3LYP/6-31G* guess=read geom=check nosymm integral(ultrafinegrid)
 -------------------------------------------------------------------

 ------------------------------------------------------
 Candidate Structure: Conf:472 Charge calc in gas phase
 ------------------------------------------------------
 Structure from the checkpoint file:  "conf-472.chk"
 Charge =  1 Multiplicity = 1

                          Input orientation:
 ---------------------------------------------------------------------
 Center     Atomic      Atomic             Coordinates (Angstroms)
 Number     Number       Type             X           Y           Z
 ---------------------------------------------------------------------
      1          7           0       -5.637491   -0.481495    4.261826
      2          1           0       -6.403387    0.124268    3.973116
      3          1           0       -5.733256   -1.345281    3.725470
      4          6           0       -4.365064    0.123434    3.918282
      5          1           0       -4.391941    1.187070    4.175274
      6          6           0       -3.963130   -0.066375    2.437389
      7          6           0       -3.255087   -0.562280    4.805221
      8          1           0       -3.305168   -0.145870    5.813888
      9          1           0       -3.464534   -1.633433    4.856618
     10          8           0       -4.170317   -1.133161    1.870663
     11          6           0       -1.910932   -0.312922    4.197735
     12          7           0       -1.302804   -1.241167    3.510574
     13          1           0       -1.763051   -2.138744    3.404807
     14          1           0       -0.458288   -1.117353    2.897189
     15          8           0       -1.461732    0.906289    4.281491
     16          7           0       -3.269631    0.972016    1.883645
     17          1           0       -3.121891    1.805870    2.436862
     18          6           0       -2.534318    0.875672    0.636320
     19          1           0       -2.675480   -0.149844    0.281454
     20          6           0       -1.031117    1.122565    0.901455
     21          6           0       -3.068426    1.872110   -0.434422
     22          1           0       -2.866927    2.894068   -0.089230
     23          1           0       -2.483968    1.733009   -1.351729
     24          8           0       -0.611631    1.608026    1.977031
     25          6           0       -4.544824    1.703371   -0.721779
     26          6           0       -5.006848    0.610815   -1.468114
     27          1           0       -4.297879   -0.118510   -1.854701
     28          6           0       -5.477151    2.630601   -0.241778
     29          1           0       -5.133390    3.490793    0.328980
     30          6           0       -6.367297    0.448291   -1.725888
     31          1           0       -6.707916   -0.403374   -2.308033
     32          6           0       -6.840215    2.473353   -0.500308
     33          1           0       -7.548932    3.207638   -0.127054
     34          6           0       -7.288563    1.380094   -1.242031
     35          1           0       -8.348215    1.256557   -1.447027
     36          7           0       -0.206841    0.854430   -0.108216
     37          1           0       -0.526693    0.400663   -0.964368
     38          6           0        1.235878    1.052859   -0.089489
     39          1           0        1.449488    2.100674    0.151723
     40          6           0        1.711455    0.733446   -1.523917
     41          6           0        1.999918    0.183729    0.963845
     42          1           0        1.798590    0.614362    1.946784
     43          1           0        3.076290    0.258848    0.771479
     44          8           0        0.981036    0.103958   -2.287297
     45          6           0        1.557254   -1.274157    1.021027
     46          7           0        2.298611   -2.180659    0.382609
     47          1           0        1.979816   -3.140670    0.430539
     48          1           0        3.160493   -1.992205   -0.163033
     49          8           0        0.525256   -1.599481    1.649459
     50          7           0        2.970765    1.158535   -1.821266
     51          1           0        3.495193    1.532128   -1.026871
     52          6           0        3.892186    0.239295   -2.533635
     53          1           0        3.291463   -0.453794   -3.124365
     54          6           0        4.617873   -0.513444   -1.354131
     55          6           0        4.886404    1.008340   -3.400505
     56          1           0        5.447440    1.688858   -2.745585
     57          1           0        5.608248    0.274824   -3.786714
     58          8           0        4.487869   -1.761664   -1.327283
     59          6           0        4.248513    1.780201   -4.559836
     60          1           0        3.717961    1.079803   -5.222841
     61          1           0        3.485457    2.465953   -4.172566
     62          6           0        5.257299    2.616250   -5.357415
     63          1           0        4.792871    3.145079   -6.196656
     64          1           0        5.711417    3.376346   -4.715783
     65          7           0        6.388232    1.827907   -5.898867
     66          1           0        7.170183    1.669621   -5.275470
     67          7           0        5.269495    1.025689   -7.772310
     68          1           0        5.303054    0.717065   -8.733411
     69          1           0        4.361707    1.197618   -7.364824
     70          7           0        7.529185    0.609325   -7.510522
     71          1           0        7.511235   -0.142565   -8.185145
     72          1           0        8.420602    0.826517   -7.087336
     73          6           0        6.388496    1.149880   -7.043951
     74          8           0        5.138820    0.265103   -0.518383
     75          1           0       -0.950297    1.184351    3.439687
 ---------------------------------------------------------------------

 SCF Done:  E(RB3LYP) =  -1917.32996905     A.U. after    2 cycles

 Alpha  occ. eigenvalues --  -19.29779 -19.22870 -19.20464 -19.19807 -19.18804
 Alpha  occ. eigenvalues --  -19.12074 -19.12035 -14.53522 -14.53406 -14.53354
 Alpha  occ. eigenvalues --  -14.48604 -14.45583 -14.45322 -14.42006 -14.40864
 Alpha  occ. eigenvalues --  -14.39865 -10.49807 -10.43684 -10.39343 -10.37379
 Alpha  occ. eigenvalues --  -10.36381 -10.36136 -10.36106 -10.32827 -10.32641
 Alpha  occ. eigenvalues --  -10.32498 -10.30596 -10.30384 -10.29600 -10.27920
 Alpha  occ. eigenvalues --  -10.27442 -10.26933 -10.26758 -10.26329 -10.25287
 Alpha  occ. eigenvalues --  -10.25187 -10.25058 -10.25002 -10.24885  -1.20571
 Alpha  occ. eigenvalues --   -1.18189  -1.14056  -1.12336  -1.11369  -1.09817
 Alpha  occ. eigenvalues --   -1.07285  -1.06398  -1.05667  -1.05038  -1.02088
 Alpha  occ. eigenvalues --   -1.01766  -0.99020  -0.97762  -0.96890  -0.95879
 Alpha  occ. eigenvalues --   -0.91952  -0.90777  -0.88106  -0.87215  -0.85441
 Alpha  occ. eigenvalues --   -0.83855  -0.81166  -0.80542  -0.80508  -0.77098
 Alpha  occ. eigenvalues --   -0.76676  -0.75853  -0.75353  -0.73866  -0.72341
 Alpha  occ. eigenvalues --   -0.71346  -0.70198  -0.68539  -0.67872  -0.67602
 Alpha  occ. eigenvalues --   -0.67071  -0.66534  -0.66391  -0.65938  -0.64981
 Alpha  occ. eigenvalues --   -0.64493  -0.64058  -0.62616  -0.61156  -0.60844
 Alpha  occ. eigenvalues --   -0.59732  -0.59244  -0.59097  -0.58181  -0.57553
 Alpha  occ. eigenvalues --   -0.57021  -0.56538  -0.56280  -0.55956  -0.55040
 Alpha  occ. eigenvalues --   -0.54194  -0.53863  -0.53027  -0.52758  -0.52692
 Alpha  occ. eigenvalues --   -0.51983  -0.51743  -0.51576  -0.51078  -0.50788
 Alpha  occ. eigenvalues --   -0.50414  -0.49681  -0.49112  -0.48653  -0.48104
 Alpha  occ. eigenvalues --   -0.47696  -0.47481  -0.47085  -0.46705  -0.46433
 Alpha  occ. eigenvalues --   -0.46303  -0.46047  -0.45576  -0.44648  -0.44598
 Alpha  occ. eigenvalues --   -0.44453  -0.44079  -0.43695  -0.43138  -0.42871
 Alpha  occ. eigenvalues --   -0.42089  -0.41890  -0.41834  -0.41126  -0.40641
 Alpha  occ. eigenvalues --   -0.40201  -0.39930  -0.36980  -0.36027  -0.35221
 Alpha  occ. eigenvalues --   -0.34603  -0.34367  -0.33388  -0.33219  -0.32676
 Alpha  occ. eigenvalues --   -0.31995  -0.31070  -0.30629  -0.28110  -0.26467
 Alpha  occ. eigenvalues --   -0.25601
 Alpha virt. eigenvalues --   -0.13819  -0.12759  -0.09560  -0.08945  -0.06968
 Alpha virt. eigenvalues --   -0.06632  -0.06176  -0.06046  -0.05992  -0.05056
 Alpha virt. eigenvalues --   -0.04721  -0.04196  -0.01816  -0.00496  -0.00360

 Mulliken charges:
               1
     1  N   -0.699108
     2  H    0.322929
     3  H    0.326516
     4  C   -0.063785
     5  H    0.161508
     6  C    0.564559
     7  C   -0.319191
     8  H    0.220360
     9  H    0.186080
    10  O   -0.514008
    11  C    0.577898
    12  N   -0.690854
    13  H    0.385086
    14  H    0.430542
    15  O   -0.572091
    16  N   -0.587849
    17  H    0.339739
    18  C   -0.074014
    19  H    0.212386
    20  C    0.668888
    21  C   -0.374763
    22  H    0.157573
    23  H    0.167814
    24  O   -0.619743
    25  C    0.191147
    26  C   -0.170839
    27  H    0.128410
    28  C   -0.191127
    29  H    0.122175
    30  C   -0.126384
    31  H    0.143736
    32  C   -0.130555
    33  H    0.140977
    34  C   -0.128647
    35  H    0.144094
    36  N   -0.605015
    37  H    0.372281
    38  C   -0.040530
    39  H    0.186901
    40  C    0.593478
    41  C   -0.396259
    42  H    0.184806
    43  H    0.223326
    44  O   -0.523545
    45  C    0.608751
    46  N   -0.754662
    47  H    0.340879
    48  H    0.429793
    49  O   -0.596959
    50  N   -0.599259
    51  H    0.339593
    52  C   -0.054788
    53  H    0.164163
    54  C    0.556894
    55  C   -0.280867
    56  H    0.160561
    57  H    0.133696
    58  O   -0.588861
    59  C   -0.274654
    60  H    0.135965
    61  H    0.189444
    62  C   -0.191460
    63  H    0.182832
    64  H    0.202175
    65  N   -0.577797
    66  H    0.374648
    67  N   -0.753062
    68  H    0.386807
    69  H    0.397063
    70  N   -0.758276
    71  H    0.386941
    72  H    0.387652
    73  C    0.822621
    74  O   -0.579392
    75  H    0.484656
 Sum of Mulliken charges =   1.00000

 Dipole moment (field-independent basis, Debye):
    X=             11.6314    Y=              7.7101    Z=            -21.1176  Tot=             25.3118
 Quadrupole moment (field-independent basis, Debye-Ang):
   XX=            -55.4087   YY=           -208.1335   ZZ=             12.9452
   XY=             28.0535   XZ=           -198.8450   YZ=            -32.0611

 Normal termination of Gaussian 16 at Tue Jun  7 03:38:17 2022.
