 Gaussian 16, Revision C.01,
 Gaussian 16:  ES64L-G16RevC.01  3-Jul-2019

 -------------------------------------------------------------------
 # B3LYP/6-31G* guess=read geom=check nosymm integral(ultrafinegrid)
 -------------------------------------------------------------------

 ------------------------------------------------------
 Candidate Structure: Conf:549 Charge calc in gas phase
 ------------------------------------------------------
 Structure from the checkpoint file:  "conf-549.chk"
 Charge =  1 Multiplicity = 1

                          Input orientation:
 ---------------------------------------------------------------------
 Center     Atomic      Atomic             Coordinates (Angstroms)
 Number     Number       Type             X           Y           Z
 ---------------------------------------------------------------------
      1          7           0       -4.919873   -0.878213    4.375290
      2          1           0       -5.606361   -1.359817    3.796256
      3          1           0       -4.169696   -1.550719    4.541804
      4          6           0       -4.362963    0.256209    3.646000
      5          1           0       -5.196134    0.849546    3.250349
      6          6           0       -3.433221   -0.191249    2.505872
      7          6           0       -3.557518    1.120334    4.653317
      8          1           0       -4.153558    1.188465    5.567143
      9          1           0       -2.630170    0.588180    4.900959
     10          8           0       -2.603345   -1.079180    2.678008
     11          6           0       -3.189453    2.493372    4.124366
     12          7           0       -3.585686    3.546935    4.862738
     13          1           0       -4.094852    3.441820    5.727731
     14          1           0       -3.346228    4.479394    4.550421
     15          8           0       -2.571783    2.674375    3.060584
     16          7           0       -3.557439    0.450131    1.305889
     17          1           0       -4.095418    1.307631    1.243095
     18          6           0       -2.604595    0.189099    0.249681
     19          1           0       -2.619361   -0.881662    0.020969
     20          6           0       -1.176433    0.494318    0.697095
     21          6           0       -2.976618    0.968800   -1.052108
     22          1           0       -2.142590    0.862445   -1.752926
     23          1           0       -3.833854    0.443768   -1.486187
     24          8           0       -0.880858    1.387454    1.585659
     25          6           0       -3.320586    2.430186   -0.845831
     26          6           0       -4.661020    2.821154   -0.699204
     27          1           0       -5.450408    2.075475   -0.778512
     28          6           0       -2.319080    3.411756   -0.793993
     29          1           0       -1.279043    3.129607   -0.935565
     30          6           0       -4.996725    4.161135   -0.492416
     31          1           0       -6.040096    4.447863   -0.394108
     32          6           0       -2.657414    4.749694   -0.589367
     33          1           0       -1.873632    5.501752   -0.561405
     34          6           0       -3.993020    5.128174   -0.434265
     35          1           0       -4.250744    6.172818   -0.283636
     36          7           0       -0.202920   -0.152548    0.119462
     37          1           0       -0.390644   -0.839626   -0.633188
     38          6           0        1.219731    0.142694    0.269655
     39          1           0        1.430339    0.345183    1.324240
     40          6           0        1.572409    1.404628   -0.575171
     41          6           0        2.019124   -1.100205   -0.194968
     42          1           0        1.768094   -1.941172    0.460629
     43          1           0        3.090853   -0.916182   -0.106544
     44          8           0        0.727619    1.966740   -1.261312
     45          6           0        1.641305   -1.505417   -1.622676
     46          7           0        2.640392   -1.536443   -2.518661
     47          1           0        2.395129   -1.751061   -3.477472
     48          1           0        3.531988   -1.067423   -2.334652
     49          8           0        0.464068   -1.795237   -1.890637
     50          7           0        2.874741    1.781995   -0.477844
     51          1           0        3.507795    1.088467   -0.089664
     52          6           0        3.540883    2.513151   -1.562179
     53          1           0        2.757268    2.857834   -2.241965
     54          6           0        4.444063    1.480926   -2.316885
     55          6           0        4.303941    3.744399   -0.987916
     56          1           0        3.720611    4.067841   -0.120536
     57          1           0        5.276607    3.423715   -0.589689
     58          8           0        4.891974    1.847065   -3.448157
     59          6           0        4.482812    4.972651   -1.922718
     60          1           0        3.769087    4.924742   -2.755016
     61          1           0        4.229693    5.882023   -1.366379
     62          6           0        5.891336    5.196828   -2.494103
     63          1           0        5.907557    6.142681   -3.051782
     64          1           0        6.625553    5.274986   -1.681329
     65          7           0        6.247176    4.082299   -3.372798
     66          1           0        5.498484    3.370165   -3.530730
     67          7           0        8.566116    4.345663   -3.364568
     68          1           0        9.489272    3.950811   -3.465612
     69          1           0        8.492937    5.351946   -3.377468
     70          7           0        7.580812    2.301593   -3.925140
     71          1           0        8.426522    1.938187   -4.337759
     72          1           0        6.724509    1.728261   -3.886383
     73          6           0        7.465725    3.585856   -3.563033
     74          8           0        4.653584    0.382004   -1.756336
     75          1           0       -1.661974    1.797043    2.092257
 ---------------------------------------------------------------------

 SCF Done:  E(RB3LYP) =  -1917.38943502     A.U. after    1 cycles

 Alpha  occ. eigenvalues --  -19.30267 -19.23592 -19.21454 -19.20645 -19.19937
 Alpha  occ. eigenvalues --  -19.17951 -19.17347 -14.48662 -14.48504 -14.47006
 Alpha  occ. eigenvalues --  -14.46429 -14.46144 -14.45589 -14.43500 -14.42757
 Alpha  occ. eigenvalues --  -14.40255 -10.43546 -10.43067 -10.40809 -10.38077
 Alpha  occ. eigenvalues --  -10.37678 -10.37464 -10.35527 -10.35097 -10.34356
 Alpha  occ. eigenvalues --  -10.32593 -10.32527 -10.30050 -10.29649 -10.29248
 Alpha  occ. eigenvalues --  -10.29229 -10.28199 -10.27800 -10.27386 -10.26835
 Alpha  occ. eigenvalues --  -10.26562 -10.26368 -10.26309 -10.26017  -1.20877
 Alpha  occ. eigenvalues --   -1.14861  -1.13470  -1.12586  -1.12262  -1.11387
 Alpha  occ. eigenvalues --   -1.10703  -1.06211  -1.02930  -1.02734  -1.01731
 Alpha  occ. eigenvalues --   -1.01284  -1.00262  -1.00117  -0.98011  -0.98004
 Alpha  occ. eigenvalues --   -0.93284  -0.90308  -0.88239  -0.87332  -0.85871
 Alpha  occ. eigenvalues --   -0.82832  -0.82374  -0.81825  -0.78250  -0.76901
 Alpha  occ. eigenvalues --   -0.76398  -0.75093  -0.74108  -0.73363  -0.70231
 Alpha  occ. eigenvalues --   -0.69602  -0.68662  -0.68330  -0.67796  -0.67152
 Alpha  occ. eigenvalues --   -0.66595  -0.66188  -0.66106  -0.65546  -0.64688
 Alpha  occ. eigenvalues --   -0.64221  -0.62414  -0.61419  -0.61242  -0.60852
 Alpha  occ. eigenvalues --   -0.60489  -0.59806  -0.58981  -0.58295  -0.58101
 Alpha  occ. eigenvalues --   -0.56892  -0.56726  -0.56295  -0.55974  -0.55691
 Alpha  occ. eigenvalues --   -0.54664  -0.54255  -0.53910  -0.53469  -0.53221
 Alpha  occ. eigenvalues --   -0.52759  -0.52101  -0.51578  -0.51453  -0.51322
 Alpha  occ. eigenvalues --   -0.50727  -0.50087  -0.49802  -0.49486  -0.49159
 Alpha  occ. eigenvalues --   -0.48887  -0.48649  -0.48611  -0.48386  -0.47875
 Alpha  occ. eigenvalues --   -0.47631  -0.47332  -0.46633  -0.46403  -0.45395
 Alpha  occ. eigenvalues --   -0.45064  -0.44836  -0.44143  -0.43816  -0.43352
 Alpha  occ. eigenvalues --   -0.43089  -0.41909  -0.41592  -0.41287  -0.40046
 Alpha  occ. eigenvalues --   -0.39205  -0.38455  -0.37969  -0.36515  -0.36263
 Alpha  occ. eigenvalues --   -0.35877  -0.35486  -0.34897  -0.34267  -0.33752
 Alpha  occ. eigenvalues --   -0.33074  -0.32585  -0.32499  -0.32186  -0.31607
 Alpha  occ. eigenvalues --   -0.31375
 Alpha virt. eigenvalues --   -0.12009  -0.09210  -0.08275  -0.08078  -0.07812
 Alpha virt. eigenvalues --   -0.07481  -0.07102  -0.05987  -0.04562  -0.03461
 Alpha virt. eigenvalues --   -0.02116  -0.00770   0.00110   0.00619   0.01092

 Mulliken charges:
               1
     1  N   -0.696084
     2  H    0.317955
     3  H    0.325487
     4  C   -0.072332
     5  H    0.154072
     6  C    0.595223
     7  C   -0.367038
     8  H    0.182890
     9  H    0.204587
    10  O   -0.522921
    11  C    0.624933
    12  N   -0.723175
    13  H    0.366364
    14  H    0.366281
    15  O   -0.566200
    16  N   -0.620609
    17  H    0.355723
    18  C   -0.053409
    19  H    0.209876
    20  C    0.680633
    21  C   -0.386885
    22  H    0.204890
    23  H    0.184800
    24  O   -0.598476
    25  C    0.125984
    26  C   -0.208880
    27  H    0.137778
    28  C   -0.198401
    29  H    0.193541
    30  C   -0.125920
    31  H    0.146267
    32  C   -0.129216
    33  H    0.142448
    34  C   -0.127237
    35  H    0.144829
    36  N   -0.571949
    37  H    0.416186
    38  C   -0.100956
    39  H    0.207541
    40  C    0.617866
    41  C   -0.398517
    42  H    0.205194
    43  H    0.197408
    44  O   -0.509063
    45  C    0.604564
    46  N   -0.752755
    47  H    0.351000
    48  H    0.407299
    49  O   -0.543725
    50  N   -0.577372
    51  H    0.343526
    52  C   -0.091949
    53  H    0.191278
    54  C    0.603759
    55  C   -0.277663
    56  H    0.171154
    57  H    0.147394
    58  O   -0.608553
    59  C   -0.308172
    60  H    0.172272
    61  H    0.165905
    62  C   -0.146363
    63  H    0.167906
    64  H    0.166226
    65  N   -0.614171
    66  H    0.413161
    67  N   -0.757022
    68  H    0.368898
    69  H    0.375325
    70  N   -0.778331
    71  H    0.356090
    72  H    0.414813
    73  C    0.779633
    74  O   -0.577247
    75  H    0.501635
 Sum of Mulliken charges =   1.00000

 Dipole moment (field-independent basis, Debye):
    X=              9.5858    Y=             16.0097    Z=              0.8934  Tot=             18.6815
 Quadrupole moment (field-independent basis, Debye-Ang):
   XX=             -8.9823   YY=           -145.6641   ZZ=           -163.2769
   XY=             57.4579   XZ=            -95.9272   YZ=             -4.0755

 Normal termination of Gaussian 16 at Tue Jun  7 03:38:04 2022.
