 Gaussian 16, Revision C.01,
 Gaussian 16:  ES64L-G16RevC.01  3-Jul-2019

 -------------------------------------------------------------------
 # B3LYP/6-31G* guess=read geom=check nosymm integral(ultrafinegrid)
 -------------------------------------------------------------------

 ------------------------------------------------------
 Candidate Structure: Conf:950 Charge calc in gas phase
 ------------------------------------------------------
 Structure from the checkpoint file:  "conf-950.chk"
 Charge =  1 Multiplicity = 1

                          Input orientation:
 ---------------------------------------------------------------------
 Center     Atomic      Atomic             Coordinates (Angstroms)
 Number     Number       Type             X           Y           Z
 ---------------------------------------------------------------------
      1          7           0       -4.782011   -1.263623    3.242276
      2          1           0       -5.701671   -1.043453    2.861167
      3          1           0       -4.336474   -1.889523    2.561937
      4          6           0       -3.954818   -0.044788    3.285661
      5          1           0       -4.580022    0.792710    3.614350
      6          6           0       -3.336337    0.219553    1.891658
      7          6           0       -2.761225   -0.223436    4.269824
      8          1           0       -2.020836   -0.935411    3.841792
      9          1           0       -2.232924    0.721786    4.420601
     10          8           0       -3.206885   -0.734200    1.121641
     11          6           0       -3.098578   -0.779995    5.610900
     12          7           0       -4.107774   -1.587583    5.766877
     13          1           0       -4.655820   -1.745856    4.860114
     14          1           0       -4.342027   -2.029662    6.650276
     15          8           0       -2.277735   -0.432360    6.577423
     16          7           0       -2.877456    1.461491    1.646729
     17          1           0       -3.019355    2.191739    2.333822
     18          6           0       -1.984758    1.768606    0.511972
     19          1           0       -2.302181    1.130505   -0.317594
     20          6           0       -0.537359    1.368590    0.894318
     21          6           0       -2.088507    3.236520    0.085549
     22          1           0       -1.929188    3.888521    0.953901
     23          1           0       -1.245997    3.424897   -0.587000
     24          8           0        0.358035    2.179091    1.074940
     25          6           0       -3.398840    3.550521   -0.605737
     26          6           0       -3.650891    3.035741   -1.887534
     27          1           0       -2.896027    2.426026   -2.382900
     28          6           0       -4.375012    4.342019    0.009008
     29          1           0       -4.182115    4.766243    0.993204
     30          6           0       -4.858662    3.306877   -2.529517
     31          1           0       -5.039094    2.907613   -3.524007
     32          6           0       -5.584209    4.615783   -0.635108
     33          1           0       -6.328055    5.240520   -0.147418
     34          6           0       -5.829238    4.096073   -1.905971
     35          1           0       -6.766457    4.311045   -2.412149
     36          7           0       -0.379973    0.010991    1.002544
     37          1           0       -1.183515   -0.565994    0.768362
     38          6           0        0.918556   -0.637997    1.075874
     39          1           0        1.653032    0.172011    1.147638
     40          6           0        1.224931   -1.412872   -0.242119
     41          6           0        1.073923   -1.519257    2.333976
     42          1           0        1.014649   -0.878571    3.216542
     43          1           0        2.064312   -1.981760    2.298623
     44          8           0        1.940720   -2.425192   -0.237923
     45          6           0        0.001959   -2.597520    2.472267
     46          7           0        0.210919   -3.699264    1.720020
     47          1           0       -0.500604   -4.417166    1.701047
     48          1           0        0.948451   -3.690137    1.017883
     49          8           0       -0.982661   -2.475276    3.215462
     50          7           0        0.659946   -0.849598   -1.316018
     51          1           0        0.052348   -0.036957   -1.206920
     52          6           0        0.724862   -1.201013   -2.726880
     53          1           0        1.757081   -1.092182   -3.087479
     54          6           0       -0.170383   -0.119658   -3.443136
     55          6           0        0.278925   -2.665281   -2.972071
     56          1           0        0.779445   -3.268782   -2.210105
     57          1           0       -0.801237   -2.753423   -2.791173
     58          8           0       -0.148118   -0.099115   -4.711340
     59          6           0        0.653297   -3.230103   -4.357654
     60          1           0        1.589751   -2.764561   -4.689150
     61          1           0        0.863367   -4.303807   -4.272530
     62          6           0       -0.423031   -3.021289   -5.438499
     63          1           0       -1.223144   -3.761542   -5.346868
     64          1           0       -0.873155   -2.032072   -5.347287
     65          7           0        0.109478   -3.148212   -6.807434
     66          1           0        0.260424   -4.085826   -7.156977
     67          7           0        0.989527   -0.993011   -6.866723
     68          1           0        1.359403   -0.242068   -7.434168
     69          1           0        0.615866   -0.710630   -5.897706
     70          7           0        1.333118   -2.461446   -8.648002
     71          1           0        1.783196   -1.721414   -9.167732
     72          1           0        0.893360   -3.173587   -9.214376
     73          6           0        0.800403   -2.174461   -7.426299
     74          8           0       -0.845566    0.625523   -2.704678
     75          1           0       -2.456670   -0.883044    7.424473
 ---------------------------------------------------------------------

 SCF Done:  E(RB3LYP) =  -1917.34669942     A.U. after    1 cycles

 Alpha  occ. eigenvalues --  -19.37289 -19.22416 -19.19296 -19.18771 -19.17566
 Alpha  occ. eigenvalues --  -19.14676 -19.14335 -14.52997 -14.47925 -14.47563
 Alpha  occ. eigenvalues --  -14.46812 -14.46071 -14.45192 -14.42670 -14.42269
 Alpha  occ. eigenvalues --  -14.40591 -10.48682 -10.43400 -10.39463 -10.36510
 Alpha  occ. eigenvalues --  -10.36236 -10.35726 -10.34816 -10.33216 -10.32606
 Alpha  occ. eigenvalues --  -10.30952 -10.30476 -10.30428 -10.27824 -10.26450
 Alpha  occ. eigenvalues --  -10.26180 -10.25470 -10.24936 -10.24802 -10.24081
 Alpha  occ. eigenvalues --  -10.23924 -10.23688 -10.23618 -10.23269  -1.26991
 Alpha  occ. eigenvalues --   -1.14452  -1.11932  -1.10694  -1.10365  -1.10175
 Alpha  occ. eigenvalues --   -1.08980  -1.07707  -1.02774  -1.02346  -1.01496
 Alpha  occ. eigenvalues --   -1.00294  -0.99780  -0.98877  -0.97453  -0.96688
 Alpha  occ. eigenvalues --   -0.91783  -0.90539  -0.86749  -0.86337  -0.84440
 Alpha  occ. eigenvalues --   -0.82403  -0.80954  -0.79354  -0.79056  -0.76468
 Alpha  occ. eigenvalues --   -0.75892  -0.74763  -0.74056  -0.72456  -0.70818
 Alpha  occ. eigenvalues --   -0.69696  -0.69195  -0.69176  -0.67658  -0.66276
 Alpha  occ. eigenvalues --   -0.65728  -0.65255  -0.65081  -0.64850  -0.63579
 Alpha  occ. eigenvalues --   -0.62636  -0.61868  -0.61474  -0.61013  -0.60655
 Alpha  occ. eigenvalues --   -0.60136  -0.59564  -0.58885  -0.57515  -0.57094
 Alpha  occ. eigenvalues --   -0.56587  -0.55883  -0.55537  -0.55256  -0.54715
 Alpha  occ. eigenvalues --   -0.54649  -0.53428  -0.53030  -0.52671  -0.52421
 Alpha  occ. eigenvalues --   -0.51919  -0.51539  -0.50670  -0.50167  -0.50048
 Alpha  occ. eigenvalues --   -0.49482  -0.48992  -0.48772  -0.48425  -0.47862
 Alpha  occ. eigenvalues --   -0.47469  -0.47136  -0.46719  -0.46667  -0.46197
 Alpha  occ. eigenvalues --   -0.46011  -0.45772  -0.45146  -0.44615  -0.44264
 Alpha  occ. eigenvalues --   -0.43832  -0.43523  -0.42859  -0.42693  -0.42029
 Alpha  occ. eigenvalues --   -0.40741  -0.40575  -0.40021  -0.39681  -0.38967
 Alpha  occ. eigenvalues --   -0.38703  -0.38234  -0.37121  -0.36297  -0.35910
 Alpha  occ. eigenvalues --   -0.34524  -0.34046  -0.33015  -0.31853  -0.31409
 Alpha  occ. eigenvalues --   -0.30571  -0.29816  -0.29758  -0.29128  -0.28956
 Alpha  occ. eigenvalues --   -0.28728
 Alpha virt. eigenvalues --   -0.16191  -0.09820  -0.08736  -0.07793  -0.05633
 Alpha virt. eigenvalues --   -0.05358  -0.04996  -0.04821  -0.04791  -0.04505
 Alpha virt. eigenvalues --   -0.03941  -0.03102  -0.01251  -0.00621  -0.00007

 Mulliken charges:
               1
     1  N   -0.776342
     2  H    0.350801
     3  H    0.369466
     4  C   -0.083712
     5  H    0.174469
     6  C    0.636821
     7  C   -0.412276
     8  H    0.311937
     9  H    0.207902
    10  O   -0.529318
    11  C    0.624276
    12  N   -0.702096
    13  H    0.442283
    14  H    0.371321
    15  O   -0.515464
    16  N   -0.589530
    17  H    0.337401
    18  C   -0.084027
    19  H    0.227944
    20  C    0.608849
    21  C   -0.384725
    22  H    0.149855
    23  H    0.206089
    24  O   -0.498496
    25  C    0.169075
    26  C   -0.199470
    27  H    0.184041
    28  C   -0.196625
    29  H    0.109040
    30  C   -0.134092
    31  H    0.139023
    32  C   -0.130150
    33  H    0.131749
    34  C   -0.129055
    35  H    0.135221
    36  N   -0.645681
    37  H    0.373361
    38  C   -0.072578
    39  H    0.218239
    40  C    0.613849
    41  C   -0.345385
    42  H    0.163208
    43  H    0.191638
    44  O   -0.570825
    45  C    0.574408
    46  N   -0.734098
    47  H    0.337404
    48  H    0.387136
    49  O   -0.552843
    50  N   -0.631404
    51  H    0.381728
    52  C   -0.036393
    53  H    0.155698
    54  C    0.601616
    55  C   -0.284473
    56  H    0.178038
    57  H    0.141509
    58  O   -0.616459
    59  C   -0.271052
    60  H    0.152933
    61  H    0.142979
    62  C   -0.191891
    63  H    0.167648
    64  H    0.227283
    65  N   -0.592225
    66  H    0.348105
    67  N   -0.776261
    68  H    0.352298
    69  H    0.451911
    70  N   -0.763814
    71  H    0.365228
    72  H    0.364730
    73  C    0.787442
    74  O   -0.561528
    75  H    0.446334
 Sum of Mulliken charges =   1.00000

 Dipole moment (field-independent basis, Debye):
    X=            -12.3505    Y=            -11.0534    Z=              2.3577  Tot=             16.7413
 Quadrupole moment (field-independent basis, Debye-Ang):
   XX=           -161.0384   YY=           -189.7195   ZZ=             65.2653
   XY=              6.3657   XZ=            -99.2353   YZ=             38.3817

 Normal termination of Gaussian 16 at Tue Jun  7 03:42:15 2022.
