 Gaussian 16, Revision C.01,
 Gaussian 16:  ES64L-G16RevC.01  3-Jul-2019

 -------------------------------------------------------------------
 # B3LYP/6-31G* guess=read geom=check nosymm integral(ultrafinegrid)
 -------------------------------------------------------------------

 ------------------------------------------------------
 Candidate Structure: Conf:448 Charge calc in gas phase
 ------------------------------------------------------
 Structure from the checkpoint file:  "conf-448.chk"
 Charge =  1 Multiplicity = 1

                          Input orientation:
 ---------------------------------------------------------------------
 Center     Atomic      Atomic             Coordinates (Angstroms)
 Number     Number       Type             X           Y           Z
 ---------------------------------------------------------------------
      1          7           0       -3.875473   -2.151196    4.194251
      2          1           0       -3.065199   -2.726764    3.974035
      3          1           0       -4.182693   -2.361999    5.140344
      4          6           0       -3.565492   -0.750222    4.016606
      5          1           0       -4.482031   -0.169946    4.158164
      6          6           0       -3.033781   -0.556558    2.586853
      7          6           0       -2.477887   -0.177322    5.030057
      8          1           0       -2.990303    0.182388    5.928454
      9          1           0       -1.795447   -0.980436    5.319348
     10          8           0       -1.961155   -1.058936    2.250879
     11          6           0       -1.720565    0.947913    4.396631
     12          7           0       -0.428499    0.894112    4.211084
     13          1           0        0.064734    0.059654    4.504922
     14          1           0        0.131278    1.583364    3.646321
     15          8           0       -2.445417    1.930981    3.949627
     16          7           0       -3.737973    0.276263    1.783049
     17          1           0       -4.655391    0.596690    2.064787
     18          6           0       -3.234536    0.700402    0.487976
     19          1           0       -3.076972   -0.179609   -0.146439
     20          6           0       -1.892352    1.436793    0.654989
     21          6           0       -4.247162    1.663068   -0.188315
     22          1           0       -4.264026    2.597426    0.384696
     23          1           0       -3.853116    1.906239   -1.181779
     24          8           0       -1.674797    2.257059    1.574434
     25          6           0       -5.645469    1.090338   -0.293126
     26          6           0       -5.933999    0.057508   -1.196706
     27          1           0       -5.152428   -0.321813   -1.851789
     28          6           0       -6.673283    1.572728    0.528273
     29          1           0       -6.473500    2.395091    1.213209
     30          6           0       -7.216628   -0.482401   -1.272265
     31          1           0       -7.425641   -1.278608   -1.981079
     32          6           0       -7.960033    1.032382    0.454706
     33          1           0       -8.747104    1.423748    1.093092
     34          6           0       -8.233029    0.002207   -0.444261
     35          1           0       -9.232849   -0.417423   -0.506544
     36          7           0       -0.979093    1.226675   -0.292437
     37          1           0       -1.114572    0.571948   -1.061294
     38          6           0        0.323154    1.869597   -0.288473
     39          1           0        0.186818    2.928968   -0.052341
     40          6           0        0.890007    1.689425   -1.711773
     41          6           0        1.299403    1.210957    0.757872
     42          1           0        2.111194    0.695091    0.234747
     43          1           0        0.740255    0.460196    1.319483
     44          8           0        0.434492    0.819266   -2.452153
     45          6           0        1.879355    2.212355    1.753473
     46          7           0        2.971187    2.884039    1.352555
     47          1           0        3.362591    3.555696    2.001475
     48          1           0        3.490921    2.693066    0.485943
     49          8           0        1.356120    2.421715    2.861182
     50          7           0        1.921585    2.508191   -2.006283
     51          1           0        2.301962    3.080750   -1.257189
     52          6           0        2.949929    2.181103   -2.995496
     53          1           0        2.727571    1.185195   -3.388473
     54          6           0        4.315741    2.160341   -2.246058
     55          6           0        2.943095    3.211736   -4.158228
     56          1           0        1.897344    3.503313   -4.305294
     57          1           0        3.469813    4.122993   -3.842271
     58          8           0        5.273253    1.636028   -2.886339
     59          6           0        3.468592    2.734467   -5.525449
     60          1           0        2.981764    1.786726   -5.789852
     61          1           0        3.136637    3.457602   -6.284988
     62          6           0        4.978111    2.511867   -5.687612
     63          1           0        5.328124    1.794115   -4.948995
     64          1           0        5.180482    2.121865   -6.692791
     65          7           0        5.750771    3.760000   -5.531772
     66          1           0        5.469940    4.535269   -6.119502
     67          7           0        7.189943    3.168652   -3.784239
     68          1           0        8.085579    3.310365   -3.338485
     69          1           0        6.493485    2.513373   -3.314474
     70          7           0        7.575365    5.083958   -5.050323
     71          1           0        8.334728    5.345780   -4.438993
     72          1           0        7.612404    5.448638   -5.991312
     73          6           0        6.839456    3.972933   -4.776211
     74          8           0        4.368817    2.700601   -1.117201
     75          1           0       -2.128447    2.248749    3.017102
 ---------------------------------------------------------------------

 SCF Done:  E(RB3LYP) =  -1917.37644754     A.U. after    1 cycles

 Alpha  occ. eigenvalues --  -19.29340 -19.23485 -19.21483 -19.20786 -19.20111
 Alpha  occ. eigenvalues --  -19.16771 -19.16581 -14.48861 -14.48621 -14.48326
 Alpha  occ. eigenvalues --  -14.46439 -14.46014 -14.45856 -14.43170 -14.43143
 Alpha  occ. eigenvalues --  -14.41310 -10.44225 -10.43963 -10.39925 -10.38424
 Alpha  occ. eigenvalues --  -10.38077 -10.37124 -10.34728 -10.33815 -10.33540
 Alpha  occ. eigenvalues --  -10.33315 -10.31474 -10.30944 -10.29240 -10.28949
 Alpha  occ. eigenvalues --  -10.28847 -10.27653 -10.27350 -10.26548 -10.26497
 Alpha  occ. eigenvalues --  -10.26344 -10.26207 -10.26140 -10.25953  -1.20387
 Alpha  occ. eigenvalues --   -1.14847  -1.13285  -1.12524  -1.12025  -1.11859
 Alpha  occ. eigenvalues --   -1.10003  -1.05142  -1.02910  -1.02505  -1.02041
 Alpha  occ. eigenvalues --   -1.01923  -1.00060  -0.99699  -0.98893  -0.98289
 Alpha  occ. eigenvalues --   -0.93118  -0.88966  -0.88013  -0.87629  -0.86440
 Alpha  occ. eigenvalues --   -0.82385  -0.82129  -0.81676  -0.78276  -0.77581
 Alpha  occ. eigenvalues --   -0.76017  -0.74300  -0.73736  -0.72427  -0.70397
 Alpha  occ. eigenvalues --   -0.70052  -0.68912  -0.68378  -0.67982  -0.67718
 Alpha  occ. eigenvalues --   -0.67454  -0.66064  -0.65904  -0.65691  -0.65345
 Alpha  occ. eigenvalues --   -0.63588  -0.62573  -0.62020  -0.61587  -0.60912
 Alpha  occ. eigenvalues --   -0.60332  -0.59798  -0.59422  -0.58232  -0.57537
 Alpha  occ. eigenvalues --   -0.56578  -0.56226  -0.55813  -0.55238  -0.54872
 Alpha  occ. eigenvalues --   -0.54510  -0.54190  -0.53901  -0.53575  -0.53241
 Alpha  occ. eigenvalues --   -0.52628  -0.52522  -0.51918  -0.51618  -0.51211
 Alpha  occ. eigenvalues --   -0.50661  -0.50083  -0.49739  -0.49374  -0.49221
 Alpha  occ. eigenvalues --   -0.48493  -0.48127  -0.47841  -0.47740  -0.47439
 Alpha  occ. eigenvalues --   -0.47113  -0.46904  -0.46624  -0.46162  -0.45872
 Alpha  occ. eigenvalues --   -0.45080  -0.44742  -0.44504  -0.43517  -0.42935
 Alpha  occ. eigenvalues --   -0.42530  -0.42059  -0.41593  -0.41317  -0.41071
 Alpha  occ. eigenvalues --   -0.39178  -0.38177  -0.36614  -0.36491  -0.35676
 Alpha  occ. eigenvalues --   -0.35390  -0.35307  -0.34921  -0.34626  -0.33836
 Alpha  occ. eigenvalues --   -0.32986  -0.32513  -0.32337  -0.31844  -0.30958
 Alpha  occ. eigenvalues --   -0.30423
 Alpha virt. eigenvalues --   -0.13169  -0.09736  -0.08628  -0.08308  -0.07738
 Alpha virt. eigenvalues --   -0.07225  -0.06289  -0.05335  -0.05259  -0.02927
 Alpha virt. eigenvalues --   -0.02527  -0.01247  -0.00803  -0.00155   0.00144

 Mulliken charges:
               1
     1  N   -0.703120
     2  H    0.326532
     3  H    0.320823
     4  C   -0.034699
     5  H    0.164684
     6  C    0.614807
     7  C   -0.354123
     8  H    0.209539
     9  H    0.170779
    10  O   -0.544335
    11  C    0.597373
    12  N   -0.708515
    13  H    0.373549
    14  H    0.447671
    15  O   -0.579494
    16  N   -0.601996
    17  H    0.352503
    18  C   -0.021273
    19  H    0.182074
    20  C    0.674926
    21  C   -0.403719
    22  H    0.175283
    23  H    0.180439
    24  O   -0.613881
    25  C    0.167846
    26  C   -0.175477
    27  H    0.133825
    28  C   -0.209582
    29  H    0.133762
    30  C   -0.124893
    31  H    0.150675
    32  C   -0.124277
    33  H    0.148490
    34  C   -0.125533
    35  H    0.151329
    36  N   -0.599938
    37  H    0.371528
    38  C   -0.039518
    39  H    0.201250
    40  C    0.589225
    41  C   -0.381843
    42  H    0.195877
    43  H    0.193342
    44  O   -0.525598
    45  C    0.594471
    46  N   -0.763312
    47  H    0.349569
    48  H    0.419522
    49  O   -0.554966
    50  N   -0.590162
    51  H    0.337170
    52  C   -0.072107
    53  H    0.183099
    54  C    0.600235
    55  C   -0.264088
    56  H    0.165111
    57  H    0.138253
    58  O   -0.600167
    59  C   -0.285891
    60  H    0.170264
    61  H    0.138863
    62  C   -0.165977
    63  H    0.233417
    64  H    0.167755
    65  N   -0.599681
    66  H    0.346191
    67  N   -0.768927
    68  H    0.352679
    69  H    0.447959
    70  N   -0.763932
    71  H    0.367832
    72  H    0.366146
    73  C    0.782145
    74  O   -0.578060
    75  H    0.490269
 Sum of Mulliken charges =   1.00000

 Dipole moment (field-independent basis, Debye):
    X=              7.2293    Y=             12.5483    Z=             -3.6970  Tot=             14.9462
 Quadrupole moment (field-independent basis, Debye-Ang):
   XX=            -47.4856   YY=           -164.4161   ZZ=            -93.1028
   XY=             86.4156   XZ=           -109.3687   YZ=            -72.2566

 Normal termination of Gaussian 16 at Tue Jun  7 03:34:24 2022.
