 Gaussian 16, Revision C.01,
 Gaussian 16:  ES64L-G16RevC.01  3-Jul-2019

 -------------------------------------------------------------------
 # B3LYP/6-31G* guess=read geom=check nosymm integral(ultrafinegrid)
 -------------------------------------------------------------------

 ------------------------------------------------------
 Candidate Structure: Conf:364 Charge calc in gas phase
 ------------------------------------------------------
 Structure from the checkpoint file:  "conf-364.chk"
 Charge =  1 Multiplicity = 1

                          Input orientation:
 ---------------------------------------------------------------------
 Center     Atomic      Atomic             Coordinates (Angstroms)
 Number     Number       Type             X           Y           Z
 ---------------------------------------------------------------------
      1          7           0       -3.535039   -2.199749    3.583740
      2          1           0       -2.812026   -2.800156    3.192533
      3          1           0       -3.786993   -2.545117    4.506349
      4          6           0       -3.089245   -0.824652    3.615371
      5          1           0       -3.921777   -0.196458    3.945470
      6          6           0       -2.663079   -0.429085    2.191698
      7          6           0       -1.865316   -0.546674    4.596793
      8          1           0       -2.259534   -0.307698    5.590024
      9          1           0       -1.253409   -1.448756    4.675675
     10          8           0       -1.689906   -0.966301    1.662239
     11          6           0       -1.043792    0.597700    4.091179
     12          7           0        0.212936    0.457260    3.765633
     13          1           0        0.635248   -0.457937    3.866185
     14          1           0        0.797783    1.181144    3.270938
     15          8           0       -1.691974    1.709344    3.896806
     16          7           0       -3.334224    0.599843    1.619972
     17          1           0       -4.177306    0.956360    2.051028
     18          6           0       -2.899778    1.200886    0.370814
     19          1           0       -2.899227    0.438950   -0.417487
     20          6           0       -1.473304    1.761934    0.520307
     21          6           0       -3.850712    2.363780   -0.020215
     22          1           0       -3.708264    3.177328    0.700413
     23          1           0       -3.521025    2.741898   -0.994851
     24          8           0       -1.089836    2.379935    1.536554
     25          6           0       -5.309893    1.960180   -0.068500
     26          6           0       -5.794913    1.133552   -1.092139
     27          1           0       -5.122924    0.796592   -1.878879
     28          6           0       -6.198836    2.393868    0.924181
     29          1           0       -5.845514    3.060877    1.708679
     30          6           0       -7.133481    0.746459   -1.118703
     31          1           0       -7.495325    0.109938   -1.921212
     32          6           0       -7.541417    2.006555    0.899977
     33          1           0       -8.218691    2.358748    1.672860
     34          6           0       -8.010288    1.180218   -0.120420
     35          1           0       -9.053906    0.880461   -0.144127
     36          7           0       -0.669366    1.634870   -0.536944
     37          1           0       -0.943902    1.147389   -1.387112
     38          6           0        0.692410    2.139863   -0.549183
     39          1           0        0.691203    3.142435   -0.111706
     40          6           0        1.124079    2.190704   -2.027075
     41          6           0        1.673871    1.209898    0.259778
     42          1           0        2.378805    0.728456   -0.425626
     43          1           0        1.083241    0.424776    0.735937
     44          8           0        0.522673    1.529147   -2.876784
     45          6           0        2.442472    1.954697    1.350059
     46          7           0        3.572961    2.564004    0.962650
     47          1           0        4.094754    3.065817    1.671114
     48          1           0        3.999039    2.459020    0.030496
     49          8           0        2.027432    2.022496    2.520140
     50          7           0        2.210125    2.952842   -2.260718
     51          1           0        2.705990    3.322590   -1.453910
     52          6           0        3.110241    2.743239   -3.392473
     53          1           0        2.762634    1.840098   -3.901076
     54          6           0        4.544672    2.458132   -2.840795
     55          6           0        3.116096    3.935309   -4.380485
     56          1           0        2.790038    4.827799   -3.835086
     57          1           0        4.146642    4.122850   -4.701146
     58          8           0        5.413110    2.186590   -3.718997
     59          6           0        2.230598    3.757854   -5.623153
     60          1           0        1.238174    3.382037   -5.339739
     61          1           0        2.068439    4.740275   -6.084426
     62          6           0        2.829926    2.869703   -6.725189
     63          1           0        2.313068    3.066589   -7.672135
     64          1           0        3.887322    3.101413   -6.876905
     65          7           0        2.734051    1.415172   -6.496644
     66          1           0        1.810777    1.007096   -6.571228
     67          7           0        4.939778    0.933852   -5.925374
     68          1           0        5.706246    0.278966   -6.025113
     69          1           0        5.050853    1.609478   -5.073377
     70          7           0        3.531272   -0.735470   -6.755462
     71          1           0        4.182949   -1.463308   -6.501137
     72          1           0        2.827695   -0.963294   -7.443003
     73          6           0        3.759001    0.549088   -6.386671
     74          8           0        4.723888    2.538199   -1.607204
     75          1           0       -1.415616    2.163660    3.013786
 ---------------------------------------------------------------------

 SCF Done:  E(RB3LYP) =  -1917.36872575     A.U. after    1 cycles

 Alpha  occ. eigenvalues --  -19.29867 -19.23940 -19.21987 -19.21063 -19.20991
 Alpha  occ. eigenvalues --  -19.16526 -19.16372 -14.49255 -14.49146 -14.48749
 Alpha  occ. eigenvalues --  -14.47047 -14.46519 -14.45530 -14.43965 -14.43164
 Alpha  occ. eigenvalues --  -14.41763 -10.44388 -10.44337 -10.40442 -10.38925
 Alpha  occ. eigenvalues --  -10.38267 -10.37944 -10.34485 -10.34369 -10.33998
 Alpha  occ. eigenvalues --  -10.33892 -10.32742 -10.31901 -10.29572 -10.29481
 Alpha  occ. eigenvalues --  -10.29279 -10.28172 -10.27489 -10.27034 -10.26902
 Alpha  occ. eigenvalues --  -10.26688 -10.26675 -10.26453 -10.26165  -1.20881
 Alpha  occ. eigenvalues --   -1.15370  -1.13781  -1.12766  -1.12675  -1.12122
 Alpha  occ. eigenvalues --   -1.09749  -1.05569  -1.03471  -1.03019  -1.02510
 Alpha  occ. eigenvalues --   -1.01931  -1.00484  -0.99771  -0.99347  -0.98410
 Alpha  occ. eigenvalues --   -0.93633  -0.89488  -0.88513  -0.88143  -0.86941
 Alpha  occ. eigenvalues --   -0.82878  -0.82568  -0.82191  -0.78726  -0.78058
 Alpha  occ. eigenvalues --   -0.76609  -0.74778  -0.73926  -0.72880  -0.70847
 Alpha  occ. eigenvalues --   -0.70085  -0.69386  -0.68855  -0.68325  -0.68195
 Alpha  occ. eigenvalues --   -0.67686  -0.66756  -0.66635  -0.66449  -0.65738
 Alpha  occ. eigenvalues --   -0.63915  -0.63002  -0.62519  -0.61738  -0.61156
 Alpha  occ. eigenvalues --   -0.60352  -0.60193  -0.59999  -0.58817  -0.58014
 Alpha  occ. eigenvalues --   -0.57809  -0.56709  -0.56312  -0.55756  -0.55141
 Alpha  occ. eigenvalues --   -0.54655  -0.54556  -0.54405  -0.53762  -0.53193
 Alpha  occ. eigenvalues --   -0.53179  -0.53043  -0.52931  -0.51985  -0.51115
 Alpha  occ. eigenvalues --   -0.50905  -0.50410  -0.49987  -0.49741  -0.49232
 Alpha  occ. eigenvalues --   -0.49096  -0.48695  -0.48236  -0.47997  -0.47571
 Alpha  occ. eigenvalues --   -0.47474  -0.47291  -0.46975  -0.46690  -0.46440
 Alpha  occ. eigenvalues --   -0.45579  -0.45274  -0.44905  -0.43815  -0.43447
 Alpha  occ. eigenvalues --   -0.42966  -0.42402  -0.42102  -0.41833  -0.41708
 Alpha  occ. eigenvalues --   -0.39657  -0.38638  -0.37121  -0.36817  -0.36117
 Alpha  occ. eigenvalues --   -0.35815  -0.35766  -0.35211  -0.35141  -0.34485
 Alpha  occ. eigenvalues --   -0.33442  -0.32850  -0.32355  -0.31980  -0.30749
 Alpha  occ. eigenvalues --   -0.30564
 Alpha virt. eigenvalues --   -0.13582  -0.10234  -0.09764  -0.08805  -0.08248
 Alpha virt. eigenvalues --   -0.07725  -0.06790  -0.05881  -0.05503  -0.03353
 Alpha virt. eigenvalues --   -0.01729  -0.01316  -0.01258  -0.00564  -0.00263

 Mulliken charges:
               1
     1  N   -0.703051
     2  H    0.325777
     3  H    0.321590
     4  C   -0.035952
     5  H    0.165512
     6  C    0.615531
     7  C   -0.354093
     8  H    0.211074
     9  H    0.170966
    10  O   -0.545988
    11  C    0.597673
    12  N   -0.708293
    13  H    0.373544
    14  H    0.449062
    15  O   -0.578090
    16  N   -0.601070
    17  H    0.352883
    18  C   -0.020874
    19  H    0.178101
    20  C    0.675735
    21  C   -0.403714
    22  H    0.177259
    23  H    0.178477
    24  O   -0.609926
    25  C    0.168147
    26  C   -0.174710
    27  H    0.129248
    28  C   -0.209485
    29  H    0.135560
    30  C   -0.124740
    31  H    0.149385
    32  C   -0.124088
    33  H    0.150203
    34  C   -0.125446
    35  H    0.152280
    36  N   -0.601115
    37  H    0.366535
    38  C   -0.039042
    39  H    0.205362
    40  C    0.590994
    41  C   -0.381576
    42  H    0.193276
    43  H    0.191293
    44  O   -0.547795
    45  C    0.593251
    46  N   -0.763550
    47  H    0.352747
    48  H    0.426373
    49  O   -0.556137
    50  N   -0.582821
    51  H    0.338875
    52  C   -0.086508
    53  H    0.162294
    54  C    0.612145
    55  C   -0.277047
    56  H    0.160302
    57  H    0.172071
    58  O   -0.596312
    59  C   -0.278560
    60  H    0.160241
    61  H    0.161148
    62  C   -0.155774
    63  H    0.174749
    64  H    0.197348
    65  N   -0.585862
    66  H    0.353557
    67  N   -0.757452
    68  H    0.349546
    69  H    0.440271
    70  N   -0.757241
    71  H    0.370649
    72  H    0.366901
    73  C    0.751205
    74  O   -0.572522
    75  H    0.489693
 Sum of Mulliken charges =   1.00000

 Dipole moment (field-independent basis, Debye):
    X=             -2.6712    Y=              0.2682    Z=             -8.0851  Tot=              8.5192
 Quadrupole moment (field-independent basis, Debye-Ang):
   XX=           -175.8224   YY=           -206.7640   ZZ=            -54.3436
   XY=            -17.4231   XZ=            -61.7765   YZ=             -8.3454

 Normal termination of Gaussian 16 at Tue Jun  7 03:34:04 2022.
