 Gaussian 16, Revision C.01,
 Gaussian 16:  ES64L-G16RevC.01  3-Jul-2019

 ----------------------------------------------------------------------
 # B3LYP/6-31G* empiricaldispersion=gd3 guess=read geom=check nosymm in
 tegral(ultrafinegrid)
 ----------------------------------------------------------------------

 ------------------------------------------------------
 Candidate Structure: Conf:684 Charge calc in gas phase
 ------------------------------------------------------
 Structure from the checkpoint file:  "conf-684.chk"
 Charge =  1 Multiplicity = 1

                          Input orientation:
 ---------------------------------------------------------------------
 Center     Atomic      Atomic             Coordinates (Angstroms)
 Number     Number       Type             X           Y           Z
 ---------------------------------------------------------------------
      1          7           0       -4.772540    0.078598   10.103673
      2          1           0       -4.901238   -0.792628   10.620291
      3          1           0       -4.955485    0.884105   10.702952
      4          1           0       -3.806881    0.098123    9.756022
      5          6           0       -5.620135    0.126363    8.900209
      6          1           0       -6.572521   -0.372982    9.096485
      7          6           0       -4.865283   -0.579126    7.780134
      8          6           0       -5.902995    1.576956    8.493257
      9          1           0       -6.460924    1.573330    7.555425
     10          1           0       -4.949542    2.075321    8.299569
     11          8           0       -3.647820   -0.658573    7.800514
     12          6           0       -6.664827    2.319635    9.558899
     13          6           0       -7.992066    1.994073    9.833823
     14          1           0       -8.471353    1.216943    9.249025
     15          6           0       -6.045056    3.297556   10.330527
     16          1           0       -5.005618    3.547525   10.141070
     17          6           0       -8.695436    2.653523   10.836909
     18          1           0       -9.730366    2.390605   11.024623
     19          6           0       -6.736384    3.950869   11.347079
     20          1           0       -6.232108    4.706500   11.937989
     21          6           0       -8.067209    3.632916   11.600439
     22          1           0       -8.610002    4.143776   12.387533
     23          7           0       -5.629290   -1.081581    6.764469
     24          1           0       -6.566628   -0.718368    6.695045
     25          6           0       -5.012852   -1.314677    5.468719
     26          1           0       -3.958380   -1.508891    5.660057
     27          6           0       -5.153110   -0.034325    4.630362
     28          6           0       -5.654700   -2.496474    4.756067
     29          1           0       -5.162649   -2.680919    3.797780
     30          1           0       -6.713496   -2.300221    4.565106
     31          1           0       -5.572230   -3.394274    5.369709
     32          8           0       -6.057522    0.766201    4.808158
     33          7           0       -4.235614    0.117534    3.649781
     34          1           0       -3.499454   -0.548524    3.481650
     35          6           0       -4.289185    1.239833    2.746041
     36          1           0       -5.320587    1.380626    2.417602
     37          6           0       -3.408962    0.871189    1.557590
     38          6           0       -3.802402    2.532947    3.402496
     39          1           0       -3.789690    3.344369    2.670393
     40          1           0       -2.787039    2.400057    3.784048
     41          1           0       -4.457739    2.795715    4.230019
     42          8           0       -2.521169    0.039648    1.651814
     43          7           0       -3.664973    1.553635    0.412980
     44          1           0       -4.301839    2.324672    0.454191
     45          6           0       -2.709977    1.552849   -0.680614
     46          1           0       -2.651106    0.535665   -1.069599
     47          6           0       -1.344392    1.982154   -0.149021
     48          6           0       -3.183095    2.511831   -1.782961
     49          1           0       -3.170759    3.526327   -1.384985
     50          1           0       -2.469616    2.472164   -2.608439
     51          8           0       -1.227420    2.856767    0.708537
     52          6           0       -4.549214    2.183503   -2.265432
     53          6           0       -4.780037    1.005190   -2.998109
     54          1           0       -3.933375    0.359977   -3.215649
     55          6           0       -5.638769    3.019135   -1.958589
     56          1           0       -5.459691    3.922352   -1.380395
     57          6           0       -6.026159    0.663466   -3.443295
     58          1           0       -6.209126   -0.237851   -4.013681
     59          6           0       -6.909667    2.726615   -2.364147
     60          1           0       -7.754803    3.361517   -2.132392
     61          8           0       -8.305295    1.232859   -3.521766
     62          6           0       -7.171906    1.517807   -3.140471
     63          7           0       -0.295609    1.320043   -0.703908
     64          1           0       -0.410989    0.800010   -1.559278
     65          6           0        1.075478    1.598192   -0.341539
     66          1           0        1.062680    2.446708    0.339231
     67          6           0        1.815554    1.952047   -1.623325
     68          6           0        1.742852    0.395298    0.324543
     69          1           0        1.851630   -0.394386   -0.421986
     70          1           0        2.753050    0.680910    0.631079
     71          8           0        1.569044    1.366389   -2.674633
     72          6           0        1.001292   -0.168318    1.540527
     73          1           0        0.010784   -0.489078    1.214236
     74          6           0        1.745810   -1.390283    2.071056
     75          1           0        2.749307   -1.107768    2.399075
     76          1           0        1.220865   -1.830629    2.921881
     77          1           0        1.842662   -2.156636    1.298725
     78          6           0        0.835159    0.878174    2.638481
     79          1           0        1.814180    1.177960    3.025391
     80          1           0        0.319987    1.768829    2.279770
     81          1           0        0.251402    0.469759    3.467664
     82          7           0        2.765803    2.907487   -1.526317
     83          1           0        3.026909    3.254821   -0.619496
     84          6           0        3.612623    3.267500   -2.662057
     85          1           0        2.959236    3.264771   -3.537845
     86          6           0        4.703318    2.207095   -2.830359
     87          6           0        4.199009    4.657163   -2.448454
     88          1           0        3.367865    5.316315   -2.194786
     89          1           0        4.879228    4.637690   -1.596553
     90          8           0        5.833825    2.336204   -2.383411
     91          6           0        4.919296    5.191444   -3.689122
     92          1           0        4.258066    5.206145   -4.553610
     93          1           0        5.768972    4.545323   -3.928868
     94          6           0        5.442803    6.585949   -3.489908
     95          8           0        5.250204    7.520083   -4.224952
     96          8           0        6.201310    6.684187   -2.373717
     97          7           0        4.322573    1.083611   -3.498258
     98          1           0        3.330935    0.906976   -3.601844
     99          6           0        5.233690   -0.043253   -3.520512
    100          1           0        5.542228   -0.282006   -2.495799
    101          6           0        6.525393    0.266824   -4.250624
    102          6           0        4.568865   -1.287434   -4.118764
    103          1           0        3.673042   -1.495409   -3.525218
    104          1           0        5.249584   -2.131245   -3.970298
    105          8           0        7.548083   -0.344715   -4.061273
    106          6           0        4.206024   -1.179617   -5.591549
    107          1           0        5.105243   -1.013728   -6.185492
    108          1           0        3.553883   -0.322705   -5.757862
    109          6           0        3.519464   -2.438715   -6.090484
    110          1           0        2.619817   -2.639331   -5.496516
    111          1           0        4.193937   -3.290125   -5.962898
    112          7           0        3.183637   -2.290137   -7.519144
    113          1           0        2.920212   -1.354721   -7.792254
    114          7           0        2.353781   -4.473162   -7.660167
    115          1           0        2.162054   -5.257991   -8.260993
    116          1           0        2.808347   -4.683744   -6.788216
    117          7           0        2.105106   -2.974978   -9.450277
    118          1           0        1.843346   -3.752986  -10.035429
    119          1           0        2.564180   -2.219705   -9.940440
    120          6           0        2.562386   -3.261964   -8.207915
    121          8           0        6.416430    1.245653   -5.172969
    122          1           0        6.509993    7.597930   -2.335024
    123          1           0        7.292672    1.334196   -5.568124
 ---------------------------------------------------------------------

 SCF Done:  E(RB3LYP) =  -2974.04527412     A.U. after    3 cycles

 Alpha  occ. eigenvalues --  -19.26103 -19.25227 -19.23747 -19.20133 -19.19359
 Alpha  occ. eigenvalues --  -19.18864 -19.18353 -19.18029 -19.16643 -19.15246
 Alpha  occ. eigenvalues --  -19.03442 -14.60855 -14.50985 -14.50484 -14.50334
 Alpha  occ. eigenvalues --  -14.47202 -14.43894 -14.42325 -14.42096 -14.40239
 Alpha  occ. eigenvalues --  -14.39525 -10.45187 -10.41829 -10.39653 -10.38443
 Alpha  occ. eigenvalues --  -10.36298 -10.35848 -10.35706 -10.35150 -10.34981
 Alpha  occ. eigenvalues --  -10.33073 -10.32503 -10.32242 -10.31896 -10.31271
 Alpha  occ. eigenvalues --  -10.30596 -10.30062 -10.29656 -10.29499 -10.29203
 Alpha  occ. eigenvalues --  -10.28967 -10.28889 -10.28850 -10.28599 -10.28434
 Alpha  occ. eigenvalues --  -10.28295 -10.26311 -10.26013 -10.25329 -10.25031
 Alpha  occ. eigenvalues --  -10.23849 -10.22819 -10.22685 -10.21714 -10.20669
 Alpha  occ. eigenvalues --  -10.20633 -10.18859 -10.16202 -10.16160 -10.15883
 Alpha  occ. eigenvalues --  -10.13985 -10.13661  -1.18666  -1.17383  -1.15300
 Alpha  occ. eigenvalues --   -1.15292  -1.15068  -1.11816  -1.11408  -1.10439
 Alpha  occ. eigenvalues --   -1.09125  -1.08106  -1.06996  -1.05912  -1.04900
 Alpha  occ. eigenvalues --   -1.04049  -1.04047  -1.00440  -0.99691  -0.99000
 Alpha  occ. eigenvalues --   -0.97353  -0.96983  -0.96649  -0.94408  -0.92918
 Alpha  occ. eigenvalues --   -0.91178  -0.87438  -0.87274  -0.85993  -0.85215
 Alpha  occ. eigenvalues --   -0.85043  -0.84738  -0.83563  -0.81617  -0.81393
 Alpha  occ. eigenvalues --   -0.79468  -0.79113  -0.78362  -0.77459  -0.76607
 Alpha  occ. eigenvalues --   -0.75048  -0.74373  -0.73860  -0.73564  -0.72450
 Alpha  occ. eigenvalues --   -0.72079  -0.71681  -0.71537  -0.71502  -0.71053
 Alpha  occ. eigenvalues --   -0.70873  -0.70248  -0.69161  -0.69089  -0.69046
 Alpha  occ. eigenvalues --   -0.67082  -0.66241  -0.65953  -0.65042  -0.64874
 Alpha  occ. eigenvalues --   -0.64566  -0.64104  -0.63763  -0.63252  -0.63144
 Alpha  occ. eigenvalues --   -0.62821  -0.62667  -0.61388  -0.61181  -0.60768
 Alpha  occ. eigenvalues --   -0.60156  -0.59535  -0.58460  -0.58210  -0.57510
 Alpha  occ. eigenvalues --   -0.57020  -0.56960  -0.56600  -0.56166  -0.56012
 Alpha  occ. eigenvalues --   -0.55989  -0.55271  -0.54951  -0.54562  -0.54066
 Alpha  occ. eigenvalues --   -0.53746  -0.53598  -0.53557  -0.53051  -0.52950
 Alpha  occ. eigenvalues --   -0.52814  -0.52676  -0.52108  -0.52066  -0.51957
 Alpha  occ. eigenvalues --   -0.51792  -0.51028  -0.50553  -0.50388  -0.50153
 Alpha  occ. eigenvalues --   -0.49645  -0.49579  -0.49412  -0.49268  -0.49096
 Alpha  occ. eigenvalues --   -0.48576  -0.48330  -0.48150  -0.47517  -0.47180
 Alpha  occ. eigenvalues --   -0.47018  -0.46521  -0.46366  -0.46093  -0.45702
 Alpha  occ. eigenvalues --   -0.45608  -0.45550  -0.45247  -0.45090  -0.44694
 Alpha  occ. eigenvalues --   -0.44613  -0.44526  -0.44364  -0.44232  -0.44127
 Alpha  occ. eigenvalues --   -0.43322  -0.43222  -0.43116  -0.42997  -0.42744
 Alpha  occ. eigenvalues --   -0.42446  -0.42441  -0.42269  -0.42114  -0.42047
 Alpha  occ. eigenvalues --   -0.41564  -0.41208  -0.40845  -0.40672  -0.40164
 Alpha  occ. eigenvalues --   -0.39831  -0.39615  -0.39352  -0.38159  -0.37876
 Alpha  occ. eigenvalues --   -0.37670  -0.37316  -0.36774  -0.36684  -0.36104
 Alpha  occ. eigenvalues --   -0.35528  -0.35514  -0.35073  -0.35040  -0.34683
 Alpha  occ. eigenvalues --   -0.34260  -0.33397  -0.32919  -0.32245  -0.32181
 Alpha  occ. eigenvalues --   -0.32095  -0.31702  -0.31493  -0.30834  -0.30599
 Alpha  occ. eigenvalues --   -0.30371  -0.29447  -0.28571  -0.27317  -0.22543
 Alpha  occ. eigenvalues --   -0.16939  -0.13351
 Alpha virt. eigenvalues --   -0.12511  -0.12441  -0.10869  -0.09876  -0.09767
 Alpha virt. eigenvalues --   -0.07477  -0.05796  -0.05549  -0.04886  -0.04809
 Alpha virt. eigenvalues --   -0.04254  -0.03942  -0.03219  -0.02865  -0.02609

 Mulliken charges:
               1
     1  N   -0.715916
     2  H    0.422653
     3  H    0.409148
     4  H    0.419533
     5  C   -0.144093
     6  H    0.213441
     7  C    0.627923
     8  C   -0.395654
     9  H    0.236533
    10  H    0.188923
    11  O   -0.507208
    12  C    0.146864
    13  C   -0.185110
    14  H    0.137852
    15  C   -0.215902
    16  H    0.140013
    17  C   -0.123045
    18  H    0.164000
    19  C   -0.122882
    20  H    0.161966
    21  C   -0.124512
    22  H    0.165546
    23  N   -0.567741
    24  H    0.345402
    25  C   -0.100335
    26  H    0.196626
    27  C    0.627508
    28  C   -0.449755
    29  H    0.183176
    30  H    0.172550
    31  H    0.170301
    32  O   -0.541965
    33  N   -0.610489
    34  H    0.350422
    35  C   -0.043258
    36  H    0.190709
    37  C    0.632210
    38  C   -0.443961
    39  H    0.170826
    40  H    0.162091
    41  H    0.165581
    42  O   -0.548621
    43  N   -0.586124
    44  H    0.343076
    45  C   -0.026097
    46  H    0.161098
    47  C    0.648396
    48  C   -0.408518
    49  H    0.152129
    50  H    0.138607
    51  O   -0.551954
    52  C    0.156300
    53  C   -0.172164
    54  H    0.061991
    55  C   -0.199700
    56  H    0.075769
    57  C   -0.214392
    58  H    0.089332
    59  C   -0.217062
    60  H    0.095536
    61  O   -0.600912
    62  C    0.413056
    63  N   -0.598865
    64  H    0.340727
    65  C   -0.075161
    66  H    0.184029
    67  C    0.638645
    68  C   -0.253985
    69  H    0.127198
    70  H    0.127472
    71  O   -0.566514
    72  C   -0.080127
    73  H    0.174318
    74  C   -0.440038
    75  H    0.136067
    76  H    0.142756
    77  H    0.131289
    78  C   -0.467399
    79  H    0.121126
    80  H    0.187190
    81  H    0.136334
    82  N   -0.605096
    83  H    0.346933
    84  C   -0.054706
    85  H    0.178855
    86  C    0.633123
    87  C   -0.297820
    88  H    0.163649
    89  H    0.188127
    90  O   -0.518595
    91  C   -0.350347
    92  H    0.172372
    93  H    0.197794
    94  C    0.563474
    95  O   -0.450842
    96  O   -0.558053
    97  N   -0.633835
    98  H    0.367390
    99  C   -0.008061
   100  H    0.195959
   101  C    0.608298
   102  C   -0.328543
   103  H    0.165586
   104  H    0.178887
   105  O   -0.465722
   106  C   -0.305409
   107  H    0.182227
   108  H    0.169187
   109  C   -0.153726
   110  H    0.183488
   111  H    0.176055
   112  N   -0.596095
   113  H    0.360753
   114  N   -0.736949
   115  H    0.369472
   116  H    0.381188
   117  N   -0.735515
   118  H    0.364913
   119  H    0.370720
   120  C    0.729312
   121  O   -0.565060
   122  H    0.414362
   123  H    0.417473
 Sum of Mulliken charges =   1.00000

 Dipole moment (field-independent basis, Debye):
    X=              6.1624    Y=            -14.5429    Z=             17.9689  Tot=             23.9239
 Quadrupole moment (field-independent basis, Debye-Ang):
   XX=           -374.3054   YY=           -305.5080   ZZ=            256.1083
   XY=             -6.2016   XZ=           -365.8815   YZ=            144.4715

 Normal termination of Gaussian 16 at Sun Aug  7 18:56:30 2022.
