 Gaussian 16, Revision C.01,
 Gaussian 16:  ES64L-G16RevC.01  3-Jul-2019

 ----------------------------------------------------------------------
 # B3LYP/6-31G* empiricaldispersion=gd3 guess=read geom=check nosymm in
 tegral(ultrafinegrid)
 ----------------------------------------------------------------------

 ------------------------------------------------------
 Candidate Structure: Conf:472 Charge calc in gas phase
 ------------------------------------------------------
 Structure from the checkpoint file:  "conf-472.chk"
 Charge =  1 Multiplicity = 1

                          Input orientation:
 ---------------------------------------------------------------------
 Center     Atomic      Atomic             Coordinates (Angstroms)
 Number     Number       Type             X           Y           Z
 ---------------------------------------------------------------------
      1          7           0       -9.084992    1.160354    8.939245
      2          1           0      -10.061480    0.860981    8.862377
      3          1           0       -8.975639    1.715171    9.792780
      4          1           0       -8.465678    0.293388    8.951530
      5          6           0       -8.573525    1.863628    7.695699
      6          1           0       -9.422178    2.275170    7.146244
      7          6           0       -7.875094    0.709499    6.932082
      8          6           0       -7.581916    2.978533    8.101711
      9          1           0       -6.802993    2.533525    8.733420
     10          1           0       -8.126479    3.714616    8.708516
     11          8           0       -7.541608   -0.285429    7.600846
     12          6           0       -6.960220    3.641218    6.891225
     13          6           0       -7.720243    4.508429    6.095393
     14          1           0       -8.739511    4.759199    6.384265
     15          6           0       -5.644982    3.342355    6.515756
     16          1           0       -5.048483    2.668610    7.126693
     17          6           0       -7.174361    5.063283    4.937613
     18          1           0       -7.771650    5.732167    4.325714
     19          6           0       -5.096852    3.902967    5.362096
     20          1           0       -4.075823    3.665808    5.078639
     21          6           0       -5.862261    4.760468    4.570382
     22          1           0       -5.437928    5.191318    3.668828
     23          7           0       -7.663461    0.892836    5.640776
     24          1           0       -7.900781    1.767520    5.163027
     25          6           0       -6.843966    0.012300    4.809530
     26          1           0       -5.926238   -0.228595    5.358566
     27          6           0       -6.510037    0.864963    3.564927
     28          6           0       -7.580209   -1.282547    4.438371
     29          1           0       -6.941074   -1.917707    3.817864
     30          1           0       -8.491616   -1.054375    3.877056
     31          1           0       -7.842059   -1.833831    5.345369
     32          8           0       -7.141474    1.902077    3.339965
     33          7           0       -5.536877    0.383088    2.783179
     34          1           0       -5.010888   -0.456699    3.014324
     35          6           0       -5.086800    1.041811    1.563807
     36          1           0       -5.963666    1.303878    0.961140
     37          6           0       -4.206020    0.019209    0.833229
     38          6           0       -4.267598    2.309468    1.873024
     39          1           0       -3.882326    2.763065    0.956375
     40          1           0       -3.404851    2.049290    2.493759
     41          1           0       -4.902950    3.023430    2.402412
     42          8           0       -3.697746   -0.917174    1.450052
     43          7           0       -4.011368    0.242841   -0.492476
     44          1           0       -4.284229    1.157650   -0.832688
     45          6           0       -2.815270   -0.307045   -1.127078
     46          1           0       -2.786496   -1.372357   -0.887710
     47          6           0       -1.585347    0.379781   -0.484944
     48          6           0       -2.868512   -0.129104   -2.661540
     49          1           0       -3.759527   -0.660881   -3.021306
     50          1           0       -3.013609    0.935880   -2.887614
     51          8           0       -1.671712    1.516487   -0.018132
     52          6           0       -1.598647   -0.622666   -3.315031
     53          6           0       -0.690511    0.264327   -3.907760
     54          1           0       -0.965028    1.312906   -4.014715
     55          6           0       -1.215583   -1.971789   -3.221986
     56          1           0       -1.912842   -2.699822   -2.805684
     57          6           0        0.559183   -0.155901   -4.350474
     58          1           0        1.235044    0.545250   -4.833200
     59          6           0        0.043882   -2.399470   -3.626962
     60          1           0        0.319991   -3.446812   -3.532880
     61          8           0        2.226150   -1.865003   -4.447156
     62          6           0        1.003125   -1.491572   -4.162656
     63          7           0       -0.466505   -0.378490   -0.430419
     64          1           0       -0.419781   -1.226750   -0.986257
     65          6           0        0.776388    0.075129    0.183118
     66          1           0        0.658660    1.143276    0.378102
     67          6           0        1.877405   -0.179239   -0.849954
     68          6           0        1.064402   -0.684091    1.491549
     69          1           0        1.261766   -1.731608    1.228029
     70          1           0        1.995569   -0.288550    1.922628
     71          8           0        2.092759   -1.322371   -1.265802
     72          6           0       -0.064910   -0.621238    2.537345
     73          1           0       -0.983406   -0.996978    2.066896
     74          6           0        0.275831   -1.539650    3.719835
     75          1           0        1.186997   -1.202550    4.231335
     76          1           0       -0.535828   -1.547156    4.456925
     77          1           0        0.439182   -2.573695    3.392275
     78          6           0       -0.339362    0.811184    3.020831
     79          1           0        0.563490    1.259339    3.457604
     80          1           0       -0.690413    1.451700    2.206390
     81          1           0       -1.114427    0.806927    3.797975
     82          7           0        2.557246    0.883396   -1.304215
     83          1           0        2.298602    1.800640   -0.966718
     84          6           0        3.420987    0.823410   -2.482632
     85          1           0        2.802276    0.548911   -3.339643
     86          6           0        4.582901   -0.186023   -2.363592
     87          6           0        4.013943    2.230612   -2.679587
     88          1           0        3.205837    2.934263   -2.910405
     89          1           0        4.466175    2.542272   -1.730559
     90          8           0        5.406455   -0.116257   -1.459385
     91          6           0        5.077408    2.301941   -3.772878
     92          1           0        4.757215    1.801588   -4.695412
     93          1           0        5.989899    1.791841   -3.455038
     94          6           0        5.436346    3.726831   -4.124523
     95          8           0        4.784518    4.713634   -3.861005
     96          8           0        6.609556    3.780347   -4.803325
     97          7           0        4.694895   -1.000889   -3.454877
     98          1           0        3.871817   -1.119590   -4.061132
     99          6           0        5.979302   -1.566617   -3.846411
    100          1           0        6.521858   -1.862996   -2.944921
    101          6           0        6.762851   -0.451305   -4.560626
    102          6           0        5.884993   -2.726391   -4.856538
    103          1           0        6.886836   -2.821332   -5.292344
    104          1           0        5.236399   -2.412975   -5.683229
    105          8           0        6.446998    0.013199   -5.634135
    106          6           0        5.479107   -4.123499   -4.349463
    107          1           0        5.877598   -4.284196   -3.337591
    108          1           0        5.976297   -4.858892   -4.994823
    109          6           0        3.975441   -4.453124   -4.387478
    110          1           0        3.825446   -5.539694   -4.441065
    111          1           0        3.522012   -4.025459   -5.286286
    112          7           0        3.208119   -3.907139   -3.275441
    113          1           0        2.687648   -2.987335   -3.569071
    114          7           0        3.746670   -5.673721   -1.849520
    115          1           0        3.688596   -6.085132   -0.930741
    116          1           0        4.539225   -5.945070   -2.408585
    117          7           0        2.240532   -4.040578   -1.168786
    118          1           0        2.430439   -4.313095   -0.213555
    119          1           0        1.957315   -3.058114   -1.255567
    120          6           0        3.092529   -4.506772   -2.112335
    121          8           0        7.829568   -0.019547   -3.854152
    122          1           0        6.758054    4.719301   -5.023923
    123          1           0        8.230715    0.703952   -4.375865
 ---------------------------------------------------------------------

 SCF Done:  E(RB3LYP) =  -2974.19322695     A.U. after    1 cycles

 Alpha  occ. eigenvalues --  -19.26539 -19.23908 -19.23037 -19.21244 -19.19673
 Alpha  occ. eigenvalues --  -19.18077 -19.17774 -19.17434 -19.17076 -19.14642
 Alpha  occ. eigenvalues --  -19.11915 -14.60367 -14.48843 -14.44804 -14.44674
 Alpha  occ. eigenvalues --  -14.42840 -14.42164 -14.42005 -14.41232 -14.41076
 Alpha  occ. eigenvalues --  -14.38381 -10.43164 -10.40873 -10.39224 -10.38304
 Alpha  occ. eigenvalues --  -10.36280 -10.35728 -10.35597 -10.34764 -10.34298
 Alpha  occ. eigenvalues --  -10.34217 -10.34051 -10.31892 -10.31401 -10.30806
 Alpha  occ. eigenvalues --  -10.29346 -10.29183 -10.28923 -10.28788 -10.28649
 Alpha  occ. eigenvalues --  -10.28578 -10.28376 -10.28097 -10.27975 -10.27876
 Alpha  occ. eigenvalues --  -10.27424 -10.25401 -10.25031 -10.25026 -10.24376
 Alpha  occ. eigenvalues --  -10.24197 -10.23912 -10.23741 -10.23686 -10.23599
 Alpha  occ. eigenvalues --  -10.22394 -10.21847 -10.21524 -10.21276 -10.21192
 Alpha  occ. eigenvalues --  -10.19994 -10.19562  -1.19044  -1.14616  -1.14069
 Alpha  occ. eigenvalues --   -1.13836  -1.13212  -1.11451  -1.10109  -1.08696
 Alpha  occ. eigenvalues --   -1.07863  -1.06464  -1.05678  -1.05483  -1.04904
 Alpha  occ. eigenvalues --   -1.01462  -1.00162  -0.99516  -0.98476  -0.97939
 Alpha  occ. eigenvalues --   -0.96848  -0.96701  -0.96331  -0.95427  -0.92817
 Alpha  occ. eigenvalues --   -0.88620  -0.87541  -0.86105  -0.85445  -0.85358
 Alpha  occ. eigenvalues --   -0.84466  -0.84403  -0.84350  -0.82108  -0.80417
 Alpha  occ. eigenvalues --   -0.79873  -0.79782  -0.77014  -0.76732  -0.76405
 Alpha  occ. eigenvalues --   -0.75203  -0.74102  -0.74038  -0.73559  -0.73375
 Alpha  occ. eigenvalues --   -0.73016  -0.71147  -0.70736  -0.70017  -0.69773
 Alpha  occ. eigenvalues --   -0.69224  -0.68565  -0.68269  -0.67645  -0.67111
 Alpha  occ. eigenvalues --   -0.66506  -0.65839  -0.65140  -0.64709  -0.63940
 Alpha  occ. eigenvalues --   -0.63143  -0.63098  -0.62838  -0.62158  -0.61489
 Alpha  occ. eigenvalues --   -0.61274  -0.61146  -0.61020  -0.60767  -0.59415
 Alpha  occ. eigenvalues --   -0.59368  -0.58677  -0.57504  -0.57024  -0.56791
 Alpha  occ. eigenvalues --   -0.56543  -0.56323  -0.56064  -0.55770  -0.55355
 Alpha  occ. eigenvalues --   -0.54682  -0.54504  -0.54381  -0.54225  -0.53583
 Alpha  occ. eigenvalues --   -0.53072  -0.52844  -0.52600  -0.52487  -0.52132
 Alpha  occ. eigenvalues --   -0.52008  -0.51937  -0.51641  -0.51504  -0.51428
 Alpha  occ. eigenvalues --   -0.51259  -0.51122  -0.50568  -0.50520  -0.50421
 Alpha  occ. eigenvalues --   -0.50101  -0.49684  -0.48962  -0.48686  -0.48533
 Alpha  occ. eigenvalues --   -0.48314  -0.47981  -0.47756  -0.47585  -0.47406
 Alpha  occ. eigenvalues --   -0.47135  -0.46778  -0.46655  -0.46285  -0.45894
 Alpha  occ. eigenvalues --   -0.45865  -0.45550  -0.45249  -0.45022  -0.44851
 Alpha  occ. eigenvalues --   -0.44642  -0.44537  -0.44094  -0.44054  -0.43925
 Alpha  occ. eigenvalues --   -0.43793  -0.43710  -0.43570  -0.43027  -0.42779
 Alpha  occ. eigenvalues --   -0.42569  -0.42303  -0.42212  -0.41712  -0.41453
 Alpha  occ. eigenvalues --   -0.41138  -0.41121  -0.40849  -0.40185  -0.40103
 Alpha  occ. eigenvalues --   -0.39690  -0.39332  -0.39196  -0.38951  -0.38567
 Alpha  occ. eigenvalues --   -0.37551  -0.37411  -0.37333  -0.37201  -0.36625
 Alpha  occ. eigenvalues --   -0.35752  -0.35576  -0.35251  -0.35228  -0.35060
 Alpha  occ. eigenvalues --   -0.34834  -0.34332  -0.33554  -0.33368  -0.32949
 Alpha  occ. eigenvalues --   -0.32899  -0.32257  -0.32092  -0.31465  -0.31074
 Alpha  occ. eigenvalues --   -0.30667  -0.29896  -0.28289  -0.27837  -0.27296
 Alpha  occ. eigenvalues --   -0.26719  -0.21314
 Alpha virt. eigenvalues --   -0.12405  -0.11236  -0.11010  -0.10192  -0.06970
 Alpha virt. eigenvalues --   -0.06138  -0.05585  -0.04660  -0.04252  -0.03703
 Alpha virt. eigenvalues --   -0.02876  -0.02724  -0.02416  -0.02180  -0.01876

 Mulliken charges:
               1
     1  N   -0.754965
     2  H    0.417513
     3  H    0.414209
     4  H    0.431574
     5  C   -0.111790
     6  H    0.216157
     7  C    0.653674
     8  C   -0.380543
     9  H    0.183858
    10  H    0.184201
    11  O   -0.551573
    12  C    0.147109
    13  C   -0.196341
    14  H    0.132063
    15  C   -0.181390
    16  H    0.141353
    17  C   -0.111531
    18  H    0.160772
    19  C   -0.125714
    20  H    0.160404
    21  C   -0.107281
    22  H    0.161963
    23  N   -0.598008
    24  H    0.387341
    25  C   -0.053249
    26  H    0.186813
    27  C    0.637034
    28  C   -0.452764
    29  H    0.178549
    30  H    0.172647
    31  H    0.185068
    32  O   -0.547654
    33  N   -0.623301
    34  H    0.360221
    35  C   -0.045717
    36  H    0.179516
    37  C    0.629813
    38  C   -0.460888
    39  H    0.180408
    40  H    0.170994
    41  H    0.173302
    42  O   -0.537938
    43  N   -0.586663
    44  H    0.337548
    45  C   -0.068836
    46  H    0.182051
    47  C    0.635462
    48  C   -0.361344
    49  H    0.161323
    50  H    0.143599
    51  O   -0.554604
    52  C    0.144102
    53  C   -0.188547
    54  H    0.113125
    55  C   -0.231357
    56  H    0.110391
    57  C   -0.215633
    58  H    0.117920
    59  C   -0.218003
    60  H    0.109182
    61  O   -0.744498
    62  C    0.459439
    63  N   -0.596385
    64  H    0.361412
    65  C   -0.069138
    66  H    0.174872
    67  C    0.673086
    68  C   -0.250825
    69  H    0.126121
    70  H    0.145016
    71  O   -0.570877
    72  C   -0.081509
    73  H    0.157285
    74  C   -0.439868
    75  H    0.141938
    76  H    0.135681
    77  H    0.134395
    78  C   -0.473621
    79  H    0.134200
    80  H    0.185010
    81  H    0.123880
    82  N   -0.621191
    83  H    0.343044
    84  C   -0.018610
    85  H    0.187870
    86  C    0.610079
    87  C   -0.311875
    88  H    0.169900
    89  H    0.171088
    90  O   -0.530015
    91  C   -0.391273
    92  H    0.209947
    93  H    0.191550
    94  C    0.584777
    95  O   -0.464271
    96  O   -0.570069
    97  N   -0.640300
    98  H    0.395838
    99  C   -0.006694
   100  H    0.179599
   101  C    0.583504
   102  C   -0.301076
   103  H    0.160233
   104  H    0.184778
   105  O   -0.467816
   106  C   -0.272121
   107  H    0.135979
   108  H    0.153601
   109  C   -0.189306
   110  H    0.151900
   111  H    0.199230
   112  N   -0.605747
   113  H    0.454519
   114  N   -0.764618
   115  H    0.353468
   116  H    0.368756
   117  N   -0.786700
   118  H    0.332518
   119  H    0.427840
   120  C    0.758019
   121  O   -0.554407
   122  H    0.411653
   123  H    0.415157
 Sum of Mulliken charges =   1.00000

 Dipole moment (field-independent basis, Debye):
    X=            -28.7595    Y=             -0.6948    Z=             30.9431  Tot=             42.2500
 Quadrupole moment (field-independent basis, Debye-Ang):
   XX=            -12.9787   YY=           -286.7746   ZZ=           -104.6416
   XY=            -97.4755   XZ=           -299.9994   YZ=             62.6645

 Normal termination of Gaussian 16 at Sun Aug  7 18:51:10 2022.
