 Gaussian 16, Revision C.01,
 Gaussian 16:  ES64L-G16RevC.01  3-Jul-2019

 ----------------------------------------------------------------------
 # B3LYP/6-31G* empiricaldispersion=gd3 guess=read geom=check nosymm in
 tegral(ultrafinegrid)
 ----------------------------------------------------------------------

 ------------------------------------------------------
 Candidate Structure: Conf:883 Charge calc in gas phase
 ------------------------------------------------------
 Structure from the checkpoint file:  "conf-883.chk"
 Charge =  1 Multiplicity = 1

                          Input orientation:
 ---------------------------------------------------------------------
 Center     Atomic      Atomic             Coordinates (Angstroms)
 Number     Number       Type             X           Y           Z
 ---------------------------------------------------------------------
      1          7           0       -9.401061    1.019675    6.538066
      2          1           0       -9.981876    1.059285    5.697438
      3          1           0       -9.942029    1.381997    7.322705
      4          1           0       -9.182417    0.037379    6.718541
      5          6           0       -8.139056    1.783777    6.353093
      6          1           0       -8.383903    2.813043    6.072702
      7          6           0       -7.352376    1.129612    5.219720
      8          6           0       -7.312600    1.787671    7.632788
      9          1           0       -7.023194    0.755712    7.836123
     10          1           0       -7.963721    2.115295    8.447410
     11          8           0       -6.906137   -0.027030    5.328531
     12          6           0       -6.102336    2.681277    7.550804
     13          6           0       -4.923502    2.228651    6.959823
     14          1           0       -4.903854    1.223504    6.559655
     15          6           0       -6.142111    3.985982    8.041970
     16          1           0       -7.048478    4.355364    8.505885
     17          6           0       -3.801682    3.051791    6.882960
     18          1           0       -2.893283    2.673246    6.446770
     19          6           0       -5.027332    4.817907    7.953048
     20          1           0       -5.082835    5.828763    8.342214
     21          6           0       -3.851193    4.351556    7.375507
     22          1           0       -2.979190    4.994360    7.311700
     23          7           0       -7.250936    1.875390    4.096991
     24          1           0       -7.548112    2.834021    4.113572
     25          6           0       -6.729723    1.344864    2.846280
     26          1           0       -6.897358    0.265042    2.896959
     27          6           0       -5.224185    1.608507    2.775963
     28          6           0       -7.459027    1.960066    1.669100
     29          1           0       -7.073693    1.556200    0.731011
     30          1           0       -7.316022    3.041631    1.655767
     31          1           0       -8.526147    1.737594    1.736186
     32          8           0       -4.742525    2.555081    2.150155
     33          7           0       -4.455293    0.736857    3.457186
     34          1           0       -4.909664    0.054977    4.051540
     35          6           0       -3.010572    0.884108    3.540873
     36          1           0       -2.807349    1.963364    3.518291
     37          6           0       -2.327660    0.270477    2.310409
     38          6           0       -2.494173    0.260845    4.823526
     39          1           0       -1.422013    0.427946    4.920707
     40          1           0       -2.682136   -0.814001    4.825053
     41          1           0       -3.009664    0.707541    5.684306
     42          8           0       -1.463529   -0.594503    2.390842
     43          7           0       -2.757091    0.734077    1.109817
     44          1           0       -3.309366    1.581766    1.102352
     45          6           0       -2.017055    0.366962   -0.079253
     46          1           0       -2.009550   -0.723371   -0.147403
     47          6           0       -0.570728    0.830828    0.038590
     48          6           0       -2.680816    0.951443   -1.331650
     49          1           0       -3.698168    0.557835   -1.366572
     50          1           0       -2.735452    2.035745   -1.216604
     51          8           0       -0.246003    1.912328    0.504320
     52          6           0       -1.932255    0.635102   -2.584420
     53          6           0       -1.345595    1.671511   -3.321392
     54          1           0       -1.479478    2.697476   -2.992010
     55          6           0       -1.733005   -0.688707   -3.003158
     56          1           0       -2.186625   -1.491761   -2.430122
     57          6           0       -0.618570    1.417679   -4.457635
     58          1           0       -0.179914    2.212585   -5.040238
     59          6           0       -0.971529   -0.995623   -4.107131
     60          1           0       -0.807011   -2.017368   -4.419138
     61          8           0        0.322506   -0.187003   -5.900172
     62          6           0       -0.361210    0.060143   -4.904175
     63          7           0        0.323102   -0.080321   -0.426507
     64          1           0       -0.014494   -0.829028   -1.008522
     65          6           0        1.741493    0.195578   -0.391747
     66          1           0        1.840719    1.106175    0.196416
     67          6           0        2.206542    0.486968   -1.811952
     68          6           0        2.534236   -0.928876    0.247140
     69          1           0        2.520984   -1.797337   -0.412644
     70          1           0        3.578935   -0.610447    0.326348
     71          8           0        2.545906   -0.404135   -2.588280
     72          6           0        2.027187   -1.331352    1.634135
     73          1           0        1.001521   -1.692814    1.524964
     74          6           0        2.881467   -2.470733    2.180957
     75          1           0        3.919876   -2.147811    2.291647
     76          1           0        2.521586   -2.795856    3.160082
     77          1           0        2.861669   -3.333548    1.511233
     78          6           0        2.010882   -0.152869    2.605040
     79          1           0        3.031184    0.198094    2.791540
     80          1           0        1.422811    0.687186    2.234015
     81          1           0        1.581238   -0.460872    3.562816
     82          7           0        2.177784    1.789164   -2.174214
     83          1           0        1.789739    2.464126   -1.539754
     84          6           0        2.511678    2.216800   -3.533429
     85          1           0        2.045883    1.492709   -4.211637
     86          6           0        4.038233    2.199466   -3.705921
     87          6           0        1.937628    3.604486   -3.790814
     88          1           0        0.877718    3.571389   -3.508277
     89          1           0        2.422137    4.323701   -3.131480
     90          8           0        4.728794    3.209028   -3.662941
     91          6           0        2.080393    4.053474   -5.245522
     92          1           0        1.629804    3.326364   -5.924604
     93          1           0        3.137393    4.136229   -5.511992
     94          6           0        1.428224    5.382009   -5.500355
     95          8           0        0.597952    5.608428   -6.344622
     96          8           0        1.897293    6.341943   -4.669295
     97          7           0        4.596613    0.978308   -3.905643
     98          1           0        4.043285    0.151104   -3.721629
     99          6           0        6.040325    0.866491   -3.928045
    100          1           0        6.460524    1.406580   -3.069731
    101          6           0        6.645910    1.536752   -5.150891
    102          6           0        6.471453   -0.599162   -3.863931
    103          1           0        7.541912   -0.650761   -4.055986
    104          1           0        5.974402   -1.146072   -4.664874
    105          8           0        7.743020    2.036893   -5.153856
    106          6           0        6.159089   -1.227260   -2.514354
    107          1           0        5.084258   -1.176231   -2.317323
    108          1           0        6.647255   -0.650005   -1.723367
    109          6           0        6.607962   -2.670326   -2.428563
    110          1           0        6.165566   -3.236115   -3.250712
    111          1           0        6.265542   -3.124258   -1.492834
    112          7           0        8.082411   -2.741616   -2.531601
    113          1           0        8.569313   -2.002704   -2.045545
    114          7           0        8.092884   -5.060713   -2.810185
    115          1           0        8.552909   -5.921541   -2.557195
    116          1           0        7.093891   -5.056358   -2.672921
    117          7           0       10.092568   -3.904645   -2.397905
    118          1           0       10.578509   -4.701158   -2.785830
    119          1           0       10.558200   -3.025874   -2.589321
    120          6           0        8.744580   -3.904960   -2.569300
    121          8           0        5.864645    1.470397   -6.248309
    122          1           0        1.439083    7.156110   -4.913231
    123          1           0        6.357339    1.905383   -6.955018
 ---------------------------------------------------------------------

 SCF Done:  E(RB3LYP) =  -2974.04699627     A.U. after    3 cycles

 Alpha  occ. eigenvalues --  -19.24276 -19.23225 -19.20792 -19.19288 -19.17610
 Alpha  occ. eigenvalues --  -19.15751 -19.15708 -19.14892 -19.14749 -19.14351
 Alpha  occ. eigenvalues --  -19.05144 -14.62157 -14.52253 -14.51885 -14.51869
 Alpha  occ. eigenvalues --  -14.48778 -14.43608 -14.39760 -14.38808 -14.38757
 Alpha  occ. eigenvalues --  -14.38475 -10.47580 -10.41489 -10.39942 -10.36379
 Alpha  occ. eigenvalues --  -10.35813 -10.34985 -10.33070 -10.33002 -10.32498
 Alpha  occ. eigenvalues --  -10.32498 -10.32182 -10.31412 -10.31023 -10.29492
 Alpha  occ. eigenvalues --  -10.29224 -10.28733 -10.28474 -10.28101 -10.27724
 Alpha  occ. eigenvalues --  -10.27497 -10.27345 -10.27288 -10.26920 -10.26840
 Alpha  occ. eigenvalues --  -10.25883 -10.25562 -10.25444 -10.24312 -10.21829
 Alpha  occ. eigenvalues --  -10.21649 -10.21328 -10.21100 -10.21050 -10.20806
 Alpha  occ. eigenvalues --  -10.20304 -10.19810 -10.17518 -10.17260 -10.17156
 Alpha  occ. eigenvalues --  -10.15502 -10.15042  -1.18134  -1.16827  -1.14998
 Alpha  occ. eigenvalues --   -1.14605  -1.12009  -1.11455  -1.08126  -1.07902
 Alpha  occ. eigenvalues --   -1.06880  -1.06326  -1.06143  -1.05493  -1.05420
 Alpha  occ. eigenvalues --   -1.05008  -1.02764  -1.00136  -0.96574  -0.96424
 Alpha  occ. eigenvalues --   -0.96063  -0.95849  -0.95790  -0.95523  -0.92595
 Alpha  occ. eigenvalues --   -0.90275  -0.87905  -0.85093  -0.84632  -0.83958
 Alpha  occ. eigenvalues --   -0.83911  -0.83383  -0.83121  -0.82645  -0.79868
 Alpha  occ. eigenvalues --   -0.79313  -0.78955  -0.77943  -0.76814  -0.76037
 Alpha  occ. eigenvalues --   -0.75015  -0.74951  -0.74317  -0.73713  -0.72832
 Alpha  occ. eigenvalues --   -0.72528  -0.71836  -0.71633  -0.71084  -0.70078
 Alpha  occ. eigenvalues --   -0.69806  -0.68558  -0.68452  -0.67752  -0.67513
 Alpha  occ. eigenvalues --   -0.67321  -0.65543  -0.65254  -0.64647  -0.64288
 Alpha  occ. eigenvalues --   -0.64212  -0.62993  -0.62687  -0.62485  -0.61799
 Alpha  occ. eigenvalues --   -0.61562  -0.60910  -0.60363  -0.60208  -0.60165
 Alpha  occ. eigenvalues --   -0.59787  -0.59333  -0.58954  -0.58733  -0.57484
 Alpha  occ. eigenvalues --   -0.56836  -0.56281  -0.56008  -0.55287  -0.54995
 Alpha  occ. eigenvalues --   -0.54886  -0.54815  -0.54076  -0.53887  -0.53574
 Alpha  occ. eigenvalues --   -0.52784  -0.52632  -0.52023  -0.51658  -0.51606
 Alpha  occ. eigenvalues --   -0.51221  -0.51128  -0.50802  -0.50580  -0.50358
 Alpha  occ. eigenvalues --   -0.49898  -0.49527  -0.49308  -0.49181  -0.48985
 Alpha  occ. eigenvalues --   -0.48666  -0.48565  -0.47852  -0.47280  -0.47244
 Alpha  occ. eigenvalues --   -0.46953  -0.46704  -0.46638  -0.46319  -0.46172
 Alpha  occ. eigenvalues --   -0.45551  -0.45441  -0.45221  -0.45025  -0.44995
 Alpha  occ. eigenvalues --   -0.44903  -0.44570  -0.44136  -0.43974  -0.43878
 Alpha  occ. eigenvalues --   -0.43770  -0.43677  -0.43491  -0.43352  -0.43072
 Alpha  occ. eigenvalues --   -0.42856  -0.42651  -0.42317  -0.42213  -0.41925
 Alpha  occ. eigenvalues --   -0.41673  -0.41244  -0.40875  -0.40709  -0.40414
 Alpha  occ. eigenvalues --   -0.40263  -0.39856  -0.39744  -0.39453  -0.38979
 Alpha  occ. eigenvalues --   -0.38851  -0.38370  -0.38088  -0.37812  -0.36775
 Alpha  occ. eigenvalues --   -0.36592  -0.35828  -0.35741  -0.35597  -0.35457
 Alpha  occ. eigenvalues --   -0.35383  -0.34177  -0.33885  -0.33706  -0.33444
 Alpha  occ. eigenvalues --   -0.33053  -0.32844  -0.32661  -0.32154  -0.31052
 Alpha  occ. eigenvalues --   -0.30946  -0.30399  -0.29017  -0.28891  -0.28831
 Alpha  occ. eigenvalues --   -0.28429  -0.27622  -0.27118  -0.27015  -0.23741
 Alpha  occ. eigenvalues --   -0.18613  -0.14856
 Alpha virt. eigenvalues --   -0.14007  -0.13887  -0.10967  -0.09753  -0.08677
 Alpha virt. eigenvalues --   -0.08326  -0.06981  -0.06136  -0.05926  -0.04400
 Alpha virt. eigenvalues --   -0.03284  -0.03243  -0.02976  -0.02534  -0.02471

 Mulliken charges:
               1
     1  N   -0.675875
     2  H    0.391448
     3  H    0.382147
     4  H    0.416304
     5  C   -0.141060
     6  H    0.198217
     7  C    0.616270
     8  C   -0.369848
     9  H    0.196911
    10  H    0.159953
    11  O   -0.546283
    12  C    0.153854
    13  C   -0.187694
    14  H    0.153892
    15  C   -0.189309
    16  H    0.127552
    17  C   -0.131745
    18  H    0.161610
    19  C   -0.124119
    20  H    0.155187
    21  C   -0.123202
    22  H    0.160806
    23  N   -0.576787
    24  H    0.346203
    25  C   -0.080485
    26  H    0.190794
    27  C    0.641613
    28  C   -0.460642
    29  H    0.199461
    30  H    0.181426
    31  H    0.145553
    32  O   -0.532769
    33  N   -0.598565
    34  H    0.353944
    35  C   -0.073002
    36  H    0.194004
    37  C    0.644312
    38  C   -0.484937
    39  H    0.188861
    40  H    0.169787
    41  H    0.145943
    42  O   -0.529760
    43  N   -0.628250
    44  H    0.370986
    45  C   -0.030124
    46  H    0.156229
    47  C    0.660603
    48  C   -0.378424
    49  H    0.138741
    50  H    0.150339
    51  O   -0.567056
    52  C    0.139429
    53  C   -0.184857
    54  H    0.097766
    55  C   -0.215508
    56  H    0.086504
    57  C   -0.239409
    58  H    0.110351
    59  C   -0.207756
    60  H    0.096642
    61  O   -0.616134
    62  C    0.431779
    63  N   -0.587764
    64  H    0.349566
    65  C   -0.074924
    66  H    0.182820
    67  C    0.656084
    68  C   -0.263671
    69  H    0.140910
    70  H    0.112625
    71  O   -0.562966
    72  C   -0.072056
    73  H    0.163591
    74  C   -0.440887
    75  H    0.121310
    76  H    0.145432
    77  H    0.127083
    78  C   -0.458279
    79  H    0.118895
    80  H    0.178544
    81  H    0.139706
    82  N   -0.617161
    83  H    0.351653
    84  C   -0.053190
    85  H    0.228901
    86  C    0.625540
    87  C   -0.316805
    88  H    0.166646
    89  H    0.175035
    90  O   -0.528491
    91  C   -0.357412
    92  H    0.200887
    93  H    0.192425
    94  C    0.557066
    95  O   -0.456169
    96  O   -0.559246
    97  N   -0.626115
    98  H    0.380474
    99  C    0.005589
   100  H    0.175620
   101  C    0.593396
   102  C   -0.315722
   103  H    0.156014
   104  H    0.177909
   105  O   -0.472592
   106  C   -0.329236
   107  H    0.215761
   108  H    0.154801
   109  C   -0.178239
   110  H    0.195298
   111  H    0.188303
   112  N   -0.572287
   113  H    0.366824
   114  N   -0.728509
   115  H    0.380269
   116  H    0.391243
   117  N   -0.730662
   118  H    0.375430
   119  H    0.379606
   120  C    0.738240
   121  O   -0.551015
   122  H    0.405637
   123  H    0.416442
 Sum of Mulliken charges =   1.00000

 Dipole moment (field-independent basis, Debye):
    X=             -5.0997    Y=            -11.0603    Z=             29.1145  Tot=             31.5593
 Quadrupole moment (field-independent basis, Debye-Ang):
   XX=            251.3860   YY=           -279.1357   ZZ=           -256.6998
   XY=           -206.8274   XZ=           -306.0966   YZ=            102.4301

 Normal termination of Gaussian 16 at Sun Aug  7 18:56:36 2022.
