 Gaussian 16, Revision C.01,
 Gaussian 16:  ES64L-G16RevC.01  3-Jul-2019

 ----------------------------------------------------------------------
 # B3LYP/6-31G* empiricaldispersion=gd3 guess=read geom=check nosymm in
 tegral(ultrafinegrid)
 ----------------------------------------------------------------------

 ------------------------------------------------------
 Candidate Structure: Conf:405 Charge calc in gas phase
 ------------------------------------------------------
 Structure from the checkpoint file:  "conf-405.chk"
 Charge =  1 Multiplicity = 1

                          Input orientation:
 ---------------------------------------------------------------------
 Center     Atomic      Atomic             Coordinates (Angstroms)
 Number     Number       Type             X           Y           Z
 ---------------------------------------------------------------------
      1          7           0       -9.300730    1.350116    7.099968
      2          1           0      -10.178560    0.863170    6.913228
      3          1           0       -9.262322    1.658927    8.071889
      4          1           0       -8.530679    0.702669    6.901995
      5          6           0       -9.110556    2.494137    6.190896
      6          1           0      -10.074398    2.970245    5.995003
      7          6           0       -8.513549    1.953161    4.897929
      8          6           0       -8.174330    3.531272    6.816276
      9          1           0       -8.013513    4.342436    6.103715
     10          1           0       -7.202291    3.064606    6.996111
     11          8           0       -7.852298    0.915542    4.902720
     12          6           0       -8.729806    4.078470    8.107368
     13          6           0       -9.857641    4.897117    8.097800
     14          1           0      -10.306448    5.154365    7.145136
     15          6           0       -8.171260    3.727539    9.332287
     16          1           0       -7.305432    3.072907    9.355696
     17          6           0      -10.399228    5.380574    9.284412
     18          1           0      -11.270358    6.025013    9.250741
     19          6           0       -8.717029    4.192571   10.525643
     20          1           0       -8.268799    3.902144   11.468503
     21          6           0       -9.831514    5.025473   10.504429
     22          1           0      -10.254950    5.394011   11.431793
     23          7           0       -8.703073    2.691245    3.786493
     24          1           0       -9.297723    3.500491    3.826795
     25          6           0       -8.280317    2.235255    2.466526
     26          1           0       -8.314346    1.139939    2.493411
     27          6           0       -6.824089    2.649633    2.203763
     28          6           0       -9.224415    2.783371    1.411805
     29          1           0       -8.908922    2.471318    0.416464
     30          1           0       -9.229300    3.874700    1.441472
     31          1           0      -10.234963    2.410764    1.592974
     32          8           0       -6.491116    3.346196    1.250789
     33          7           0       -5.928015    2.214094    3.128432
     34          1           0       -6.209638    1.463961    3.745811
     35          6           0       -4.509592    2.367782    2.897543
     36          1           0       -4.372619    3.330486    2.392437
     37          6           0       -3.991074    1.279298    1.941919
     38          6           0       -3.754086    2.352565    4.218088
     39          1           0       -2.691918    2.539709    4.056535
     40          1           0       -3.863002    1.381223    4.706458
     41          1           0       -4.153358    3.126718    4.874833
     42          8           0       -4.667214    0.345864    1.557014
     43          7           0       -2.695231    1.436962    1.562044
     44          1           0       -2.182487    2.272664    1.795023
     45          6           0       -2.156754    0.656203    0.474149
     46          1           0       -2.465595   -0.379346    0.624265
     47          6           0       -0.637014    0.746808    0.542442
     48          6           0       -2.698037    1.118131   -0.899145
     49          1           0       -2.132781    0.614003   -1.687523
     50          1           0       -3.734569    0.783632   -0.950927
     51          8           0       -0.045775    1.695953    1.037019
     52          6           0       -2.657882    2.596560   -1.075751
     53          6           0       -3.772584    3.376646   -0.694692
     54          1           0       -4.645367    2.885165   -0.271150
     55          6           0       -1.531525    3.257045   -1.597240
     56          1           0       -0.666760    2.660841   -1.882734
     57          6           0       -3.792692    4.738298   -0.840732
     58          1           0       -4.652605    5.324991   -0.547310
     59          6           0       -1.508339    4.618923   -1.767481
     60          1           0       -0.657411    5.120092   -2.188340
     61          8           0       -2.662017    6.659737   -1.578273
     62          6           0       -2.653383    5.439144   -1.412830
     63          7           0        0.000309   -0.321862   -0.001269
     64          1           0       -0.537822   -1.003574   -0.504799
     65          6           0        1.447571   -0.359816   -0.109191
     66          1           0        1.820652    0.235746    0.726339
     67          6           0        1.878481    0.293309   -1.418277
     68          6           0        1.969198   -1.781818   -0.017825
     69          1           0        1.626801   -2.194081    0.934627
     70          1           0        1.510568   -2.369952   -0.816065
     71          8           0        1.983335   -0.329657   -2.469450
     72          6           0        3.493939   -1.927477   -0.101876
     73          1           0        3.805105   -1.610249   -1.106182
     74          6           0        4.221387   -1.047024    0.910695
     75          1           0        3.885672   -1.266093    1.929273
     76          1           0        5.298394   -1.233448    0.866639
     77          1           0        4.070317    0.014286    0.707466
     78          6           0        3.865377   -3.396404    0.078599
     79          1           0        3.581036   -3.737633    1.076668
     80          1           0        3.355510   -4.023151   -0.655854
     81          1           0        4.940538   -3.548877   -0.038687
     82          7           0        2.083377    1.634571   -1.360391
     83          1           0        2.072309    2.073285   -0.453189
     84          6           0        2.879079    2.243484   -2.422538
     85          1           0        2.281954    2.212107   -3.338413
     86          6           0        4.120846    1.382672   -2.641170
     87          6           0        3.258181    3.672059   -2.076596
     88          1           0        3.769841    3.688535   -1.117187
     89          1           0        3.968189    4.034849   -2.821976
     90          8           0        4.897802    1.110891   -1.730297
     91          6           0        2.038319    4.581352   -2.048815
     92          1           0        1.298629    4.199788   -1.335457
     93          1           0        1.557576    4.613481   -3.030310
     94          6           0        2.372323    5.993666   -1.667961
     95          8           0        2.080153    6.980249   -2.295732
     96          8           0        3.048214    6.054371   -0.495950
     97          7           0        4.267809    0.885791   -3.888529
     98          1           0        3.507251    0.973919   -4.537047
     99          6           0        5.249185   -0.153497   -4.121416
    100          1           0        5.275691   -0.802316   -3.234692
    101          6           0        6.655105    0.410018   -4.249892
    102          6           0        4.902900   -0.982980   -5.356909
    103          1           0        5.754085   -1.621535   -5.588551
    104          1           0        4.765047   -0.310779   -6.202542
    105          8           0        7.640860   -0.165165   -3.862084
    106          6           0        3.660405   -1.835770   -5.152617
    107          1           0        2.791967   -1.198110   -4.972212
    108          1           0        3.779375   -2.447679   -4.249102
    109          6           0        3.374106   -2.729062   -6.341201
    110          1           0        3.310355   -2.113349   -7.241060
    111          1           0        2.411156   -3.239336   -6.220473
    112          7           0        4.471798   -3.708786   -6.504947
    113          1           0        4.815130   -4.092391   -5.635126
    114          7           0        3.616893   -4.494940   -8.538042
    115          1           0        3.827320   -4.966647   -9.403050
    116          1           0        3.080116   -3.647564   -8.619948
    117          7           0        5.365926   -5.621897   -7.453553
    118          1           0        5.523748   -6.143170   -8.302320
    119          1           0        6.192149   -5.485038   -6.887192
    120          6           0        4.485552   -4.593730   -7.514540
    121          8           0        6.700725    1.593722   -4.895388
    122          1           0        3.204454    6.992255   -0.326610
    123          1           0        7.634203    1.834910   -4.944225
 ---------------------------------------------------------------------

 SCF Done:  E(RB3LYP) =  -2974.03330118     A.U. after    4 cycles

 Alpha  occ. eigenvalues --  -19.25187 -19.24529 -19.21407 -19.19400 -19.16857
 Alpha  occ. eigenvalues --  -19.16688 -19.16668 -19.15737 -19.15460 -19.14489
 Alpha  occ. eigenvalues --  -19.03829 -14.60496 -14.51017 -14.50468 -14.50443
 Alpha  occ. eigenvalues --  -14.47834 -14.41917 -14.40581 -14.40545 -14.40338
 Alpha  occ. eigenvalues --  -14.38033 -10.45263 -10.41200 -10.39552 -10.37516
 Alpha  occ. eigenvalues --  -10.34795 -10.33888 -10.33728 -10.33534 -10.33180
 Alpha  occ. eigenvalues --  -10.32600 -10.32375 -10.31359 -10.31332 -10.30419
 Alpha  occ. eigenvalues --  -10.30391 -10.29318 -10.28964 -10.28879 -10.28704
 Alpha  occ. eigenvalues --  -10.28573 -10.28332 -10.28194 -10.28150 -10.27292
 Alpha  occ. eigenvalues --  -10.27055 -10.25521 -10.25193 -10.23609 -10.23494
 Alpha  occ. eigenvalues --  -10.22809 -10.22781 -10.22412 -10.21635 -10.20534
 Alpha  occ. eigenvalues --  -10.19832 -10.18866 -10.16183 -10.15828 -10.15467
 Alpha  occ. eigenvalues --  -10.13858 -10.13651  -1.18110  -1.16490  -1.15349
 Alpha  occ. eigenvalues --   -1.14810  -1.12585  -1.09734  -1.08830  -1.08432
 Alpha  occ. eigenvalues --   -1.07882  -1.07304  -1.06845  -1.04888  -1.04256
 Alpha  occ. eigenvalues --   -1.04093  -1.03319  -0.99147  -0.97732  -0.97271
 Alpha  occ. eigenvalues --   -0.97140  -0.96800  -0.95248  -0.94538  -0.92745
 Alpha  occ. eigenvalues --   -0.90610  -0.87033  -0.86121  -0.85313  -0.84676
 Alpha  occ. eigenvalues --   -0.84376  -0.84161  -0.82942  -0.81390  -0.80225
 Alpha  occ. eigenvalues --   -0.78905  -0.78820  -0.77505  -0.76923  -0.76120
 Alpha  occ. eigenvalues --   -0.74788  -0.74055  -0.73432  -0.72871  -0.72336
 Alpha  occ. eigenvalues --   -0.71618  -0.71403  -0.71151  -0.70996  -0.70848
 Alpha  occ. eigenvalues --   -0.70014  -0.69021  -0.68937  -0.68488  -0.68224
 Alpha  occ. eigenvalues --   -0.66335  -0.65799  -0.65148  -0.64147  -0.63924
 Alpha  occ. eigenvalues --   -0.63751  -0.63286  -0.63167  -0.62933  -0.62826
 Alpha  occ. eigenvalues --   -0.62320  -0.60885  -0.60512  -0.60060  -0.59925
 Alpha  occ. eigenvalues --   -0.59683  -0.58798  -0.58013  -0.57715  -0.57606
 Alpha  occ. eigenvalues --   -0.57106  -0.56369  -0.55994  -0.55733  -0.55328
 Alpha  occ. eigenvalues --   -0.54981  -0.54655  -0.54593  -0.54064  -0.53685
 Alpha  occ. eigenvalues --   -0.53392  -0.53165  -0.52950  -0.52086  -0.51927
 Alpha  occ. eigenvalues --   -0.51788  -0.51457  -0.51371  -0.50511  -0.50387
 Alpha  occ. eigenvalues --   -0.50207  -0.49986  -0.49673  -0.49567  -0.49207
 Alpha  occ. eigenvalues --   -0.48798  -0.48294  -0.48203  -0.47858  -0.47435
 Alpha  occ. eigenvalues --   -0.46998  -0.46723  -0.46567  -0.46251  -0.46124
 Alpha  occ. eigenvalues --   -0.46080  -0.45932  -0.45556  -0.45529  -0.45100
 Alpha  occ. eigenvalues --   -0.44930  -0.44786  -0.44620  -0.44421  -0.44101
 Alpha  occ. eigenvalues --   -0.44055  -0.43648  -0.43588  -0.43524  -0.43216
 Alpha  occ. eigenvalues --   -0.42953  -0.42802  -0.42499  -0.42452  -0.42223
 Alpha  occ. eigenvalues --   -0.42015  -0.41839  -0.41015  -0.40956  -0.40590
 Alpha  occ. eigenvalues --   -0.40538  -0.40036  -0.39932  -0.39694  -0.39148
 Alpha  occ. eigenvalues --   -0.38731  -0.38602  -0.38283  -0.38106  -0.37744
 Alpha  occ. eigenvalues --   -0.37315  -0.37081  -0.36704  -0.36505  -0.35342
 Alpha  occ. eigenvalues --   -0.35109  -0.34898  -0.34274  -0.34217  -0.33573
 Alpha  occ. eigenvalues --   -0.32439  -0.32094  -0.31885  -0.31388  -0.31211
 Alpha  occ. eigenvalues --   -0.30949  -0.30106  -0.29664  -0.29311  -0.28888
 Alpha  occ. eigenvalues --   -0.28559  -0.28291  -0.27754  -0.26945  -0.22183
 Alpha  occ. eigenvalues --   -0.17145  -0.13361
 Alpha virt. eigenvalues --   -0.12575  -0.12364  -0.10607  -0.09720  -0.09506
 Alpha virt. eigenvalues --   -0.07552  -0.05327  -0.04940  -0.04339  -0.04076
 Alpha virt. eigenvalues --   -0.03807  -0.02842  -0.02782  -0.02581  -0.02263

 Mulliken charges:
               1
     1  N   -0.708581
     2  H    0.415424
     3  H    0.402332
     4  H    0.418779
     5  C   -0.140723
     6  H    0.203824
     7  C    0.639732
     8  C   -0.380786
     9  H    0.213894
    10  H    0.190281
    11  O   -0.543428
    12  C    0.141412
    13  C   -0.187703
    14  H    0.131416
    15  C   -0.214475
    16  H    0.139279
    17  C   -0.122625
    18  H    0.162086
    19  C   -0.124590
    20  H    0.160710
    21  C   -0.126316
    22  H    0.163967
    23  N   -0.582765
    24  H    0.342082
    25  C   -0.087356
    26  H    0.203574
    27  C    0.635930
    28  C   -0.467819
    29  H    0.211338
    30  H    0.172029
    31  H    0.144324
    32  O   -0.486695
    33  N   -0.609285
    34  H    0.353246
    35  C   -0.078241
    36  H    0.213341
    37  C    0.642487
    38  C   -0.459454
    39  H    0.177106
    40  H    0.146957
    41  H    0.147508
    42  O   -0.543288
    43  N   -0.608730
    44  H    0.354026
    45  C   -0.028922
    46  H    0.153528
    47  C    0.639647
    48  C   -0.381959
    49  H    0.121097
    50  H    0.169821
    51  O   -0.544243
    52  C    0.142449
    53  C   -0.211505
    54  H    0.124846
    55  C   -0.182857
    56  H    0.079092
    57  C   -0.227123
    58  H    0.100771
    59  C   -0.232934
    60  H    0.103304
    61  O   -0.592509
    62  C    0.415512
    63  N   -0.612699
    64  H    0.332215
    65  C   -0.065457
    66  H    0.178999
    67  C    0.658226
    68  C   -0.261131
    69  H    0.140701
    70  H    0.130731
    71  O   -0.573398
    72  C   -0.092202
    73  H    0.144448
    74  C   -0.447192
    75  H    0.134509
    76  H    0.150305
    77  H    0.162970
    78  C   -0.443626
    79  H    0.145290
    80  H    0.124886
    81  H    0.142544
    82  N   -0.590383
    83  H    0.360199
    84  C   -0.022918
    85  H    0.150277
    86  C    0.631882
    87  C   -0.316500
    88  H    0.189488
    89  H    0.165102
    90  O   -0.536826
    91  C   -0.361716
    92  H    0.212338
    93  H    0.181758
    94  C    0.576418
    95  O   -0.446200
    96  O   -0.566815
    97  N   -0.584826
    98  H    0.333081
    99  C   -0.010933
   100  H    0.200061
   101  C    0.592429
   102  C   -0.320170
   103  H    0.166411
   104  H    0.161071
   105  O   -0.460393
   106  C   -0.308408
   107  H    0.201941
   108  H    0.169786
   109  C   -0.165531
   110  H    0.170715
   111  H    0.191361
   112  N   -0.585076
   113  H    0.359488
   114  N   -0.734285
   115  H    0.368485
   116  H    0.381606
   117  N   -0.737280
   118  H    0.364442
   119  H    0.372472
   120  C    0.724091
   121  O   -0.559791
   122  H    0.412186
   123  H    0.418609
 Sum of Mulliken charges =   1.00000

 Dipole moment (field-independent basis, Debye):
    X=            -15.5582    Y=            -20.2609    Z=              4.6324  Tot=             25.9619
 Quadrupole moment (field-independent basis, Debye-Ang):
   XX=             56.2596   YY=           -355.2544   ZZ=             90.9244
   XY=           -119.3316   XZ=           -416.6630   YZ=            223.3202

 Normal termination of Gaussian 16 at Sun Aug  7 18:52:33 2022.
