 Gaussian 16, Revision C.01,
 Gaussian 16:  ES64L-G16RevC.01  3-Jul-2019

 ----------------------------------------------------------------------
 # B3LYP/6-31G* empiricaldispersion=gd3 guess=read geom=check nosymm in
 tegral(ultrafinegrid)
 ----------------------------------------------------------------------

 ------------------------------------------------------
 Candidate Structure: Conf:586 Charge calc in gas phase
 ------------------------------------------------------
 Structure from the checkpoint file:  "conf-586.chk"
 Charge =  1 Multiplicity = 1

                          Input orientation:
 ---------------------------------------------------------------------
 Center     Atomic      Atomic             Coordinates (Angstroms)
 Number     Number       Type             X           Y           Z
 ---------------------------------------------------------------------
      1          7           0       -9.453177    2.345638    6.674188
      2          1           0      -10.067540    2.477016    5.871601
      3          1           0       -9.599910    3.093289    7.351083
      4          1           0       -9.717338    1.466709    7.125405
      5          6           0       -8.039359    2.247399    6.269499
      6          1           0       -7.797145    3.062346    5.574991
      7          6           0       -7.840743    0.931444    5.513541
      8          6           0       -7.112243    2.353328    7.491748
      9          1           0       -7.087723    3.401994    7.803694
     10          1           0       -6.096917    2.078739    7.196418
     11          8           0       -8.626035    0.000468    5.607324
     12          6           0       -7.581880    1.511714    8.648312
     13          6           0       -8.261618    2.097038    9.715031
     14          1           0       -8.404873    3.172107    9.724562
     15          6           0       -7.406840    0.129961    8.647387
     16          1           0       -6.890427   -0.335856    7.815444
     17          6           0       -8.760759    1.322543   10.758047
     18          1           0       -9.287960    1.797706   11.577306
     19          6           0       -7.905002   -0.652338    9.686492
     20          1           0       -7.757929   -1.725453    9.662109
     21          6           0       -8.584010   -0.057057   10.745712
     22          1           0       -8.970883   -0.665505   11.555162
     23          7           0       -6.733390    0.869087    4.738457
     24          1           0       -6.033366    1.592777    4.725372
     25          6           0       -6.372655   -0.332898    4.022756
     26          1           0       -6.441355   -1.182922    4.709519
     27          6           0       -4.906884   -0.139854    3.623415
     28          6           0       -7.285907   -0.624189    2.834869
     29          1           0       -6.960104   -1.524168    2.312779
     30          1           0       -7.272514    0.206138    2.136068
     31          1           0       -8.306591   -0.758659    3.185243
     32          8           0       -4.335660    0.940204    3.764487
     33          7           0       -4.290341   -1.228315    3.108102
     34          1           0       -4.783157   -2.104357    3.108370
     35          6           0       -2.834639   -1.295671    2.960861
     36          1           0       -2.402898   -0.724742    3.790824
     37          6           0       -2.411943   -0.623278    1.652783
     38          6           0       -2.380172   -2.742790    3.011996
     39          1           0       -1.299732   -2.805833    2.876140
     40          1           0       -2.855053   -3.317740    2.215838
     41          1           0       -2.636401   -3.180452    3.979426
     42          8           0       -2.114754   -1.264871    0.642274
     43          7           0       -2.364564    0.726319    1.681163
     44          1           0       -2.796675    1.203508    2.465162
     45          6           0       -2.072471    1.487691    0.477040
     46          1           0       -2.476430    0.907791   -0.359425
     47          6           0       -0.557076    1.631921    0.282404
     48          6           0       -2.742840    2.864225    0.514917
     49          1           0       -2.314688    3.447099    1.329167
     50          1           0       -2.480040    3.381105   -0.409270
     51          8           0        0.009703    2.723063    0.222495
     52          6           0       -4.215056    2.761995    0.668714
     53          6           0       -5.003265    2.217285   -0.356909
     54          1           0       -4.516906    1.916311   -1.279340
     55          6           0       -4.834789    3.159495    1.858440
     56          1           0       -4.228382    3.563484    2.665863
     57          6           0       -6.363542    2.064395   -0.224382
     58          1           0       -6.979254    1.641866   -1.006644
     59          6           0       -6.182134    3.019799    2.050197
     60          1           0       -6.669695    3.294713    2.976594
     61          8           0       -8.227104    2.235915    1.193462
     62          6           0       -7.020202    2.431401    1.017122
     63          7           0        0.129175    0.469505    0.200635
     64          1           0       -0.387450   -0.399290    0.129727
     65          6           0        1.555633    0.490290   -0.060025
     66          1           0        1.938931    1.368923    0.468004
     67          6           0        1.806604    0.665427   -1.557192
     68          6           0        2.240992   -0.752736    0.480166
     69          1           0        1.971870   -0.838433    1.535304
     70          1           0        1.841723   -1.628726   -0.036381
     71          8           0        2.016906   -0.270727   -2.314357
     72          6           0        3.771051   -0.748510    0.352791
     73          1           0        4.016528   -0.751169   -0.714428
     74          6           0        4.401163    0.492489    0.978118
     75          1           0        4.128024    0.577014    2.034800
     76          1           0        5.490962    0.431432    0.917204
     77          1           0        4.097139    1.405228    0.462110
     78          6           0        4.325804   -2.022129    0.983537
     79          1           0        4.103690   -2.041777    2.052883
     80          1           0        3.884988   -2.909698    0.524840
     81          1           0        5.409497   -2.081761    0.860285
     82          7           0        1.742180    1.946060   -2.004124
     83          1           0        1.568715    2.682424   -1.335265
     84          6           0        2.346591    2.274588   -3.284103
     85          1           0        1.835985    1.686662   -4.051684
     86          6           0        3.823104    1.863052   -3.269541
     87          6           0        2.171336    3.768469   -3.556286
     88          1           0        1.122354    4.001002   -3.373889
     89          1           0        2.752150    4.330325   -2.826646
     90          8           0        4.536222    1.999978   -2.287771
     91          6           0        2.554062    4.205334   -4.966146
     92          1           0        1.965426    3.676990   -5.719890
     93          1           0        3.606616    4.006694   -5.171880
     94          6           0        2.357890    5.685383   -5.161643
     95          8           0        2.324080    6.510902   -4.285994
     96          8           0        2.254766    6.009335   -6.470962
     97          7           0        4.278211    1.306458   -4.427128
     98          1           0        3.764271    1.499574   -5.269141
     99          6           0        5.700063    1.067660   -4.569153
    100          1           0        6.051181    0.641854   -3.624154
    101          6           0        6.431688    2.380800   -4.770325
    102          6           0        5.995471    0.098713   -5.714220
    103          1           0        7.076354    0.070872   -5.867577
    104          1           0        5.552535    0.486934   -6.630088
    105          8           0        5.921542    3.420084   -5.104421
    106          6           0        5.485157   -1.301493   -5.408306
    107          1           0        4.407488   -1.281033   -5.237308
    108          1           0        5.939146   -1.645727   -4.472148
    109          6           0        5.805298   -2.330116   -6.484308
    110          1           0        5.478111   -3.315724   -6.147783
    111          1           0        6.883735   -2.393792   -6.636787
    112          7           0        5.119390   -2.069043   -7.766175
    113          1           0        4.116266   -1.970478   -7.687889
    114          7           0        6.961796   -1.141621   -8.903767
    115          1           0        7.356576   -0.943055   -9.810184
    116          1           0        7.597957   -1.598516   -8.267241
    117          7           0        4.820197   -1.097004   -9.844945
    118          1           0        5.247517   -0.854043  -10.726449
    119          1           0        3.955187   -1.613650   -9.937654
    120          6           0        5.650559   -1.463937   -8.834985
    121          8           0        7.754805    2.241564   -4.552028
    122          1           0        2.159412    6.970877   -6.500657
    123          1           0        8.155396    3.104139   -4.713820
 ---------------------------------------------------------------------

 SCF Done:  E(RB3LYP) =  -2974.07065583     A.U. after    3 cycles

 Alpha  occ. eigenvalues --  -19.27276 -19.23693 -19.21861 -19.21225 -19.18706
 Alpha  occ. eigenvalues --  -19.17975 -19.17555 -19.15362 -19.15012 -19.14223
 Alpha  occ. eigenvalues --  -19.04137 -14.59323 -14.52116 -14.52073 -14.51696
 Alpha  occ. eigenvalues --  -14.43711 -14.42967 -14.42504 -14.38807 -14.38654
 Alpha  occ. eigenvalues --  -14.38027 -10.47030 -10.39556 -10.38498 -10.37365
 Alpha  occ. eigenvalues --  -10.36214 -10.36014 -10.35273 -10.34300 -10.32181
 Alpha  occ. eigenvalues --  -10.31817 -10.31462 -10.31224 -10.30798 -10.29797
 Alpha  occ. eigenvalues --  -10.29795 -10.29591 -10.29208 -10.28743 -10.28303
 Alpha  occ. eigenvalues --  -10.28166 -10.27758 -10.27724 -10.27528 -10.27438
 Alpha  occ. eigenvalues --  -10.25380 -10.24825 -10.24748 -10.24100 -10.23488
 Alpha  occ. eigenvalues --  -10.21447 -10.21404 -10.21127 -10.20345 -10.19662
 Alpha  occ. eigenvalues --  -10.19546 -10.18832 -10.16471 -10.16262 -10.15614
 Alpha  occ. eigenvalues --  -10.14495 -10.14237  -1.18658  -1.16536  -1.15762
 Alpha  occ. eigenvalues --   -1.14990  -1.12609  -1.10764  -1.10274  -1.09454
 Alpha  occ. eigenvalues --   -1.07529  -1.07215  -1.06243  -1.05961  -1.05882
 Alpha  occ. eigenvalues --   -1.05084  -1.00712  -1.00175  -0.99143  -0.96192
 Alpha  occ. eigenvalues --   -0.95681  -0.95542  -0.95179  -0.94778  -0.91583
 Alpha  occ. eigenvalues --   -0.91071  -0.86639  -0.85517  -0.85171  -0.84394
 Alpha  occ. eigenvalues --   -0.83894  -0.83460  -0.82509  -0.80938  -0.80559
 Alpha  occ. eigenvalues --   -0.79379  -0.78175  -0.77553  -0.77412  -0.76427
 Alpha  occ. eigenvalues --   -0.74150  -0.72855  -0.72449  -0.72395  -0.72121
 Alpha  occ. eigenvalues --   -0.71917  -0.71457  -0.71270  -0.71177  -0.69811
 Alpha  occ. eigenvalues --   -0.69682  -0.69366  -0.68849  -0.67834  -0.67268
 Alpha  occ. eigenvalues --   -0.66703  -0.65532  -0.65002  -0.64948  -0.64345
 Alpha  occ. eigenvalues --   -0.63821  -0.63495  -0.63329  -0.61813  -0.61184
 Alpha  occ. eigenvalues --   -0.60978  -0.60632  -0.60333  -0.60026  -0.59095
 Alpha  occ. eigenvalues --   -0.58671  -0.58399  -0.57944  -0.57609  -0.57372
 Alpha  occ. eigenvalues --   -0.56678  -0.56269  -0.55901  -0.55800  -0.55663
 Alpha  occ. eigenvalues --   -0.55308  -0.54723  -0.54476  -0.54328  -0.54198
 Alpha  occ. eigenvalues --   -0.53754  -0.52934  -0.52814  -0.52590  -0.52398
 Alpha  occ. eigenvalues --   -0.52078  -0.51757  -0.51260  -0.51153  -0.51064
 Alpha  occ. eigenvalues --   -0.50917  -0.50838  -0.50155  -0.49952  -0.49345
 Alpha  occ. eigenvalues --   -0.48885  -0.48416  -0.48330  -0.47588  -0.47389
 Alpha  occ. eigenvalues --   -0.46898  -0.46580  -0.46392  -0.46047  -0.45793
 Alpha  occ. eigenvalues --   -0.45722  -0.45620  -0.45371  -0.45117  -0.44809
 Alpha  occ. eigenvalues --   -0.44772  -0.44274  -0.44177  -0.44047  -0.43829
 Alpha  occ. eigenvalues --   -0.43745  -0.43482  -0.43445  -0.43218  -0.43129
 Alpha  occ. eigenvalues --   -0.42782  -0.42713  -0.42624  -0.42445  -0.41555
 Alpha  occ. eigenvalues --   -0.41504  -0.41025  -0.40930  -0.40886  -0.40597
 Alpha  occ. eigenvalues --   -0.40532  -0.40331  -0.40099  -0.39747  -0.39552
 Alpha  occ. eigenvalues --   -0.39403  -0.39074  -0.38830  -0.36956  -0.36055
 Alpha  occ. eigenvalues --   -0.35889  -0.35619  -0.35558  -0.35525  -0.35256
 Alpha  occ. eigenvalues --   -0.35203  -0.34920  -0.34141  -0.33953  -0.33567
 Alpha  occ. eigenvalues --   -0.33183  -0.32820  -0.32662  -0.32395  -0.31910
 Alpha  occ. eigenvalues --   -0.31752  -0.31211  -0.30614  -0.30362  -0.29086
 Alpha  occ. eigenvalues --   -0.28681  -0.27882  -0.26968  -0.26392  -0.22705
 Alpha  occ. eigenvalues --   -0.18038  -0.14218
 Alpha virt. eigenvalues --   -0.13545  -0.10108  -0.09460  -0.08944  -0.07976
 Alpha virt. eigenvalues --   -0.07343  -0.06898  -0.05914  -0.04210  -0.04132
 Alpha virt. eigenvalues --   -0.04130  -0.03398  -0.03164  -0.02726  -0.02599

 Mulliken charges:
               1
     1  N   -0.711688
     2  H    0.437691
     3  H    0.413261
     4  H    0.427519
     5  C   -0.142285
     6  H    0.241784
     7  C    0.653725
     8  C   -0.387737
     9  H    0.180633
    10  H    0.215058
    11  O   -0.531781
    12  C    0.125728
    13  C   -0.219718
    14  H    0.130327
    15  C   -0.167041
    16  H    0.155035
    17  C   -0.122523
    18  H    0.157401
    19  C   -0.126257
    20  H    0.160581
    21  C   -0.124614
    22  H    0.160969
    23  N   -0.606033
    24  H    0.367923
    25  C   -0.039043
    26  H    0.161662
    27  C    0.640190
    28  C   -0.473221
    29  H    0.139803
    30  H    0.251688
    31  H    0.180164
    32  O   -0.535419
    33  N   -0.597856
    34  H    0.339262
    35  C   -0.056904
    36  H    0.170909
    37  C    0.642136
    38  C   -0.474931
    39  H    0.178104
    40  H    0.178958
    41  H    0.145909
    42  O   -0.554718
    43  N   -0.604196
    44  H    0.378250
    45  C   -0.060399
    46  H    0.185077
    47  C    0.635806
    48  C   -0.381840
    49  H    0.146089
    50  H    0.152631
    51  O   -0.551873
    52  C    0.143785
    53  C   -0.178372
    54  H    0.085191
    55  C   -0.162495
    56  H    0.073379
    57  C   -0.223648
    58  H    0.093059
    59  C   -0.227761
    60  H    0.019096
    61  O   -0.665448
    62  C    0.426394
    63  N   -0.629670
    64  H    0.369956
    65  C   -0.058433
    66  H    0.173332
    67  C    0.651224
    68  C   -0.265509
    69  H    0.129856
    70  H    0.145710
    71  O   -0.559557
    72  C   -0.080592
    73  H    0.140800
    74  C   -0.451685
    75  H    0.133033
    76  H    0.136597
    77  H    0.168543
    78  C   -0.441919
    79  H    0.138484
    80  H    0.136882
    81  H    0.134355
    82  N   -0.618567
    83  H    0.367858
    84  C   -0.022624
    85  H    0.148811
    86  C    0.643353
    87  C   -0.300138
    88  H    0.180150
    89  H    0.191536
    90  O   -0.521850
    91  C   -0.399950
    92  H    0.156623
    93  H    0.216234
    94  C    0.588494
    95  O   -0.449179
    96  O   -0.574127
    97  N   -0.590960
    98  H    0.324944
    99  C   -0.042382
   100  H    0.213911
   101  C    0.594154
   102  C   -0.299276
   103  H    0.164179
   104  H    0.142857
   105  O   -0.448931
   106  C   -0.275359
   107  H    0.187517
   108  H    0.184633
   109  C   -0.179314
   110  H    0.207187
   111  H    0.164696
   112  N   -0.574220
   113  H    0.363490
   114  N   -0.726114
   115  H    0.370089
   116  H    0.376926
   117  N   -0.731496
   118  H    0.367734
   119  H    0.372074
   120  C    0.717596
   121  O   -0.565722
   122  H    0.412583
   123  H    0.423793
 Sum of Mulliken charges =   1.00000

 Dipole moment (field-independent basis, Debye):
    X=              6.6163    Y=             -7.1382    Z=             -9.0275  Tot=             13.2750
 Quadrupole moment (field-independent basis, Debye-Ang):
   XX=            -47.0983   YY=           -346.8026   ZZ=            182.1197
   XY=            -66.0048   XZ=           -441.8486   YZ=             90.9855

 Normal termination of Gaussian 16 at Sun Aug  7 18:56:33 2022.
