 Gaussian 16, Revision C.01,
 Gaussian 16:  ES64L-G16RevC.01  3-Jul-2019

 ----------------------------------------------------------------------
 # B3LYP/6-31G* empiricaldispersion=gd3 guess=read geom=check nosymm in
 tegral(ultrafinegrid)
 ----------------------------------------------------------------------

 ------------------------------------------------------
 Candidate Structure: Conf:669 Charge calc in gas phase
 ------------------------------------------------------
 Structure from the checkpoint file:  "conf-669.chk"
 Charge =  1 Multiplicity = 1

                          Input orientation:
 ---------------------------------------------------------------------
 Center     Atomic      Atomic             Coordinates (Angstroms)
 Number     Number       Type             X           Y           Z
 ---------------------------------------------------------------------
      1          7           0       -2.841875   -4.757026    9.059163
      2          1           0       -3.214046   -5.677096    9.304040
      3          1           0       -2.597375   -4.240818    9.912320
      4          1           0       -2.018356   -4.903745    8.449600
      5          6           0       -3.791118   -3.967264    8.221815
      6          1           0       -4.813452   -4.203031    8.527875
      7          6           0       -3.502965   -4.370003    6.777933
      8          6           0       -3.530921   -2.460750    8.434425
      9          1           0       -4.210086   -1.910564    7.776207
     10          1           0       -2.508693   -2.240817    8.108436
     11          8           0       -2.401985   -4.843667    6.486490
     12          6           0       -3.721224   -2.068116    9.877544
     13          6           0       -5.001475   -2.049215   10.442712
     14          1           0       -5.863477   -2.264699    9.817988
     15          6           0       -2.619663   -1.791611   10.692508
     16          1           0       -1.619841   -1.797583   10.264842
     17          6           0       -5.176111   -1.741454   11.789668
     18          1           0       -6.176466   -1.718676   12.209421
     19          6           0       -2.790856   -1.490381   12.043862
     20          1           0       -1.925473   -1.270504   12.659870
     21          6           0       -4.071249   -1.464006   12.594806
     22          1           0       -4.208314   -1.223643   13.643736
     23          7           0       -4.499811   -4.126151    5.897048
     24          1           0       -5.253969   -3.516947    6.194003
     25          6           0       -4.265948   -4.016806    4.462039
     26          1           0       -3.220788   -4.278664    4.287819
     27          6           0       -4.537780   -2.543915    4.096324
     28          6           0       -5.200366   -4.931741    3.671015
     29          1           0       -5.015198   -4.829644    2.596777
     30          1           0       -6.243060   -4.662378    3.860706
     31          1           0       -5.051263   -5.974098    3.962800
     32          8           0       -5.375964   -1.898821    4.717258
     33          7           0       -3.832693   -2.051733    3.062499
     34          1           0       -3.161063   -2.599561    2.541043
     35          6           0       -4.004416   -0.693994    2.583084
     36          1           0       -5.072358   -0.506804    2.428948
     37          6           0       -3.255317   -0.608036    1.244531
     38          6           0       -3.459771    0.333535    3.584632
     39          1           0       -3.612259    1.350768    3.214691
     40          1           0       -2.387460    0.184926    3.745937
     41          1           0       -3.980790    0.223445    4.535329
     42          8           0       -2.498826   -1.518723    0.878841
     43          7           0       -3.445740    0.533804    0.575165
     44          1           0       -4.190956    1.148552    0.871878
     45          6           0       -2.772015    0.911268   -0.668467
     46          1           0       -2.831461    0.056168   -1.346638
     47          6           0       -1.306586    1.245720   -0.345544
     48          6           0       -3.530658    2.104300   -1.281324
     49          1           0       -3.400648    2.963442   -0.619446
     50          1           0       -3.049190    2.359132   -2.230139
     51          8           0       -0.932459    2.366804   -0.018762
     52          6           0       -4.975795    1.770574   -1.433741
     53          6           0       -5.405798    0.840860   -2.401889
     54          1           0       -4.669818    0.429677   -3.092531
     55          6           0       -5.933887    2.293454   -0.541059
     56          1           0       -5.613780    3.023458    0.203100
     57          6           0       -6.715470    0.437914   -2.486795
     58          1           0       -7.042807   -0.277714   -3.233820
     59          6           0       -7.252944    1.909471   -0.583371
     60          1           0       -7.985594    2.312624    0.107571
     61          8           0       -8.909827    0.569733   -1.612342
     62          6           0       -7.726846    0.942635   -1.564442
     63          7           0       -0.476655    0.173868   -0.437098
     64          1           0       -0.886433   -0.740098   -0.571729
     65          6           0        0.914826    0.195163   -0.057176
     66          1           0        1.187734    1.228992    0.158807
     67          6           0        1.773275   -0.338564   -1.209991
     68          6           0        1.158932   -0.694851    1.174740
     69          1           0        0.969544   -1.724700    0.865508
     70          1           0        2.218925   -0.631940    1.451606
     71          8           0        1.420267   -1.316220   -1.868845
     72          6           0        0.298694   -0.371439    2.403424
     73          1           0       -0.745453   -0.498241    2.111864
     74          6           0        0.585208   -1.377216    3.521573
     75          1           0        1.631531   -1.331797    3.837910
     76          1           0       -0.039892   -1.176411    4.398012
     77          1           0        0.372005   -2.406007    3.199490
     78          6           0        0.509122    1.061545    2.891934
     79          1           0        1.536062    1.198344    3.249178
     80          1           0        0.314899    1.792411    2.104335
     81          1           0       -0.167898    1.289801    3.722478
     82          7           0        2.961758    0.293668   -1.402889
     83          1           0        3.306679    0.841406   -0.627449
     84          6           0        3.977833   -0.251715   -2.296054
     85          1           0        3.461148   -0.508209   -3.223459
     86          6           0        4.593992   -1.522374   -1.684038
     87          6           0        5.067049    0.794288   -2.539267
     88          1           0        5.583132    0.977874   -1.592739
     89          1           0        5.804210    0.371926   -3.227518
     90          8           0        5.114010   -1.527269   -0.575241
     91          6           0        4.536003    2.113410   -3.117787
     92          1           0        5.376602    2.790453   -3.297584
     93          1           0        3.841589    2.598841   -2.429132
     94          6           0        3.806510    1.889710   -4.418214
     95          8           0        2.628133    2.070587   -4.610034
     96          8           0        4.639196    1.411398   -5.376993
     97          7           0        4.459579   -2.626002   -2.462129
     98          1           0        3.970175   -2.535230   -3.339559
     99          6           0        4.750422   -3.975625   -2.020416
    100          1           0        5.484116   -3.927797   -1.213370
    101          6           0        5.356699   -4.801001   -3.144728
    102          6           0        3.465338   -4.675606   -1.534046
    103          1           0        3.662095   -5.731370   -1.325398
    104          1           0        2.759074   -4.632956   -2.372415
    105          8           0        6.131090   -5.708286   -2.983562
    106          6           0        2.919158   -3.986474   -0.291746
    107          1           0        2.712249   -2.940901   -0.512240
    108          1           0        3.683557   -4.012067    0.488187
    109          6           0        1.608454   -4.561372    0.229371
    110          1           0        1.401612   -4.102394    1.198647
    111          1           0        1.631687   -5.649700    0.358764
    112          7           0        0.534728   -4.141319   -0.686581
    113          1           0        0.801039   -4.056808   -1.657200
    114          7           0       -1.191678   -4.709234    0.759788
    115          1           0       -2.133239   -4.493230    1.053639
    116          1           0       -0.516388   -4.790256    1.505617
    117          7           0       -1.658155   -3.957515   -1.406329
    118          1           0       -2.629095   -3.854798   -1.149265
    119          1           0       -1.356848   -3.340904   -2.150819
    120          6           0       -0.765708   -4.262688   -0.438726
    121          8           0        4.862199   -4.445821   -4.355863
    122          1           0        4.101467    1.298130   -6.176738
    123          1           0        5.273112   -5.030971   -5.012638
 ---------------------------------------------------------------------

 SCF Done:  E(RB3LYP) =  -2974.07498842     A.U. after    3 cycles

 Alpha  occ. eigenvalues --  -19.28902 -19.26463 -19.25789 -19.22870 -19.22135
 Alpha  occ. eigenvalues --  -19.21743 -19.21150 -19.20145 -19.20049 -19.17473
 Alpha  occ. eigenvalues --  -19.04190 -14.61167 -14.52457 -14.52004 -14.51403
 Alpha  occ. eigenvalues --  -14.49155 -14.46178 -14.45308 -14.45223 -14.43971
 Alpha  occ. eigenvalues --  -14.42576 -10.47958 -10.43072 -10.41082 -10.40824
 Alpha  occ. eigenvalues --  -10.39216 -10.38200 -10.37779 -10.37677 -10.37361
 Alpha  occ. eigenvalues --  -10.36284 -10.35145 -10.34626 -10.34079 -10.33513
 Alpha  occ. eigenvalues --  -10.32360 -10.32058 -10.31841 -10.31035 -10.30742
 Alpha  occ. eigenvalues --  -10.30277 -10.30263 -10.29940 -10.29924 -10.29914
 Alpha  occ. eigenvalues --  -10.29586 -10.29273 -10.28878 -10.27708 -10.27273
 Alpha  occ. eigenvalues --  -10.26965 -10.26669 -10.26396 -10.26395 -10.24021
 Alpha  occ. eigenvalues --  -10.21714 -10.19914 -10.17630 -10.17514 -10.17191
 Alpha  occ. eigenvalues --  -10.15147 -10.14885  -1.19804  -1.19244  -1.16919
 Alpha  occ. eigenvalues --   -1.16785  -1.15437  -1.14503  -1.13174  -1.13089
 Alpha  occ. eigenvalues --   -1.12084  -1.10818  -1.09432  -1.07712  -1.06360
 Alpha  occ. eigenvalues --   -1.06036  -1.05144  -1.02814  -1.02367  -1.01844
 Alpha  occ. eigenvalues --   -1.00871  -0.99635  -0.97840  -0.94546  -0.93834
 Alpha  occ. eigenvalues --   -0.92145  -0.89747  -0.89535  -0.88734  -0.86973
 Alpha  occ. eigenvalues --   -0.86969  -0.85964  -0.85668  -0.84048  -0.83492
 Alpha  occ. eigenvalues --   -0.81513  -0.80215  -0.80099  -0.79651  -0.78631
 Alpha  occ. eigenvalues --   -0.76976  -0.76219  -0.75332  -0.74954  -0.74490
 Alpha  occ. eigenvalues --   -0.74419  -0.74299  -0.72843  -0.72661  -0.72537
 Alpha  occ. eigenvalues --   -0.72175  -0.71904  -0.71289  -0.70243  -0.70159
 Alpha  occ. eigenvalues --   -0.69576  -0.69279  -0.68292  -0.67684  -0.67184
 Alpha  occ. eigenvalues --   -0.66500  -0.66297  -0.65484  -0.65378  -0.64792
 Alpha  occ. eigenvalues --   -0.64301  -0.64199  -0.63770  -0.62898  -0.62743
 Alpha  occ. eigenvalues --   -0.62123  -0.61489  -0.60234  -0.59353  -0.59080
 Alpha  occ. eigenvalues --   -0.58815  -0.58665  -0.57998  -0.57784  -0.57512
 Alpha  occ. eigenvalues --   -0.57279  -0.57246  -0.56764  -0.56714  -0.56647
 Alpha  occ. eigenvalues --   -0.56353  -0.56301  -0.55457  -0.55257  -0.55089
 Alpha  occ. eigenvalues --   -0.54807  -0.54674  -0.54360  -0.54248  -0.53756
 Alpha  occ. eigenvalues --   -0.53606  -0.53198  -0.53076  -0.52826  -0.52561
 Alpha  occ. eigenvalues --   -0.52159  -0.51981  -0.51781  -0.51404  -0.51319
 Alpha  occ. eigenvalues --   -0.50965  -0.50940  -0.50616  -0.49953  -0.49403
 Alpha  occ. eigenvalues --   -0.49201  -0.49119  -0.48758  -0.48140  -0.48091
 Alpha  occ. eigenvalues --   -0.47878  -0.47781  -0.47508  -0.47307  -0.47087
 Alpha  occ. eigenvalues --   -0.46603  -0.46499  -0.46363  -0.46285  -0.46044
 Alpha  occ. eigenvalues --   -0.45959  -0.45663  -0.45611  -0.45320  -0.45277
 Alpha  occ. eigenvalues --   -0.44975  -0.44351  -0.44252  -0.44040  -0.43868
 Alpha  occ. eigenvalues --   -0.43693  -0.43509  -0.43355  -0.42937  -0.42669
 Alpha  occ. eigenvalues --   -0.41151  -0.41084  -0.40867  -0.40779  -0.40362
 Alpha  occ. eigenvalues --   -0.40252  -0.40217  -0.39621  -0.39125  -0.38063
 Alpha  occ. eigenvalues --   -0.37448  -0.36716  -0.36553  -0.36431  -0.36387
 Alpha  occ. eigenvalues --   -0.36056  -0.35855  -0.35594  -0.35336  -0.35032
 Alpha  occ. eigenvalues --   -0.34674  -0.34265  -0.33472  -0.32953  -0.32683
 Alpha  occ. eigenvalues --   -0.32346  -0.31679  -0.30534  -0.28407  -0.23696
 Alpha  occ. eigenvalues --   -0.17818  -0.14750
 Alpha virt. eigenvalues --   -0.13798  -0.13125  -0.12056  -0.11110  -0.10569
 Alpha virt. eigenvalues --   -0.09896  -0.08271  -0.08104  -0.07665  -0.06840
 Alpha virt. eigenvalues --   -0.06415  -0.06116  -0.05649  -0.05360  -0.05295

 Mulliken charges:
               1
     1  N   -0.725337
     2  H    0.418152
     3  H    0.405298
     4  H    0.417185
     5  C   -0.134169
     6  H    0.214562
     7  C    0.622650
     8  C   -0.389436
     9  H    0.218750
    10  H    0.182643
    11  O   -0.538609
    12  C    0.140454
    13  C   -0.187150
    14  H    0.142710
    15  C   -0.219480
    16  H    0.139535
    17  C   -0.122747
    18  H    0.166887
    19  C   -0.123395
    20  H    0.163121
    21  C   -0.125790
    22  H    0.167514
    23  N   -0.578558
    24  H    0.358333
    25  C   -0.086742
    26  H    0.165216
    27  C    0.636490
    28  C   -0.438976
    29  H    0.150670
    30  H    0.191628
    31  H    0.174685
    32  O   -0.531239
    33  N   -0.619811
    34  H    0.326455
    35  C   -0.047535
    36  H    0.215583
    37  C    0.636646
    38  C   -0.464632
    39  H    0.179581
    40  H    0.160055
    41  H    0.184898
    42  O   -0.616068
    43  N   -0.580187
    44  H    0.359246
    45  C   -0.039329
    46  H    0.148022
    47  C    0.625969
    48  C   -0.401456
    49  H    0.168260
    50  H    0.158767
    51  O   -0.520712
    52  C    0.133313
    53  C   -0.180067
    54  H    0.067805
    55  C   -0.216993
    56  H    0.081497
    57  C   -0.218663
    58  H    0.090899
    59  C   -0.223057
    60  H    0.095205
    61  O   -0.613147
    62  C    0.415189
    63  N   -0.579674
    64  H    0.331330
    65  C   -0.088205
    66  H    0.190191
    67  C    0.659331
    68  C   -0.274551
    69  H    0.120072
    70  H    0.145720
    71  O   -0.580603
    72  C   -0.084390
    73  H    0.154485
    74  C   -0.441935
    75  H    0.152878
    76  H    0.142033
    77  H    0.096585
    78  C   -0.476851
    79  H    0.137034
    80  H    0.197645
    81  H    0.144149
    82  N   -0.580560
    83  H    0.346027
    84  C   -0.065263
    85  H    0.175107
    86  C    0.632462
    87  C   -0.315063
    88  H    0.176024
    89  H    0.184436
    90  O   -0.535737
    91  C   -0.332190
    92  H    0.189487
    93  H    0.181326
    94  C    0.560954
    95  O   -0.446111
    96  O   -0.562912
    97  N   -0.596561
    98  H    0.353706
    99  C   -0.057809
   100  H    0.216571
   101  C    0.591093
   102  C   -0.282278
   103  H    0.177044
   104  H    0.137870
   105  O   -0.437464
   106  C   -0.323499
   107  H    0.211113
   108  H    0.186536
   109  C   -0.161740
   110  H    0.174259
   111  H    0.186898
   112  N   -0.580311
   113  H    0.376665
   114  N   -0.746745
   115  H    0.370773
   116  H    0.379007
   117  N   -0.742031
   118  H    0.382200
   119  H    0.389555
   120  C    0.795598
   121  O   -0.578995
   122  H    0.415426
   123  H    0.429301
 Sum of Mulliken charges =   1.00000

 Dipole moment (field-independent basis, Debye):
    X=              9.1018    Y=            -31.4035    Z=             33.9688  Tot=             47.1476
 Quadrupole moment (field-independent basis, Debye-Ang):
   XX=           -469.6607   YY=           -244.3002   ZZ=              7.2808
   XY=             88.5617   XZ=           -181.4203   YZ=           -115.8852

 Normal termination of Gaussian 16 at Sun Aug  7 18:57:02 2022.
