 Gaussian 16, Revision C.01,
 Gaussian 16:  ES64L-G16RevC.01  3-Jul-2019

 ----------------------------------------------------------------------
 # B3LYP/6-31G* empiricaldispersion=gd3 guess=read geom=check nosymm in
 tegral(ultrafinegrid)
 ----------------------------------------------------------------------

 ------------------------------------------------------
 Candidate Structure: Conf:807 Charge calc in gas phase
 ------------------------------------------------------
 Structure from the checkpoint file:  "conf-807.chk"
 Charge =  1 Multiplicity = 1

                          Input orientation:
 ---------------------------------------------------------------------
 Center     Atomic      Atomic             Coordinates (Angstroms)
 Number     Number       Type             X           Y           Z
 ---------------------------------------------------------------------
      1          7           0       -4.809240   -1.743272    7.373735
      2          1           0       -5.422243   -2.421336    7.828176
      3          1           0       -3.892453   -1.733287    7.821725
      4          1           0       -4.725648   -2.007187    6.386059
      5          6           0       -5.399581   -0.394617    7.378216
      6          1           0       -6.004901   -0.257686    8.277913
      7          6           0       -6.275134   -0.276404    6.135532
      8          6           0       -4.316287    0.687389    7.367857
      9          1           0       -4.804059    1.664899    7.358623
     10          1           0       -3.737203    0.608871    6.441708
     11          8           0       -6.120112   -1.033094    5.179942
     12          6           0       -3.395036    0.577431    8.556288
     13          6           0       -3.863243    0.858464    9.838199
     14          1           0       -4.890312    1.183376    9.958757
     15          6           0       -2.084680    0.135207    8.406827
     16          1           0       -1.712938   -0.105578    7.415405
     17          6           0       -3.031943    0.728981   10.946160
     18          1           0       -3.415643    0.963735   11.932555
     19          6           0       -1.250707   -0.013335    9.511497
     20          1           0       -0.234811   -0.364101    9.372495
     21          6           0       -1.721793    0.288163   10.785797
     22          1           0       -1.072741    0.179212   11.647208
     23          7           0       -7.194617    0.713251    6.142690
     24          1           0       -7.182807    1.390789    6.883632
     25          6           0       -7.987975    1.033293    4.963231
     26          1           0       -8.181882    0.080985    4.462159
     27          6           0       -7.155700    1.933464    4.037340
     28          6           0       -9.276716    1.712427    5.383373
     29          1           0       -9.877162    1.965243    4.507207
     30          1           0       -9.059231    2.634876    5.925118
     31          1           0       -9.849402    1.042064    6.026689
     32          8           0       -7.323989    3.142667    3.964357
     33          7           0       -6.191677    1.300961    3.329028
     34          1           0       -5.993713    0.314855    3.453860
     35          6           0       -5.317856    2.047599    2.457774
     36          1           0       -5.911100    2.807902    1.945575
     37          6           0       -4.726969    1.076843    1.437272
     38          6           0       -4.198329    2.754495    3.230455
     39          1           0       -3.512768    3.235400    2.529056
     40          1           0       -3.639094    2.020943    3.817183
     41          1           0       -4.622019    3.501370    3.897911
     42          8           0       -4.629066   -0.114457    1.656890
     43          7           0       -4.290641    1.653304    0.277993
     44          1           0       -4.138853    2.645316    0.301293
     45          6           0       -3.353526    0.920942   -0.551138
     46          1           0       -3.616273   -0.133469   -0.460484
     47          6           0       -1.930997    1.114669   -0.010179
     48          6           0       -3.468742    1.329655   -2.032954
     49          1           0       -2.796830    0.689814   -2.611951
     50          1           0       -4.490640    1.109643   -2.348979
     51          8           0       -1.649766    1.925381    0.861094
     52          6           0       -3.160237    2.760902   -2.285287
     53          6           0       -4.165710    3.740144   -2.174182
     54          1           0       -5.175098    3.426878   -1.916514
     55          6           0       -1.853402    3.171873   -2.620727
     56          1           0       -1.073622    2.418213   -2.708371
     57          6           0       -3.909721    5.067410   -2.368570
     58          1           0       -4.679711    5.821311   -2.275166
     59          6           0       -1.537735    4.483680   -2.836427
     60          1           0       -0.535833    4.796798   -3.095697
     61          8           0       -2.310394    6.702159   -2.912325
     62          6           0       -2.564155    5.514829   -2.722419
     63          7           0       -0.990482    0.340093   -0.599689
     64          1           0       -1.255344   -0.416902   -1.208238
     65          6           0        0.396487    0.393100   -0.169702
     66          1           0        0.648408    1.443980   -0.018024
     67          6           0        1.214324   -0.210441   -1.296792
     68          6           0        0.616655   -0.379481    1.134242
     69          1           0        0.002706    0.084566    1.905039
     70          1           0        0.239678   -1.393642    0.986926
     71          8           0        0.980834   -1.333337   -1.718360
     72          6           0        2.067972   -0.474738    1.615992
     73          1           0        2.641339   -1.022042    0.860182
     74          6           0        2.715654    0.892186    1.811924
     75          1           0        2.128681    1.498016    2.508518
     76          1           0        3.721922    0.775760    2.223521
     77          1           0        2.819435    1.442771    0.875840
     78          6           0        2.108446   -1.275974    2.915873
     79          1           0        1.559861   -0.749800    3.700052
     80          1           0        1.656640   -2.260665    2.782456
     81          1           0        3.136735   -1.419561    3.253533
     82          7           0        2.196969    0.582418   -1.807994
     83          1           0        2.455750    1.405902   -1.289061
     84          6           0        3.224815    0.009629   -2.670464
     85          1           0        2.718205   -0.688807   -3.338392
     86          6           0        4.233790   -0.740961   -1.807611
     87          6           0        3.912751    1.113756   -3.475002
     88          1           0        3.127692    1.691014   -3.962734
     89          1           0        4.436237    1.787020   -2.797055
     90          8           0        4.807986   -0.200873   -0.863736
     91          6           0        4.884100    0.573077   -4.523568
     92          1           0        4.392113   -0.109840   -5.217141
     93          1           0        5.691077    0.026867   -4.030273
     94          6           0        5.521526    1.656609   -5.346394
     95          8           0        5.631376    1.648353   -6.545161
     96          8           0        6.001705    2.661391   -4.579118
     97          7           0        4.439267   -2.031581   -2.165514
     98          1           0        3.923174   -2.414461   -2.937308
     99          6           0        5.540324   -2.805942   -1.613836
    100          1           0        5.886145   -2.249393   -0.744306
    101          6           0        6.653206   -2.833123   -2.638496
    102          6           0        5.088966   -4.204683   -1.226781
    103          1           0        4.843947   -4.755860   -2.137062
    104          1           0        4.173738   -4.108189   -0.646689
    105          8           0        6.948828   -3.770099   -3.339730
    106          6           0        6.133260   -4.965423   -0.422533
    107          1           0        6.386051   -4.402047    0.478518
    108          1           0        7.054714   -5.055840   -1.006981
    109          6           0        5.652940   -6.348765   -0.033055
    110          1           0        6.461084   -6.916874    0.443670
    111          1           0        5.356930   -6.890121   -0.934907
    112          7           0        4.486475   -6.239060    0.871207
    113          1           0        4.560072   -5.494837    1.550619
    114          7           0        4.107381   -8.548499    0.836383
    115          1           0        3.432819   -9.283980    0.974362
    116          1           0        4.653276   -8.606701   -0.007119
    117          7           0        2.968631   -7.168485    2.353994
    118          1           0        2.338969   -7.934219    2.539263
    119          1           0        2.556614   -6.252678    2.467008
    120          6           0        3.847838   -7.325111    1.334786
    121          8           0        7.275913   -1.636855   -2.721875
    122          1           0        6.409357    3.293487   -5.183746
    123          1           0        7.955501   -1.752008   -3.399306
 ---------------------------------------------------------------------

 SCF Done:  E(RB3LYP) =  -2974.02713609     A.U. after    3 cycles

 Alpha  occ. eigenvalues --  -19.27942 -19.25402 -19.24117 -19.22962 -19.19114
 Alpha  occ. eigenvalues --  -19.18380 -19.18159 -19.17481 -19.16457 -19.15250
 Alpha  occ. eigenvalues --  -19.04670 -14.61287 -14.51491 -14.51141 -14.51107
 Alpha  occ. eigenvalues --  -14.48557 -14.44992 -14.42682 -14.41262 -14.40107
 Alpha  occ. eigenvalues --  -14.39037 -10.45510 -10.42142 -10.40579 -10.40329
 Alpha  occ. eigenvalues --  -10.36724 -10.36162 -10.35750 -10.34865 -10.34725
 Alpha  occ. eigenvalues --  -10.33502 -10.32989 -10.32569 -10.32040 -10.32000
 Alpha  occ. eigenvalues --  -10.31253 -10.30307 -10.30211 -10.30208 -10.29812
 Alpha  occ. eigenvalues --  -10.29572 -10.29487 -10.29226 -10.28839 -10.28218
 Alpha  occ. eigenvalues --  -10.27887 -10.25876 -10.25816 -10.25772 -10.25656
 Alpha  occ. eigenvalues --  -10.24802 -10.24275 -10.23568 -10.22775 -10.22676
 Alpha  occ. eigenvalues --  -10.20764 -10.19749 -10.16823 -10.16775 -10.16714
 Alpha  occ. eigenvalues --  -10.14715 -10.14653  -1.19506  -1.18970  -1.15909
 Alpha  occ. eigenvalues --   -1.15617  -1.15463  -1.11430  -1.10482  -1.10353
 Alpha  occ. eigenvalues --   -1.10054  -1.08936  -1.07423  -1.06299  -1.05553
 Alpha  occ. eigenvalues --   -1.05049  -1.04698  -1.01702  -0.99395  -0.98073
 Alpha  occ. eigenvalues --   -0.97672  -0.97049  -0.96317  -0.95472  -0.93613
 Alpha  occ. eigenvalues --   -0.91952  -0.87921  -0.87831  -0.87197  -0.85934
 Alpha  occ. eigenvalues --   -0.85532  -0.85192  -0.83838  -0.81871  -0.81570
 Alpha  occ. eigenvalues --   -0.80172  -0.79751  -0.78810  -0.77822  -0.77535
 Alpha  occ. eigenvalues --   -0.75559  -0.74890  -0.74597  -0.74137  -0.74043
 Alpha  occ. eigenvalues --   -0.72774  -0.72307  -0.72264  -0.72146  -0.71723
 Alpha  occ. eigenvalues --   -0.71286  -0.70953  -0.69883  -0.69406  -0.69051
 Alpha  occ. eigenvalues --   -0.67709  -0.67209  -0.66197  -0.65980  -0.64842
 Alpha  occ. eigenvalues --   -0.64545  -0.64296  -0.64065  -0.64012  -0.63334
 Alpha  occ. eigenvalues --   -0.63251  -0.62733  -0.61988  -0.61764  -0.61420
 Alpha  occ. eigenvalues --   -0.60363  -0.60277  -0.59844  -0.58903  -0.58108
 Alpha  occ. eigenvalues --   -0.58034  -0.57438  -0.57271  -0.57155  -0.56871
 Alpha  occ. eigenvalues --   -0.56648  -0.55938  -0.55718  -0.55092  -0.54984
 Alpha  occ. eigenvalues --   -0.54411  -0.54004  -0.53868  -0.53312  -0.53178
 Alpha  occ. eigenvalues --   -0.52997  -0.52921  -0.52775  -0.52355  -0.52125
 Alpha  occ. eigenvalues --   -0.51812  -0.51288  -0.51113  -0.50849  -0.50461
 Alpha  occ. eigenvalues --   -0.50274  -0.50052  -0.49581  -0.49400  -0.49285
 Alpha  occ. eigenvalues --   -0.48879  -0.48251  -0.47884  -0.47709  -0.47567
 Alpha  occ. eigenvalues --   -0.47220  -0.47009  -0.46916  -0.46742  -0.46215
 Alpha  occ. eigenvalues --   -0.46044  -0.45981  -0.45749  -0.45630  -0.45391
 Alpha  occ. eigenvalues --   -0.45252  -0.45010  -0.44937  -0.44888  -0.44641
 Alpha  occ. eigenvalues --   -0.44363  -0.44303  -0.43909  -0.43097  -0.43085
 Alpha  occ. eigenvalues --   -0.42973  -0.42878  -0.42563  -0.42538  -0.42369
 Alpha  occ. eigenvalues --   -0.42173  -0.41678  -0.41305  -0.40749  -0.40570
 Alpha  occ. eigenvalues --   -0.40336  -0.40245  -0.39866  -0.39743  -0.38987
 Alpha  occ. eigenvalues --   -0.38833  -0.38483  -0.38322  -0.38085  -0.37181
 Alpha  occ. eigenvalues --   -0.36443  -0.36218  -0.35840  -0.35780  -0.35037
 Alpha  occ. eigenvalues --   -0.34353  -0.33407  -0.32903  -0.32431  -0.32205
 Alpha  occ. eigenvalues --   -0.32066  -0.31852  -0.31349  -0.31022  -0.30285
 Alpha  occ. eigenvalues --   -0.29835  -0.29298  -0.28760  -0.27851  -0.23193
 Alpha  occ. eigenvalues --   -0.17907  -0.14010
 Alpha virt. eigenvalues --   -0.13257  -0.13111  -0.11523  -0.10526  -0.10395
 Alpha virt. eigenvalues --   -0.08959  -0.08439  -0.06081  -0.05381  -0.04910
 Alpha virt. eigenvalues --   -0.04387  -0.04190  -0.03753  -0.03635  -0.03251

 Mulliken charges:
               1
     1  N   -0.713688
     2  H    0.418471
     3  H    0.401479
     4  H    0.420783
     5  C   -0.136260
     6  H    0.210864
     7  C    0.639221
     8  C   -0.392045
     9  H    0.208176
    10  H    0.199615
    11  O   -0.528725
    12  C    0.143918
    13  C   -0.189208
    14  H    0.132589
    15  C   -0.213679
    16  H    0.140091
    17  C   -0.122690
    18  H    0.162950
    19  C   -0.125028
    20  H    0.155997
    21  C   -0.126434
    22  H    0.163057
    23  N   -0.585793
    24  H    0.342705
    25  C   -0.076288
    26  H    0.195711
    27  C    0.617638
    28  C   -0.457746
    29  H    0.196422
    30  H    0.172497
    31  H    0.152666
    32  O   -0.513595
    33  N   -0.623325
    34  H    0.364699
    35  C   -0.050856
    36  H    0.194033
    37  C    0.612189
    38  C   -0.451376
    39  H    0.196004
    40  H    0.123300
    41  H    0.172830
    42  O   -0.540702
    43  N   -0.580971
    44  H    0.353751
    45  C   -0.085428
    46  H    0.167684
    47  C    0.653301
    48  C   -0.357473
    49  H    0.129992
    50  H    0.153659
    51  O   -0.542409
    52  C    0.127307
    53  C   -0.197001
    54  H    0.092007
    55  C   -0.172358
    56  H    0.076074
    57  C   -0.208551
    58  H    0.104870
    59  C   -0.206888
    60  H    0.094009
    61  O   -0.584207
    62  C    0.414428
    63  N   -0.622948
    64  H    0.341079
    65  C   -0.019450
    66  H    0.179674
    67  C    0.614628
    68  C   -0.253439
    69  H    0.160739
    70  H    0.129877
    71  O   -0.553601
    72  C   -0.093064
    73  H    0.132780
    74  C   -0.435466
    75  H    0.149854
    76  H    0.149426
    77  H    0.138973
    78  C   -0.439962
    79  H    0.141926
    80  H    0.112655
    81  H    0.135836
    82  N   -0.599786
    83  H    0.353385
    84  C   -0.058015
    85  H    0.168621
    86  C    0.644005
    87  C   -0.297576
    88  H    0.184344
    89  H    0.190919
    90  O   -0.531864
    91  C   -0.369490
    92  H    0.172872
    93  H    0.184855
    94  C    0.570195
    95  O   -0.448106
    96  O   -0.558294
    97  N   -0.608341
    98  H    0.346896
    99  C   -0.034917
   100  H    0.207220
   101  C    0.586142
   102  C   -0.269006
   103  H    0.163484
   104  H    0.159662
   105  O   -0.457230
   106  C   -0.318810
   107  H    0.155902
   108  H    0.197020
   109  C   -0.163597
   110  H    0.186940
   111  H    0.178680
   112  N   -0.586482
   113  H    0.354505
   114  N   -0.736100
   115  H    0.365370
   116  H    0.379940
   117  N   -0.741154
   118  H    0.359796
   119  H    0.365511
   120  C    0.716988
   121  O   -0.548494
   122  H    0.418340
   123  H    0.423888
 Sum of Mulliken charges =   1.00000

 Dipole moment (field-independent basis, Debye):
    X=              4.5731    Y=            -41.8942    Z=             38.8503  Tot=             57.3183
 Quadrupole moment (field-independent basis, Debye-Ang):
   XX=           -200.3961   YY=           -254.6155   ZZ=           -118.0282
   XY=            -34.9722   XZ=           -160.6529   YZ=            -19.8448

 Normal termination of Gaussian 16 at Sun Aug  7 18:56:27 2022.
