 Gaussian 16, Revision C.01,
 Gaussian 16:  ES64L-G16RevC.01  3-Jul-2019

 ----------------------------------------------------------------------
 # B3LYP/6-31G* empiricaldispersion=gd3 guess=read geom=check nosymm in
 tegral(ultrafinegrid)
 ----------------------------------------------------------------------

 ------------------------------------------------------
 Candidate Structure: Conf:288 Charge calc in gas phase
 ------------------------------------------------------
 Structure from the checkpoint file:  "conf-288.chk"
 Charge =  1 Multiplicity = 1

                          Input orientation:
 ---------------------------------------------------------------------
 Center     Atomic      Atomic             Coordinates (Angstroms)
 Number     Number       Type             X           Y           Z
 ---------------------------------------------------------------------
      1          7           0       -9.678205    4.068234    0.723038
      2          1           0      -10.437902    3.701354    0.144659
      3          1           0       -9.487823    5.040871    0.448686
      4          1           0       -9.954063    3.972460    1.734694
      5          6           0       -8.423337    3.222477    0.655500
      6          1           0       -8.356743    2.736411   -0.316752
      7          6           0       -8.584330    2.237821    1.825225
      8          6           0       -7.198474    4.129402    0.888223
      9          1           0       -6.338098    3.461406    0.929381
     10          1           0       -7.288064    4.602607    1.872932
     11          8           0       -9.336283    2.570414    2.754405
     12          6           0       -7.072234    5.147045   -0.220503
     13          6           0       -7.429561    6.487687   -0.019067
     14          1           0       -7.713650    6.826062    0.976757
     15          6           0       -6.660188    4.731733   -1.497950
     16          1           0       -6.392050    3.686187   -1.639631
     17          6           0       -7.375710    7.404919   -1.075072
     18          1           0       -7.645557    8.443335   -0.904145
     19          6           0       -6.604023    5.648389   -2.546042
     20          1           0       -6.279774    5.322486   -3.530934
     21          6           0       -6.964180    6.985227   -2.339262
     22          1           0       -6.919399    7.695068   -3.160380
     23          7           0       -7.848473    1.129927    1.721578
     24          1           0       -7.245883    1.091942    0.871128
     25          6           0       -7.416116    0.410997    2.914465
     26          1           0       -8.159554    0.618365    3.691785
     27          6           0       -6.102983    1.095381    3.391858
     28          6           0       -7.341617   -1.096301    2.665935
     29          1           0       -7.161926   -1.638215    3.600442
     30          1           0       -6.545210   -1.341661    1.957005
     31          1           0       -8.292632   -1.449747    2.258149
     32          8           0       -5.962502    2.308527    3.259645
     33          7           0       -5.185164    0.298790    3.995462
     34          1           0       -5.242088   -0.708198    3.912436
     35          6           0       -3.887615    0.805584    4.427328
     36          1           0       -3.838857    1.848112    4.103918
     37          6           0       -2.813311   -0.040799    3.733163
     38          6           0       -3.726516    0.712818    5.951070
     39          1           0       -2.753234    1.109246    6.260681
     40          1           0       -3.792791   -0.331107    6.274400
     41          1           0       -4.514499    1.288741    6.444905
     42          8           0       -2.919852   -1.263275    3.655987
     43          7           0       -1.744679    0.645229    3.256156
     44          1           0       -1.786026    1.654720    3.174521
     45          6           0       -0.748692    0.003673    2.424921
     46          1           0       -0.255478   -0.781168    3.010220
     47          6           0        0.280665    1.065417    2.035313
     48          6           0       -1.335675   -0.673313    1.126451
     49          1           0       -0.546203   -0.657659    0.361645
     50          1           0       -1.526437   -1.720304    1.373673
     51          8           0        0.011118    2.263995    2.001737
     52          6           0       -2.619674   -0.065201    0.608471
     53          6           0       -3.736660   -0.885961    0.373406
     54          1           0       -3.654253   -1.953861    0.573466
     55          6           0       -2.785262    1.314395    0.394109
     56          1           0       -1.954575    1.985981    0.598709
     57          6           0       -4.949416   -0.374110   -0.073201
     58          1           0       -5.799579   -1.029749   -0.246398
     59          6           0       -3.994842    1.853055   -0.043182
     60          1           0       -4.110581    2.929926   -0.148096
     61          8           0       -6.317377    1.520187   -0.537963
     62          6           0       -5.156267    1.033860   -0.250242
     63          7           0        1.506302    0.570972    1.696050
     64          1           0        1.618182   -0.435286    1.666561
     65          6           0        2.469507    1.359372    0.942082
     66          1           0        2.091980    2.386442    0.970441
     67          6           0        2.366397    0.913910   -0.526587
     68          6           0        3.874630    1.304965    1.560232
     69          1           0        4.280711    0.288082    1.452015
     70          1           0        4.530469    1.980989    0.991698
     71          8           0        1.257333    0.682091   -1.032084
     72          6           0        3.929762    1.711360    3.046749
     73          1           0        3.316980    0.992212    3.606492
     74          6           0        5.374714    1.609125    3.554692
     75          1           0        6.024900    2.324680    3.034827
     76          1           0        5.426802    1.832598    4.625507
     77          1           0        5.788007    0.604981    3.401024
     78          6           0        3.355673    3.115394    3.287353
     79          1           0        3.886001    3.863616    2.682845
     80          1           0        2.288502    3.173804    3.048594
     81          1           0        3.473827    3.399203    4.338650
     82          7           0        3.493162    0.763576   -1.256351
     83          1           0        4.384932    0.740692   -0.780650
     84          6           0        3.388414    0.085746   -2.542045
     85          1           0        2.755299    0.694446   -3.197713
     86          6           0        2.754588   -1.304220   -2.297992
     87          6           0        4.780924   -0.118060   -3.171943
     88          1           0        5.378998    0.790461   -3.046821
     89          1           0        5.284568   -0.921084   -2.621174
     90          8           0        3.107781   -1.987540   -1.352678
     91          6           0        4.687750   -0.462812   -4.678026
     92          1           0        4.597130    0.461163   -5.259951
     93          1           0        3.820621   -1.080226   -4.906484
     94          6           0        5.897344   -1.224204   -5.173630
     95          8           0        5.888346   -2.365783   -5.595692
     96          8           0        7.020427   -0.491938   -5.081815
     97          7           0        1.819269   -1.711755   -3.220635
     98          1           0        1.666177   -1.103238   -4.019456
     99          6           0        1.658673   -3.146100   -3.534665
    100          1           0        2.068657   -3.696697   -2.687054
    101          6           0        2.557257   -3.327061   -4.762911
    102          6           0        0.196036   -3.508961   -3.776383
    103          1           0        0.165922   -4.543827   -4.134147
    104          1           0       -0.191254   -2.897124   -4.600028
    105          8           0        2.224819   -2.973156   -5.875820
    106          6           0       -0.671659   -3.364046   -2.500918
    107          1           0       -0.034826   -3.229803   -1.616360
    108          1           0       -1.228176   -4.291138   -2.330546
    109          6           0       -1.709208   -2.240556   -2.534512
    110          1           0       -2.375152   -2.332141   -1.665863
    111          1           0       -2.316802   -2.329800   -3.444437
    112          7           0       -1.082899   -0.914649   -2.505591
    113          1           0       -0.082989   -0.864876   -2.325005
    114          7           0       -3.110666    0.226581   -2.692094
    115          1           0       -3.622779    0.987928   -2.245392
    116          1           0       -3.602928   -0.646786   -2.554335
    117          7           0       -1.137957    1.398253   -2.318492
    118          1           0       -1.716122    2.187267   -2.057904
    119          1           0       -0.230966    1.364071   -1.850857
    120          6           0       -1.782577    0.223413   -2.465700
    121          8           0        3.783172   -3.726591   -4.408806
    122          1           0        7.760608   -1.043603   -5.401961
    123          1           0        4.422069   -3.533764   -5.137002
 ---------------------------------------------------------------------

 SCF Done:  E(RB3LYP) =  -2974.22593276     A.U. after    1 cycles

 Alpha  occ. eigenvalues --  -19.29003 -19.26738 -19.23883 -19.23574 -19.22146
 Alpha  occ. eigenvalues --  -19.21958 -19.20900 -19.20697 -19.18009 -19.17476
 Alpha  occ. eigenvalues --  -19.13599 -14.54865 -14.47603 -14.47562 -14.46924
 Alpha  occ. eigenvalues --  -14.46154 -14.45885 -14.45338 -14.42609 -14.42227
 Alpha  occ. eigenvalues --  -14.42128 -10.43068 -10.41956 -10.40182 -10.40031
 Alpha  occ. eigenvalues --  -10.39247 -10.37752 -10.37154 -10.34991 -10.34876
 Alpha  occ. eigenvalues --  -10.34596 -10.34093 -10.33007 -10.32911 -10.32751
 Alpha  occ. eigenvalues --  -10.31267 -10.30639 -10.30144 -10.30053 -10.29264
 Alpha  occ. eigenvalues --  -10.28989 -10.28581 -10.28308 -10.27851 -10.27370
 Alpha  occ. eigenvalues --  -10.27179 -10.26729 -10.26462 -10.26450 -10.26313
 Alpha  occ. eigenvalues --  -10.26259 -10.26156 -10.25620 -10.24951 -10.24727
 Alpha  occ. eigenvalues --  -10.24558 -10.24267 -10.24054 -10.24026 -10.23747
 Alpha  occ. eigenvalues --  -10.23113 -10.22859  -1.20098  -1.18117  -1.15721
 Alpha  occ. eigenvalues --   -1.13946  -1.13086  -1.12735  -1.11955  -1.11071
 Alpha  occ. eigenvalues --   -1.10158  -1.09408  -1.09333  -1.08461  -1.03914
 Alpha  occ. eigenvalues --   -1.03240  -1.02513  -1.01982  -1.01610  -0.99789
 Alpha  occ. eigenvalues --   -0.99681  -0.99398  -0.98490  -0.93109  -0.91533
 Alpha  occ. eigenvalues --   -0.89982  -0.89585  -0.89239  -0.87952  -0.85782
 Alpha  occ. eigenvalues --   -0.85368  -0.84624  -0.83740  -0.82169  -0.81698
 Alpha  occ. eigenvalues --   -0.81559  -0.80628  -0.79660  -0.78028  -0.77903
 Alpha  occ. eigenvalues --   -0.75095  -0.74843  -0.74452  -0.74248  -0.73829
 Alpha  occ. eigenvalues --   -0.72514  -0.71884  -0.71290  -0.71149  -0.70087
 Alpha  occ. eigenvalues --   -0.69396  -0.68976  -0.68830  -0.68383  -0.68179
 Alpha  occ. eigenvalues --   -0.68067  -0.67894  -0.67404  -0.66010  -0.65556
 Alpha  occ. eigenvalues --   -0.65414  -0.65078  -0.64975  -0.64491  -0.64350
 Alpha  occ. eigenvalues --   -0.63220  -0.62736  -0.62135  -0.61334  -0.60742
 Alpha  occ. eigenvalues --   -0.59954  -0.59385  -0.58953  -0.58568  -0.58417
 Alpha  occ. eigenvalues --   -0.58178  -0.57921  -0.57171  -0.57067  -0.56920
 Alpha  occ. eigenvalues --   -0.56573  -0.56246  -0.55803  -0.55531  -0.55363
 Alpha  occ. eigenvalues --   -0.54932  -0.54565  -0.54185  -0.54032  -0.53632
 Alpha  occ. eigenvalues --   -0.53144  -0.52959  -0.52865  -0.52784  -0.52341
 Alpha  occ. eigenvalues --   -0.52209  -0.51799  -0.51697  -0.51513  -0.51204
 Alpha  occ. eigenvalues --   -0.51156  -0.50569  -0.50494  -0.50240  -0.50140
 Alpha  occ. eigenvalues --   -0.49634  -0.49542  -0.49163  -0.49106  -0.48811
 Alpha  occ. eigenvalues --   -0.48668  -0.48245  -0.48064  -0.47968  -0.47700
 Alpha  occ. eigenvalues --   -0.47452  -0.47204  -0.46996  -0.46869  -0.46723
 Alpha  occ. eigenvalues --   -0.46494  -0.46117  -0.45814  -0.45549  -0.45513
 Alpha  occ. eigenvalues --   -0.45400  -0.45073  -0.44871  -0.44742  -0.44252
 Alpha  occ. eigenvalues --   -0.44188  -0.44127  -0.44104  -0.43963  -0.43781
 Alpha  occ. eigenvalues --   -0.43579  -0.43452  -0.42676  -0.42494  -0.41786
 Alpha  occ. eigenvalues --   -0.41355  -0.41327  -0.41175  -0.40961  -0.40738
 Alpha  occ. eigenvalues --   -0.39901  -0.39862  -0.39835  -0.39825  -0.39376
 Alpha  occ. eigenvalues --   -0.38458  -0.38315  -0.37627  -0.37407  -0.37235
 Alpha  occ. eigenvalues --   -0.36881  -0.35742  -0.35585  -0.35268  -0.34908
 Alpha  occ. eigenvalues --   -0.34477  -0.34355  -0.33740  -0.32723  -0.32594
 Alpha  occ. eigenvalues --   -0.32456  -0.31835  -0.31302  -0.30629  -0.30455
 Alpha  occ. eigenvalues --   -0.27863  -0.24296
 Alpha virt. eigenvalues --   -0.10808  -0.09541  -0.08837  -0.08617  -0.08287
 Alpha virt. eigenvalues --   -0.08068  -0.06835  -0.06552  -0.06201  -0.05928
 Alpha virt. eigenvalues --   -0.05226  -0.04399  -0.03912  -0.02965  -0.02442

 Mulliken charges:
               1
     1  N   -0.748252
     2  H    0.404832
     3  H    0.397637
     4  H    0.415360
     5  C   -0.129043
     6  H    0.233875
     7  C    0.641273
     8  C   -0.367966
     9  H    0.242842
    10  H    0.175356
    11  O   -0.555087
    12  C    0.118046
    13  C   -0.225169
    14  H    0.137066
    15  C   -0.193198
    16  H    0.182270
    17  C   -0.126831
    18  H    0.148612
    19  C   -0.132970
    20  H    0.142260
    21  C   -0.127240
    22  H    0.147542
    23  N   -0.605138
    24  H    0.409175
    25  C   -0.081302
    26  H    0.206840
    27  C    0.634518
    28  C   -0.493872
    29  H    0.162102
    30  H    0.174749
    31  H    0.174195
    32  O   -0.528993
    33  N   -0.604626
    34  H    0.352523
    35  C   -0.059763
    36  H    0.181475
    37  C    0.642082
    38  C   -0.442141
    39  H    0.157056
    40  H    0.167386
    41  H    0.171472
    42  O   -0.548818
    43  N   -0.619569
    44  H    0.356087
    45  C   -0.015830
    46  H    0.175068
    47  C    0.617694
    48  C   -0.389725
    49  H    0.145678
    50  H    0.174330
    51  O   -0.530253
    52  C    0.136558
    53  C   -0.193282
    54  H    0.125527
    55  C   -0.220264
    56  H    0.144339
    57  C   -0.254733
    58  H    0.118573
    59  C   -0.275893
    60  H    0.121667
    61  O   -0.705791
    62  C    0.414096
    63  N   -0.582467
    64  H    0.341738
    65  C   -0.076935
    66  H    0.223045
    67  C    0.645033
    68  C   -0.307322
    69  H    0.146470
    70  H    0.142601
    71  O   -0.569018
    72  C   -0.066336
    73  H    0.140375
    74  C   -0.447297
    75  H    0.144603
    76  H    0.160404
    77  H    0.144606
    78  C   -0.473022
    79  H    0.139834
    80  H    0.174792
    81  H    0.158468
    82  N   -0.603606
    83  H    0.361270
    84  C   -0.024865
    85  H    0.165680
    86  C    0.627946
    87  C   -0.322656
    88  H    0.185120
    89  H    0.193664
    90  O   -0.507246
    91  C   -0.369038
    92  H    0.196926
    93  H    0.180400
    94  C    0.597584
    95  O   -0.472478
    96  O   -0.543939
    97  N   -0.637171
    98  H    0.343076
    99  C   -0.046481
   100  H    0.212855
   101  C    0.579392
   102  C   -0.280074
   103  H    0.177712
   104  H    0.170253
   105  O   -0.469596
   106  C   -0.318355
   107  H    0.174151
   108  H    0.177843
   109  C   -0.160234
   110  H    0.184696
   111  H    0.177967
   112  N   -0.627657
   113  H    0.397428
   114  N   -0.723507
   115  H    0.369267
   116  H    0.367508
   117  N   -0.767688
   118  H    0.356216
   119  H    0.405484
   120  C    0.755451
   121  O   -0.575957
   122  H    0.430013
   123  H    0.448657
 Sum of Mulliken charges =   1.00000

 Dipole moment (field-independent basis, Debye):
    X=             -9.1383    Y=              7.5905    Z=             -6.3266  Tot=             13.4592
 Quadrupole moment (field-independent basis, Debye-Ang):
   XX=           -121.9351   YY=           -304.0658   ZZ=           -334.9817
   XY=            -68.3822   XZ=            -12.3992   YZ=             -4.5632

 Normal termination of Gaussian 16 at Sun Aug  7 18:51:42 2022.
