 Gaussian 16, Revision C.01,
 Gaussian 16:  ES64L-G16RevC.01  3-Jul-2019

 ----------------------------------------------------------------------
 # B3LYP/6-31G* empiricaldispersion=gd3 guess=read geom=check nosymm in
 tegral(ultrafinegrid)
 ----------------------------------------------------------------------

 ------------------------------------------------------
 Candidate Structure: Conf:112 Charge calc in gas phase
 ------------------------------------------------------
 Structure from the checkpoint file:  "conf-112.chk"
 Charge =  1 Multiplicity = 1

                          Input orientation:
 ---------------------------------------------------------------------
 Center     Atomic      Atomic             Coordinates (Angstroms)
 Number     Number       Type             X           Y           Z
 ---------------------------------------------------------------------
      1          7           0       -6.870895    4.035502    1.078142
      2          1           0       -5.623886    3.458428   -0.103551
      3          1           0       -7.689478    4.502964    0.687686
      4          1           0       -7.198454    3.176175    1.522703
      5          6           0       -6.288938    4.883151    2.136895
      6          1           0       -5.863993    5.768111    1.649182
      7          6           0       -5.187817    4.042437    2.794187
      8          6           0       -7.308185    5.339602    3.215794
      9          1           0       -6.775538    5.940048    3.964396
     10          1           0       -7.677381    4.442525    3.726865
     11          8           0       -5.428151    2.866991    3.083202
     12          6           0       -8.447462    6.130151    2.616372
     13          6           0       -8.295520    7.495411    2.335803
     14          1           0       -7.368950    7.997609    2.607148
     15          6           0       -9.651984    5.503680    2.267516
     16          1           0       -9.791405    4.448638    2.493702
     17          6           0       -9.320561    8.217320    1.725299
     18          1           0       -9.189173    9.276672    1.522856
     19          6           0      -10.680457    6.223150    1.654307
     20          1           0      -11.610486    5.723317    1.398089
     21          6           0      -10.516236    7.581576    1.380801
     22          1           0      -11.316484    8.143972    0.908369
     23          7           0       -4.001476    4.652678    3.035905
     24          1           0       -3.931391    5.614625    2.730363
     25          6           0       -2.696311    3.962201    3.127383
     26          1           0       -2.689044    3.208011    2.331908
     27          6           0       -2.377441    3.132446    4.389688
     28          6           0       -1.592666    4.982985    2.855298
     29          1           0       -0.621728    4.490219    2.903228
     30          1           0       -1.599721    5.777966    3.609532
     31          1           0       -1.721323    5.428355    1.862224
     32          8           0       -1.198659    3.000628    4.732947
     33          7           0       -3.395281    2.456860    4.967777
     34          1           0       -4.283933    2.432737    4.463856
     35          6           0       -3.133034    1.391556    5.939682
     36          1           0       -2.213839    1.670923    6.463973
     37          6           0       -2.881914    0.058365    5.191731
     38          6           0       -4.294802    1.257658    6.917569
     39          1           0       -4.093439    0.461691    7.638625
     40          1           0       -5.216626    0.993930    6.389843
     41          1           0       -4.442578    2.200600    7.451765
     42          8           0       -3.596360   -0.927738    5.347694
     43          7           0       -1.836800    0.074562    4.314701
     44          1           0       -1.214226    0.877800    4.262985
     45          6           0       -1.600059   -1.043828    3.427991
     46          1           0       -1.494135   -1.960441    4.028906
     47          6           0       -0.268892   -0.822174    2.702871
     48          6           0       -2.787477   -1.298900    2.458181
     49          1           0       -2.538134   -2.141073    1.795876
     50          1           0       -3.610307   -1.648297    3.084958
     51          8           0        0.453731    0.144940    2.905501
     52          6           0       -3.263769   -0.112395    1.644407
     53          6           0       -4.640088    0.026514    1.415460
     54          1           0       -5.323773   -0.709093    1.830994
     55          6           0       -2.413580    0.855006    1.086943
     56          1           0       -1.345025    0.837544    1.280763
     57          6           0       -5.156812    1.085272    0.679371
     58          1           0       -6.223733    1.158945    0.498896
     59          6           0       -2.924107    1.931646    0.356140
     60          1           0       -2.266490    2.691671   -0.054698
     61          8           0       -4.769468    3.146832   -0.528364
     62          6           0       -4.302705    2.068680    0.170609
     63          7           0        0.036002   -1.776150    1.757834
     64          1           0       -0.527332   -2.615815    1.725031
     65          6           0        1.308322   -1.797987    1.058721
     66          1           0        1.820377   -0.875669    1.359575
     67          6           0        1.128832   -1.663754   -0.459164
     68          6           0        2.170040   -3.015233    1.432076
     69          1           0        1.683211   -3.925118    1.050065
     70          1           0        3.124922   -2.925204    0.901733
     71          8           0        1.991420   -2.087424   -1.258043
     72          6           0        2.451724   -3.171880    2.937202
     73          1           0        1.487357   -3.261894    3.457156
     74          6           0        3.239339   -4.468163    3.177010
     75          1           0        4.221163   -4.423532    2.686008
     76          1           0        3.413922   -4.628150    4.246001
     77          1           0        2.706746   -5.345040    2.789049
     78          6           0        3.197188   -1.960994    3.518308
     79          1           0        4.141714   -1.794096    2.982211
     80          1           0        2.604164   -1.043040    3.465665
     81          1           0        3.443122   -2.133100    4.571604
     82          7           0        0.041332   -1.015537   -0.900652
     83          1           0       -0.586324   -0.607334   -0.216241
     84          6           0       -0.045675   -0.570926   -2.288024
     85          1           0       -0.078253   -1.458756   -2.931623
     86          6           0        1.207208    0.265510   -2.623314
     87          6           0       -1.284264    0.310589   -2.516735
     88          1           0       -1.239172    1.157220   -1.825384
     89          1           0       -1.214049    0.735668   -3.523533
     90          8           0        1.750975    0.970089   -1.779330
     91          6           0       -2.619613   -0.421135   -2.362305
     92          1           0       -2.711603   -0.878356   -1.369742
     93          1           0       -2.715233   -1.238986   -3.086405
     94          6           0       -3.852049    0.464926   -2.495977
     95          8           0       -4.982633    0.051232   -2.388055
     96          8           0       -3.536155    1.761752   -2.701866
     97          7           0        1.609679    0.184962   -3.916974
     98          1           0        1.076018   -0.383163   -4.560549
     99          6           0        2.645793    1.041358   -4.486472
    100          1           0        2.590915    2.009194   -3.970770
    101          6           0        2.375180    1.345025   -5.961653
    102          6           0        4.068223    0.458435   -4.307433
    103          1           0        4.707190    0.845709   -5.105650
    104          1           0        3.993170   -0.627157   -4.448995
    105          8           0        3.176153    1.883735   -6.686072
    106          6           0        4.692759    0.786811   -2.932660
    107          1           0        3.914007    1.020773   -2.200635
    108          1           0        5.317826    1.682468   -3.014620
    109          6           0        5.562638   -0.343254   -2.382672
    110          1           0        6.144746    0.007397   -1.520864
    111          1           0        6.263230   -0.687746   -3.154909
    112          7           0        4.715982   -1.474725   -1.974687
    113          1           0        3.728279   -1.299914   -1.774841
    114          7           0        6.449929   -3.025035   -1.833473
    115          1           0        6.748447   -3.987450   -1.893523
    116          1           0        7.141946   -2.318371   -2.029500
    117          7           0        4.248621   -3.688275   -1.496383
    118          1           0        4.560962   -4.542394   -1.056897
    119          1           0        3.279299   -3.393642   -1.334628
    120          6           0        5.139555   -2.718135   -1.763602
    121          8           0        1.140470    0.961499   -6.364268
    122          1           0       -4.327232    2.303309   -2.496517
    123          1           0        1.057735    1.213513   -7.304285
 ---------------------------------------------------------------------

 SCF Done:  E(RB3LYP) =  -2974.24116225     A.U. after    3 cycles

 Alpha  occ. eigenvalues --  -19.29653 -19.24682 -19.24001 -19.23421 -19.21381
 Alpha  occ. eigenvalues --  -19.21363 -19.21047 -19.19844 -19.19017 -19.16797
 Alpha  occ. eigenvalues --  -19.16636 -14.51365 -14.50103 -14.49319 -14.47131
 Alpha  occ. eigenvalues --  -14.46243 -14.45891 -14.43990 -14.41116 -14.40779
 Alpha  occ. eigenvalues --  -14.40348 -10.46817 -10.41887 -10.40372 -10.38648
 Alpha  occ. eigenvalues --  -10.38059 -10.37809 -10.36491 -10.35095 -10.34149
 Alpha  occ. eigenvalues --  -10.34048 -10.33627 -10.33535 -10.33360 -10.31001
 Alpha  occ. eigenvalues --  -10.30541 -10.30133 -10.29853 -10.29031 -10.28940
 Alpha  occ. eigenvalues --  -10.28321 -10.28196 -10.27928 -10.27527 -10.27408
 Alpha  occ. eigenvalues --  -10.26221 -10.26092 -10.25828 -10.25796 -10.25573
 Alpha  occ. eigenvalues --  -10.25394 -10.24850 -10.24848 -10.24823 -10.24809
 Alpha  occ. eigenvalues --  -10.24703 -10.24689 -10.24493 -10.24484 -10.24478
 Alpha  occ. eigenvalues --  -10.24307 -10.22213  -1.20329  -1.15728  -1.15619
 Alpha  occ. eigenvalues --   -1.15163  -1.13299  -1.13105  -1.11664  -1.11337
 Alpha  occ. eigenvalues --   -1.09438  -1.08958  -1.08192  -1.06805  -1.04720
 Alpha  occ. eigenvalues --   -1.04026  -1.03382  -1.02842  -1.02003  -1.00120
 Alpha  occ. eigenvalues --   -0.98018  -0.97638  -0.96880  -0.91489  -0.91276
 Alpha  occ. eigenvalues --   -0.91023  -0.90048  -0.89212  -0.86263  -0.85900
 Alpha  occ. eigenvalues --   -0.84892  -0.83773  -0.83527  -0.81637  -0.81134
 Alpha  occ. eigenvalues --   -0.80855  -0.80146  -0.79650  -0.79008  -0.78379
 Alpha  occ. eigenvalues --   -0.77382  -0.75923  -0.75059  -0.73302  -0.73154
 Alpha  occ. eigenvalues --   -0.72564  -0.72435  -0.71967  -0.71157  -0.70138
 Alpha  occ. eigenvalues --   -0.69540  -0.69264  -0.68734  -0.68291  -0.67762
 Alpha  occ. eigenvalues --   -0.67093  -0.66920  -0.66366  -0.65895  -0.65458
 Alpha  occ. eigenvalues --   -0.64863  -0.63992  -0.63988  -0.63742  -0.63278
 Alpha  occ. eigenvalues --   -0.63177  -0.62803  -0.62065  -0.60603  -0.60287
 Alpha  occ. eigenvalues --   -0.60128  -0.59719  -0.59462  -0.58801  -0.58319
 Alpha  occ. eigenvalues --   -0.57617  -0.57354  -0.57177  -0.56933  -0.56487
 Alpha  occ. eigenvalues --   -0.55729  -0.55573  -0.55171  -0.55043  -0.54423
 Alpha  occ. eigenvalues --   -0.54371  -0.54002  -0.53812  -0.53688  -0.53481
 Alpha  occ. eigenvalues --   -0.53105  -0.52916  -0.52847  -0.52674  -0.52342
 Alpha  occ. eigenvalues --   -0.52125  -0.51868  -0.51445  -0.51433  -0.51216
 Alpha  occ. eigenvalues --   -0.50824  -0.50507  -0.49974  -0.49816  -0.49610
 Alpha  occ. eigenvalues --   -0.49505  -0.49077  -0.48638  -0.48250  -0.48124
 Alpha  occ. eigenvalues --   -0.48100  -0.47782  -0.47672  -0.47183  -0.47153
 Alpha  occ. eigenvalues --   -0.46885  -0.46582  -0.46375  -0.46222  -0.46190
 Alpha  occ. eigenvalues --   -0.45933  -0.45787  -0.45411  -0.45356  -0.45068
 Alpha  occ. eigenvalues --   -0.45011  -0.44891  -0.44654  -0.44602  -0.44538
 Alpha  occ. eigenvalues --   -0.44050  -0.43924  -0.43507  -0.43223  -0.43074
 Alpha  occ. eigenvalues --   -0.42355  -0.42068  -0.41925  -0.41813  -0.41430
 Alpha  occ. eigenvalues --   -0.41298  -0.41194  -0.41080  -0.40882  -0.40790
 Alpha  occ. eigenvalues --   -0.40518  -0.40016  -0.39933  -0.39737  -0.39629
 Alpha  occ. eigenvalues --   -0.39289  -0.38717  -0.38068  -0.37672  -0.37220
 Alpha  occ. eigenvalues --   -0.36876  -0.35391  -0.35093  -0.34739  -0.34715
 Alpha  occ. eigenvalues --   -0.34347  -0.34235  -0.33477  -0.32647  -0.32517
 Alpha  occ. eigenvalues --   -0.31222  -0.30787  -0.30535  -0.30305  -0.29769
 Alpha  occ. eigenvalues --   -0.28793  -0.27831
 Alpha virt. eigenvalues --   -0.10838  -0.10126  -0.08801  -0.07785  -0.07251
 Alpha virt. eigenvalues --   -0.07096  -0.06836  -0.06679  -0.05991  -0.05791
 Alpha virt. eigenvalues --   -0.05216  -0.04601  -0.04164  -0.03487  -0.02542

 Mulliken charges:
               1
     1  N   -0.772394
     2  H    0.460578
     3  H    0.336666
     4  H    0.339099
     5  C   -0.063379
     6  H    0.151408
     7  C    0.651460
     8  C   -0.366612
     9  H    0.161093
    10  H    0.170488
    11  O   -0.549200
    12  C    0.163509
    13  C   -0.179270
    14  H    0.125591
    15  C   -0.201488
    16  H    0.131068
    17  C   -0.126167
    18  H    0.143897
    19  C   -0.126024
    20  H    0.144628
    21  C   -0.128313
    22  H    0.145534
    23  N   -0.608274
    24  H    0.340730
    25  C   -0.068799
    26  H    0.210316
    27  C    0.616216
    28  C   -0.486011
    29  H    0.202360
    30  H    0.165987
    31  H    0.145308
    32  O   -0.540357
    33  N   -0.610978
    34  H    0.386239
    35  C   -0.073930
    36  H    0.190179
    37  C    0.624234
    38  C   -0.443171
    39  H    0.169792
    40  H    0.162913
    41  H    0.153508
    42  O   -0.527116
    43  N   -0.640825
    44  H    0.385123
    45  C   -0.020477
    46  H    0.182846
    47  C    0.611810
    48  C   -0.398259
    49  H    0.127456
    50  H    0.213671
    51  O   -0.511177
    52  C    0.185742
    53  C   -0.187424
    54  H    0.143643
    55  C   -0.255132
    56  H    0.152435
    57  C   -0.125582
    58  H    0.134758
    59  C   -0.199888
    60  H    0.145360
    61  O   -0.729068
    62  C    0.346877
    63  N   -0.635495
    64  H    0.339449
    65  C   -0.076653
    66  H    0.231735
    67  C    0.667369
    68  C   -0.268729
    69  H    0.131017
    70  H    0.126009
    71  O   -0.613862
    72  C   -0.071781
    73  H    0.132203
    74  C   -0.444123
    75  H    0.127153
    76  H    0.166113
    77  H    0.142447
    78  C   -0.471804
    79  H    0.127859
    80  H    0.187358
    81  H    0.161602
    82  N   -0.603349
    83  H    0.374646
    84  C   -0.037066
    85  H    0.162612
    86  C    0.638055
    87  C   -0.304298
    88  H    0.190606
    89  H    0.174371
    90  O   -0.534947
    91  C   -0.374030
    92  H    0.188620
    93  H    0.177305
    94  C    0.608105
    95  O   -0.461408
    96  O   -0.583003
    97  N   -0.617903
    98  H    0.351993
    99  C   -0.049611
   100  H    0.218965
   101  C    0.581133
   102  C   -0.277883
   103  H    0.195038
   104  H    0.148365
   105  O   -0.437792
   106  C   -0.337092
   107  H    0.218850
   108  H    0.176765
   109  C   -0.159561
   110  H    0.185531
   111  H    0.166547
   112  N   -0.624735
   113  H    0.414142
   114  N   -0.764742
   115  H    0.378294
   116  H    0.385391
   117  N   -0.783089
   118  H    0.361786
   119  H    0.424283
   120  C    0.800409
   121  O   -0.577024
   122  H    0.432895
   123  H    0.431750
 Sum of Mulliken charges =   1.00000

 Dipole moment (field-independent basis, Debye):
    X=              9.2944    Y=             -3.5733    Z=             -7.8839  Tot=             12.7008
 Quadrupole moment (field-independent basis, Debye-Ang):
   XX=           -192.2144   YY=           -266.3606   ZZ=           -337.0599
   XY=           -115.6712   XZ=            -43.1214   YZ=             21.4754

 Normal termination of Gaussian 16 at Sun Aug  7 18:53:21 2022.
