 Gaussian 16, Revision C.01,
 Gaussian 16:  ES64L-G16RevC.01  3-Jul-2019

 ----------------------------------------------------------------------
 # B3LYP/6-31G* empiricaldispersion=gd3 guess=read geom=check nosymm in
 tegral(ultrafinegrid)
 ----------------------------------------------------------------------

 ------------------------------------------------------
 Candidate Structure: Conf:234 Charge calc in gas phase
 ------------------------------------------------------
 Structure from the checkpoint file:  "conf-234.chk"
 Charge =  1 Multiplicity = 1

                          Input orientation:
 ---------------------------------------------------------------------
 Center     Atomic      Atomic             Coordinates (Angstroms)
 Number     Number       Type             X           Y           Z
 ---------------------------------------------------------------------
      1          7           0       -6.344370    3.928616    1.269000
      2          1           0       -6.956301    4.438857    0.626884
      3          1           0       -5.596891    4.557463    1.587836
      4          1           0       -6.931376    3.562349    2.060612
      5          6           0       -5.763522    2.666296    0.667301
      6          1           0       -5.725802    2.765639   -0.417962
      7          6           0       -6.727714    1.555796    1.130751
      8          6           0       -4.385458    2.398933    1.282068
      9          1           0       -4.007637    1.476135    0.836032
     10          1           0       -4.518046    2.142897    2.338028
     11          8           0       -7.487523    1.799305    2.072670
     12          6           0       -3.354492    3.497815    1.124309
     13          6           0       -3.310614    4.354295    0.014539
     14          1           0       -4.087530    4.313471   -0.746407
     15          6           0       -2.322141    3.576617    2.072409
     16          1           0       -2.336654    2.907417    2.927794
     17          6           0       -2.234275    5.223789   -0.178991
     18          1           0       -2.187639    5.829792   -1.077176
     19          6           0       -1.257262    4.457561    1.891598
     20          1           0       -0.460487    4.494176    2.629636
     21          6           0       -1.204822    5.274905    0.758917
     22          1           0       -0.361743    5.941083    0.603884
     23          7           0       -6.600735    0.381295    0.495812
     24          1           0       -5.964574    0.349022   -0.297574
     25          6           0       -6.969931   -0.877480    1.134047
     26          1           0       -7.913500   -0.707419    1.663688
     27          6           0       -5.896392   -1.191944    2.219166
     28          6           0       -7.148789   -1.962464    0.068134
     29          1           0       -7.568688   -2.878339    0.494581
     30          1           0       -6.194122   -2.211282   -0.409932
     31          1           0       -7.843635   -1.615245   -0.701375
     32          8           0       -5.214666   -0.282207    2.694274
     33          7           0       -5.777311   -2.476302    2.623977
     34          1           0       -6.272753   -3.210448    2.137392
     35          6           0       -4.796082   -2.899269    3.643083
     36          1           0       -4.714178   -2.067837    4.349336
     37          6           0       -3.426557   -3.119630    2.946052
     38          6           0       -5.273711   -4.164788    4.341917
     39          1           0       -4.563469   -4.446933    5.123232
     40          1           0       -5.321527   -5.000224    3.636602
     41          1           0       -6.255962   -4.005721    4.796828
     42          8           0       -2.985602   -4.239004    2.716789
     43          7           0       -2.807475   -1.963195    2.581483
     44          1           0       -3.332593   -1.094556    2.671164
     45          6           0       -1.743411   -1.938670    1.579822
     46          1           0       -0.926543   -2.584137    1.917192
     47          6           0       -1.292386   -0.475238    1.496680
     48          6           0       -2.297660   -2.458456    0.217925
     49          1           0       -2.512891   -3.521352    0.377995
     50          1           0       -3.265862   -1.958959    0.079511
     51          8           0       -2.141717    0.426069    1.475794
     52          6           0       -1.460132   -2.230946   -1.022380
     53          6           0       -2.093729   -1.991362   -2.251598
     54          1           0       -3.182257   -2.029978   -2.301959
     55          6           0       -0.057183   -2.239342   -1.026860
     56          1           0        0.483375   -2.520537   -0.124782
     57          6           0       -1.372184   -1.683264   -3.401424
     58          1           0       -1.874938   -1.488315   -4.345628
     59          6           0        0.676971   -1.877269   -2.152068
     60          1           0        1.759221   -1.801256   -2.094766
     61          8           0        0.679464   -0.963311   -4.376988
     62          6           0        0.033569   -1.505487   -3.357707
     63          7           0        0.034332   -0.222664    1.467909
     64          1           0        0.664880   -1.004158    1.351353
     65          6           0        0.593816    1.113038    1.191453
     66          1           0       -0.048431    1.830093    1.706951
     67          6           0        0.481217    1.348098   -0.332284
     68          6           0        2.030319    1.218494    1.692069
     69          1           0        2.653563    0.530124    1.106870
     70          1           0        2.389032    2.225578    1.441499
     71          8           0        1.400757    1.118576   -1.113091
     72          6           0        2.214358    0.967853    3.199927
     73          1           0        1.884240   -0.057682    3.421452
     74          6           0        3.700782    1.076700    3.567373
     75          1           0        4.074378    2.092024    3.382157
     76          1           0        3.863454    0.849552    4.626781
     77          1           0        4.310929    0.383860    2.975960
     78          6           0        1.368809    1.924846    4.054132
     79          1           0        1.605300    2.970695    3.814924
     80          1           0        0.294095    1.774641    3.898965
     81          1           0        1.569426    1.775416    5.120687
     82          7           0       -0.762983    1.736297   -0.706977
     83          1           0       -1.454030    1.792580    0.031995
     84          6           0       -1.262195    1.472339   -2.048693
     85          1           0       -0.920483    0.482214   -2.345639
     86          6           0       -0.751924    2.507393   -3.054270
     87          6           0       -2.791707    1.477209   -1.991795
     88          1           0       -3.103237    0.698355   -1.287554
     89          1           0       -3.114969    2.441805   -1.594434
     90          8           0       -0.895440    3.714517   -2.876846
     91          6           0       -3.459615    1.238112   -3.341277
     92          1           0       -3.104923    0.306127   -3.795754
     93          1           0       -3.223363    2.023862   -4.069160
     94          6           0       -4.954409    1.134602   -3.208807
     95          8           0       -5.587759    1.134765   -2.159355
     96          8           0       -5.565335    1.026996   -4.398636
     97          7           0       -0.187437    1.953917   -4.159582
     98          1           0       -0.016929    0.944223   -4.210125
     99          6           0        0.453771    2.769088   -5.169508
    100          1           0        0.487411    3.790100   -4.766263
    101          6           0       -0.359656    2.855773   -6.460672
    102          6           0        1.873722    2.249944   -5.453450
    103          1           0        2.327570    2.863543   -6.236672
    104          1           0        1.774450    1.239922   -5.869508
    105          8           0        0.115527    3.032232   -7.559806
    106          6           0        2.746011    2.219540   -4.184986
    107          1           0        2.137147    2.007742   -3.298648
    108          1           0        3.214601    3.196256   -4.017473
    109          6           0        3.849619    1.157003   -4.248500
    110          1           0        4.471415    1.210820   -3.346433
    111          1           0        4.496131    1.326961   -5.120540
    112          7           0        3.236413   -0.169994   -4.357580
    113          1           0        2.218510   -0.293319   -4.117956
    114          7           0        5.030483   -1.301186   -5.355547
    115          1           0        5.309495   -1.867725   -6.143115
    116          1           0        5.673523   -0.580571   -5.064689
    117          7           0        2.865640   -2.162369   -5.434644
    118          1           0        3.204703   -3.101628   -5.584295
    119          1           0        1.872585   -1.996576   -5.169187
    120          6           0        3.715099   -1.198481   -5.043627
    121          8           0       -1.694834    2.752277   -6.246546
    122          1           0       -6.523856    0.943368   -4.233575
    123          1           0       -2.112627    2.858855   -7.122242
 ---------------------------------------------------------------------

 SCF Done:  E(RB3LYP) =  -2974.23721172     A.U. after    3 cycles

 Alpha  occ. eigenvalues --  -19.29165 -19.25614 -19.24306 -19.24093 -19.21257
 Alpha  occ. eigenvalues --  -19.20390 -19.19729 -19.18193 -19.18047 -19.16685
 Alpha  occ. eigenvalues --  -19.14544 -14.57698 -14.46813 -14.46616 -14.45825
 Alpha  occ. eigenvalues --  -14.44765 -14.43947 -14.43736 -14.41987 -14.41429
 Alpha  occ. eigenvalues --  -14.40891 -10.42120 -10.41323 -10.40917 -10.38418
 Alpha  occ. eigenvalues --  -10.37724 -10.37315 -10.37286 -10.35209 -10.34686
 Alpha  occ. eigenvalues --  -10.34035 -10.33681 -10.31123 -10.30830 -10.30554
 Alpha  occ. eigenvalues --  -10.30179 -10.29572 -10.29414 -10.29096 -10.28850
 Alpha  occ. eigenvalues --  -10.28611 -10.28065 -10.27738 -10.27709 -10.27377
 Alpha  occ. eigenvalues --  -10.27286 -10.27184 -10.26980 -10.26526 -10.25632
 Alpha  occ. eigenvalues --  -10.25465 -10.25110 -10.25100 -10.25063 -10.24940
 Alpha  occ. eigenvalues --  -10.24075 -10.23990 -10.23927 -10.23793 -10.23205
 Alpha  occ. eigenvalues --  -10.22375 -10.22348  -1.20381  -1.16581  -1.16322
 Alpha  occ. eigenvalues --   -1.13299  -1.12308  -1.11559  -1.11155  -1.10084
 Alpha  occ. eigenvalues --   -1.09968  -1.09650  -1.08387  -1.07288  -1.03961
 Alpha  occ. eigenvalues --   -1.02169  -1.01687  -1.00857  -0.99377  -0.98961
 Alpha  occ. eigenvalues --   -0.98587  -0.98117  -0.97816  -0.94613  -0.90704
 Alpha  occ. eigenvalues --   -0.89614  -0.88335  -0.87775  -0.87661  -0.86194
 Alpha  occ. eigenvalues --   -0.85007  -0.83653  -0.83127  -0.82938  -0.82613
 Alpha  occ. eigenvalues --   -0.81521  -0.79643  -0.79010  -0.77525  -0.76915
 Alpha  occ. eigenvalues --   -0.75381  -0.75322  -0.74505  -0.73276  -0.72545
 Alpha  occ. eigenvalues --   -0.71995  -0.71776  -0.71658  -0.70984  -0.70358
 Alpha  occ. eigenvalues --   -0.69789  -0.68675  -0.68537  -0.68388  -0.67954
 Alpha  occ. eigenvalues --   -0.67181  -0.67120  -0.66598  -0.65748  -0.64777
 Alpha  occ. eigenvalues --   -0.64377  -0.64317  -0.63756  -0.63638  -0.63201
 Alpha  occ. eigenvalues --   -0.62980  -0.61956  -0.61336  -0.60729  -0.59840
 Alpha  occ. eigenvalues --   -0.59459  -0.58964  -0.58753  -0.58598  -0.58079
 Alpha  occ. eigenvalues --   -0.57827  -0.57565  -0.57198  -0.56969  -0.56502
 Alpha  occ. eigenvalues --   -0.55894  -0.55649  -0.55083  -0.54919  -0.54850
 Alpha  occ. eigenvalues --   -0.54605  -0.54200  -0.54134  -0.53721  -0.53412
 Alpha  occ. eigenvalues --   -0.53120  -0.53045  -0.52915  -0.52328  -0.52178
 Alpha  occ. eigenvalues --   -0.51860  -0.51118  -0.50666  -0.50493  -0.50334
 Alpha  occ. eigenvalues --   -0.50071  -0.49981  -0.49663  -0.49520  -0.49414
 Alpha  occ. eigenvalues --   -0.49211  -0.49108  -0.48891  -0.48800  -0.48529
 Alpha  occ. eigenvalues --   -0.48385  -0.48002  -0.47796  -0.47546  -0.47323
 Alpha  occ. eigenvalues --   -0.47068  -0.46569  -0.46478  -0.46330  -0.46000
 Alpha  occ. eigenvalues --   -0.45916  -0.45471  -0.45250  -0.45141  -0.44954
 Alpha  occ. eigenvalues --   -0.44617  -0.44506  -0.44469  -0.44257  -0.44033
 Alpha  occ. eigenvalues --   -0.43815  -0.43533  -0.43232  -0.42921  -0.42755
 Alpha  occ. eigenvalues --   -0.42662  -0.42480  -0.42395  -0.42351  -0.41814
 Alpha  occ. eigenvalues --   -0.41376  -0.40857  -0.40778  -0.40351  -0.39634
 Alpha  occ. eigenvalues --   -0.39143  -0.39002  -0.38919  -0.38706  -0.38574
 Alpha  occ. eigenvalues --   -0.38000  -0.37587  -0.37332  -0.37095  -0.36233
 Alpha  occ. eigenvalues --   -0.35935  -0.35514  -0.34689  -0.34395  -0.34322
 Alpha  occ. eigenvalues --   -0.34075  -0.33615  -0.32857  -0.32484  -0.31932
 Alpha  occ. eigenvalues --   -0.31078  -0.30942  -0.30141  -0.29885  -0.29591
 Alpha  occ. eigenvalues --   -0.28941  -0.24112
 Alpha virt. eigenvalues --   -0.10302  -0.09210  -0.09133  -0.08927  -0.07926
 Alpha virt. eigenvalues --   -0.07491  -0.07054  -0.06228  -0.05422  -0.04944
 Alpha virt. eigenvalues --   -0.04636  -0.03700  -0.03566  -0.03056  -0.02422

 Mulliken charges:
               1
     1  N   -0.740684
     2  H    0.409587
     3  H    0.408704
     4  H    0.423107
     5  C   -0.158007
     6  H    0.226238
     7  C    0.665008
     8  C   -0.357074
     9  H    0.238875
    10  H    0.197416
    11  O   -0.535931
    12  C    0.092117
    13  C   -0.212564
    14  H    0.117329
    15  C   -0.179122
    16  H    0.155026
    17  C   -0.090834
    18  H    0.166902
    19  C   -0.138863
    20  H    0.153431
    21  C   -0.121398
    22  H    0.155531
    23  N   -0.598474
    24  H    0.386487
    25  C   -0.074425
    26  H    0.216086
    27  C    0.640742
    28  C   -0.495366
    29  H    0.172516
    30  H    0.175120
    31  H    0.187536
    32  O   -0.531826
    33  N   -0.601097
    34  H    0.344672
    35  C   -0.067225
    36  H    0.188546
    37  C    0.622524
    38  C   -0.463181
    39  H    0.183468
    40  H    0.173563
    41  H    0.158283
    42  O   -0.514772
    43  N   -0.644885
    44  H    0.386807
    45  C   -0.031115
    46  H    0.171200
    47  C    0.636999
    48  C   -0.362668
    49  H    0.196790
    50  H    0.124865
    51  O   -0.573006
    52  C    0.166123
    53  C   -0.197958
    54  H    0.096242
    55  C   -0.205759
    56  H    0.097142
    57  C   -0.204087
    58  H    0.119168
    59  C   -0.171985
    60  H    0.111898
    61  O   -0.753165
    62  C    0.394397
    63  N   -0.589944
    64  H    0.342201
    65  C   -0.094262
    66  H    0.182085
    67  C    0.641847
    68  C   -0.282165
    69  H    0.154612
    70  H    0.152018
    71  O   -0.535804
    72  C   -0.070537
    73  H    0.125757
    74  C   -0.443184
    75  H    0.145363
    76  H    0.152055
    77  H    0.144390
    78  C   -0.459076
    79  H    0.141148
    80  H    0.145143
    81  H    0.156143
    82  N   -0.627958
    83  H    0.385491
    84  C   -0.044683
    85  H    0.197044
    86  C    0.632005
    87  C   -0.325370
    88  H    0.159518
    89  H    0.163821
    90  O   -0.546836
    91  C   -0.389082
    92  H    0.207165
    93  H    0.224881
    94  C    0.591613
    95  O   -0.515132
    96  O   -0.541221
    97  N   -0.637201
    98  H    0.390434
    99  C   -0.064681
   100  H    0.207864
   101  C    0.600856
   102  C   -0.288857
   103  H    0.172653
   104  H    0.161986
   105  O   -0.460069
   106  C   -0.327897
   107  H    0.214340
   108  H    0.154723
   109  C   -0.145828
   110  H    0.172120
   111  H    0.147890
   112  N   -0.616357
   113  H    0.420990
   114  N   -0.759372
   115  H    0.365438
   116  H    0.369893
   117  N   -0.785026
   118  H    0.347234
   119  H    0.415806
   120  C    0.764762
   121  O   -0.566259
   122  H    0.417041
   123  H    0.413500
 Sum of Mulliken charges =   1.00000

 Dipole moment (field-independent basis, Debye):
    X=            -12.5206    Y=              6.0269    Z=             -4.3979  Tot=             14.5750
 Quadrupole moment (field-independent basis, Debye-Ang):
   XX=           -149.3327   YY=           -309.9328   ZZ=           -305.5422
   XY=            -53.5522   XZ=            -42.8053   YZ=             26.4031

 Normal termination of Gaussian 16 at Sun Aug  7 18:54:01 2022.
