 Gaussian 16, Revision C.01,
 Gaussian 16:  ES64L-G16RevC.01  3-Jul-2019

 ----------------------------------------------------------------------
 # B3LYP/6-31G* empiricaldispersion=gd3 guess=read geom=check nosymm in
 tegral(ultrafinegrid)
 ----------------------------------------------------------------------

 ------------------------------------------------------
 Candidate Structure: Conf:205 Charge calc in gas phase
 ------------------------------------------------------
 Structure from the checkpoint file:  "conf-205.chk"
 Charge =  1 Multiplicity = 1

                          Input orientation:
 ---------------------------------------------------------------------
 Center     Atomic      Atomic             Coordinates (Angstroms)
 Number     Number       Type             X           Y           Z
 ---------------------------------------------------------------------
      1          7           0      -11.079257    4.530269    1.851363
      2          1           0      -11.127157    4.042857    0.954588
      3          1           0      -11.587777    5.416375    1.796658
      4          1           0      -11.482217    3.906212    2.571448
      5          6           0       -9.679040    4.748853    2.290409
      6          1           0       -9.034914    4.865197    1.414996
      7          6           0       -9.295079    3.498504    3.095103
      8          6           0       -9.572014    6.009197    3.158586
      9          1           0       -8.535279    6.113998    3.488378
     10          1           0      -10.182295    5.871837    4.056687
     11          8           0      -10.178371    2.778611    3.554226
     12          6           0      -10.021709    7.242280    2.410127
     13          6           0       -9.266839    7.737869    1.344818
     14          1           0       -8.335960    7.244980    1.082110
     15          6           0      -11.227298    7.868526    2.728077
     16          1           0      -11.831045    7.486651    3.547231
     17          6           0       -9.692708    8.852722    0.629101
     18          1           0       -9.085776    9.229156   -0.187330
     19          6           0      -11.666752    8.977109    2.004470
     20          1           0      -12.607552    9.449747    2.264925
     21          6           0      -10.898104    9.473744    0.956123
     22          1           0      -11.234389   10.339795    0.396234
     23          7           0       -7.986993    3.301528    3.285515
     24          1           0       -7.270666    3.909061    2.903482
     25          6           0       -7.461212    2.192122    4.058285
     26          1           0       -8.020376    2.108717    4.993937
     27          6           0       -5.999350    2.557075    4.326979
     28          6           0       -7.563263    0.863851    3.298584
     29          1           0       -7.095432    0.062902    3.875318
     30          1           0       -7.047131    0.937905    2.337210
     31          1           0       -8.612760    0.626198    3.122344
     32          8           0       -5.427103    3.380189    3.622662
     33          7           0       -5.402382    1.897614    5.355979
     34          1           0       -5.880476    1.075548    5.692945
     35          6           0       -3.951770    1.769682    5.371898
     36          1           0       -3.562230    2.643536    4.843980
     37          6           0       -3.569687    0.506818    4.572187
     38          6           0       -3.408215    1.712854    6.794520
     39          1           0       -2.317745    1.646430    6.781959
     40          1           0       -3.798659    0.836163    7.320942
     41          1           0       -3.700250    2.610721    7.343273
     42          8           0       -4.397867   -0.347974    4.279391
     43          7           0       -2.264026    0.418535    4.243588
     44          1           0       -1.633849    1.186609    4.422802
     45          6           0       -1.782854   -0.554041    3.286672
     46          1           0       -2.096750   -1.551845    3.606495
     47          6           0       -0.257070   -0.442178    3.283463
     48          6           0       -2.360669   -0.315488    1.861106
     49          1           0       -1.899611   -1.036258    1.178245
     50          1           0       -3.426324   -0.536389    1.917121
     51          8           0        0.332588    0.448828    3.880936
     52          6           0       -2.144744    1.072749    1.363236
     53          6           0       -3.086388    2.091515    1.621919
     54          1           0       -3.998128    1.844605    2.163379
     55          6           0       -0.981889    1.415071    0.641470
     56          1           0       -0.259944    0.628913    0.430521
     57          6           0       -2.887860    3.385827    1.207326
     58          1           0       -3.613010    4.161767    1.421295
     59          6           0       -0.745055    2.694029    0.200493
     60          1           0        0.151716    2.947374   -0.352517
     61          8           0       -1.509426    4.927014    0.066231
     62          6           0       -1.697153    3.765115    0.458537
     63          7           0        0.379702   -1.386747    2.536087
     64          1           0       -0.174370   -1.906305    1.870358
     65          6           0        1.730428   -1.145833    2.067960
     66          1           0        2.005306   -0.135518    2.383882
     67          6           0        1.655239   -1.170336    0.531989
     68          6           0        2.749050   -2.149458    2.606763
     69          1           0        2.460198   -3.151114    2.271325
     70          1           0        3.722190   -1.934415    2.154204
     71          8           0        0.661976   -1.576168   -0.059693
     72          6           0        2.902749   -2.153962    4.132938
     73          1           0        1.916593   -2.327865    4.573498
     74          6           0        3.820305   -3.305162    4.548501
     75          1           0        4.816766   -3.177949    4.112633
     76          1           0        3.930825   -3.347778    5.635890
     77          1           0        3.423569   -4.267878    4.212953
     78          6           0        3.439127   -0.821577    4.659571
     79          1           0        4.425071   -0.612233    4.228830
     80          1           0        2.773690    0.010881    4.423887
     81          1           0        3.552071   -0.860642    5.747324
     82          7           0        2.739231   -0.694095   -0.115956
     83          1           0        3.524175   -0.289306    0.374664
     84          6           0        2.735373   -0.559771   -1.562972
     85          1           0        2.291384   -1.464012   -1.988000
     86          6           0        4.189575   -0.394567   -1.988019
     87          6           0        1.888291    0.658302   -1.982387
     88          1           0        0.927972    0.562832   -1.472079
     89          1           0        2.369735    1.562575   -1.609191
     90          8           0        4.982051    0.234258   -1.306102
     91          6           0        1.670362    0.767958   -3.491856
     92          1           0        1.183286   -0.124948   -3.891840
     93          1           0        2.622884    0.891550   -4.015301
     94          6           0        0.799178    1.939621   -3.865612
     95          8           0       -0.116554    1.905194   -4.649784
     96          8           0        1.178291    3.070892   -3.228727
     97          7           0        4.535571   -0.991271   -3.168751
     98          1           0        3.787555   -1.292571   -3.776324
     99          6           0        5.776601   -0.626838   -3.829957
    100          1           0        6.452355   -0.253078   -3.059959
    101          6           0        5.514638    0.475067   -4.838773
    102          6           0        6.392874   -1.849780   -4.526468
    103          1           0        5.699343   -2.209259   -5.294143
    104          1           0        6.467583   -2.636282   -3.769978
    105          8           0        4.505214    0.568633   -5.498329
    106          6           0        7.768489   -1.589906   -5.134864
    107          1           0        8.437139   -1.183199   -4.372904
    108          1           0        7.706102   -0.837086   -5.923701
    109          6           0        8.371930   -2.868801   -5.708853
    110          1           0        7.732258   -3.250042   -6.508737
    111          1           0        8.415964   -3.653652   -4.945244
    112          7           0        9.707718   -2.701460   -6.302827
    113          1           0        9.720292   -2.279266   -7.222435
    114          7           0       10.793883   -2.534414   -4.224717
    115          1           0       11.649800   -2.689293   -3.713071
    116          1           0        9.952171   -2.850694   -3.770516
    117          7           0       11.975260   -2.198733   -6.228651
    118          1           0       12.836068   -2.219599   -5.700457
    119          1           0       12.061252   -2.524112   -7.183412
    120          6           0       10.822500   -2.501089   -5.574538
    121          8           0        6.556399    1.320599   -4.961986
    122          1           0        0.573874    3.769813   -3.521073
    123          1           0        6.318398    1.955114   -5.655522
 ---------------------------------------------------------------------

 SCF Done:  E(RB3LYP) =  -2974.06394763     A.U. after    3 cycles

 Alpha  occ. eigenvalues --  -19.28003 -19.23449 -19.22224 -19.21288 -19.18626
 Alpha  occ. eigenvalues --  -19.18237 -19.15678 -19.15615 -19.14402 -19.14348
 Alpha  occ. eigenvalues --  -19.03005 -14.59057 -14.50364 -14.50190 -14.49826
 Alpha  occ. eigenvalues --  -14.45840 -14.43540 -14.41158 -14.40215 -14.37724
 Alpha  occ. eigenvalues --  -14.37633 -10.44348 -10.40317 -10.40079 -10.38339
 Alpha  occ. eigenvalues --  -10.35457 -10.35083 -10.34959 -10.34011 -10.32434
 Alpha  occ. eigenvalues --  -10.32038 -10.31860 -10.31145 -10.30960 -10.30854
 Alpha  occ. eigenvalues --  -10.29940 -10.29704 -10.29251 -10.28841 -10.28430
 Alpha  occ. eigenvalues --  -10.28339 -10.28223 -10.28110 -10.27930 -10.26839
 Alpha  occ. eigenvalues --  -10.25865 -10.24692 -10.24088 -10.23009 -10.22506
 Alpha  occ. eigenvalues --  -10.22330 -10.21768 -10.21287 -10.20022 -10.18975
 Alpha  occ. eigenvalues --  -10.18768 -10.18311 -10.15260 -10.15188 -10.14974
 Alpha  occ. eigenvalues --  -10.13187 -10.13153  -1.19125  -1.16868  -1.14417
 Alpha  occ. eigenvalues --   -1.13190  -1.12438  -1.11143  -1.10476  -1.09971
 Alpha  occ. eigenvalues --   -1.08197  -1.06773  -1.06052  -1.04318  -1.03391
 Alpha  occ. eigenvalues --   -1.03263  -1.02672  -1.00543  -0.98014  -0.97121
 Alpha  occ. eigenvalues --   -0.96007  -0.95210  -0.94692  -0.93340  -0.91650
 Alpha  occ. eigenvalues --   -0.91215  -0.86177  -0.85958  -0.84484  -0.84036
 Alpha  occ. eigenvalues --   -0.83754  -0.83610  -0.81800  -0.80400  -0.79807
 Alpha  occ. eigenvalues --   -0.78993  -0.77902  -0.77168  -0.76157  -0.75343
 Alpha  occ. eigenvalues --   -0.73570  -0.73107  -0.72841  -0.72530  -0.72236
 Alpha  occ. eigenvalues --   -0.70645  -0.70579  -0.70447  -0.70142  -0.69521
 Alpha  occ. eigenvalues --   -0.69357  -0.68604  -0.68548  -0.68212  -0.67332
 Alpha  occ. eigenvalues --   -0.66509  -0.65879  -0.64876  -0.63595  -0.63230
 Alpha  occ. eigenvalues --   -0.63121  -0.62944  -0.62866  -0.62807  -0.61528
 Alpha  occ. eigenvalues --   -0.61343  -0.60685  -0.60526  -0.59623  -0.59177
 Alpha  occ. eigenvalues --   -0.59075  -0.58253  -0.57825  -0.57251  -0.56567
 Alpha  occ. eigenvalues --   -0.56393  -0.56282  -0.56026  -0.55383  -0.55182
 Alpha  occ. eigenvalues --   -0.54740  -0.54616  -0.54030  -0.53734  -0.53327
 Alpha  occ. eigenvalues --   -0.52806  -0.52383  -0.51894  -0.51812  -0.51416
 Alpha  occ. eigenvalues --   -0.51246  -0.50927  -0.50860  -0.50513  -0.50410
 Alpha  occ. eigenvalues --   -0.50176  -0.49966  -0.49695  -0.49267  -0.49138
 Alpha  occ. eigenvalues --   -0.48732  -0.48508  -0.48376  -0.47623  -0.47464
 Alpha  occ. eigenvalues --   -0.47277  -0.47011  -0.46875  -0.46357  -0.46108
 Alpha  occ. eigenvalues --   -0.45861  -0.45717  -0.45411  -0.45360  -0.45179
 Alpha  occ. eigenvalues --   -0.44587  -0.44471  -0.44364  -0.44035  -0.43814
 Alpha  occ. eigenvalues --   -0.43526  -0.43439  -0.43278  -0.43156  -0.42725
 Alpha  occ. eigenvalues --   -0.42481  -0.41940  -0.41847  -0.41651  -0.41506
 Alpha  occ. eigenvalues --   -0.41216  -0.40871  -0.40558  -0.40481  -0.40165
 Alpha  occ. eigenvalues --   -0.40010  -0.39722  -0.39615  -0.39251  -0.38807
 Alpha  occ. eigenvalues --   -0.38091  -0.38072  -0.37797  -0.37532  -0.37273
 Alpha  occ. eigenvalues --   -0.36062  -0.35643  -0.35609  -0.35169  -0.34885
 Alpha  occ. eigenvalues --   -0.34699  -0.34323  -0.34274  -0.33771  -0.33571
 Alpha  occ. eigenvalues --   -0.33401  -0.32375  -0.32211  -0.31487  -0.31209
 Alpha  occ. eigenvalues --   -0.30740  -0.29974  -0.29678  -0.28895  -0.28640
 Alpha  occ. eigenvalues --   -0.28135  -0.27794  -0.27243  -0.26248  -0.21478
 Alpha  occ. eigenvalues --   -0.16557  -0.12755
 Alpha virt. eigenvalues --   -0.12057  -0.11041  -0.09978  -0.08481  -0.08306
 Alpha virt. eigenvalues --   -0.07927  -0.07571  -0.04721  -0.04298  -0.04153
 Alpha virt. eigenvalues --   -0.03185  -0.02884  -0.01963  -0.01370  -0.01149

 Mulliken charges:
               1
     1  N   -0.727341
     2  H    0.423748
     3  H    0.408502
     4  H    0.419079
     5  C   -0.133032
     6  H    0.220434
     7  C    0.652788
     8  C   -0.383146
     9  H    0.220885
    10  H    0.186545
    11  O   -0.533993
    12  C    0.137749
    13  C   -0.186333
    14  H    0.154214
    15  C   -0.216709
    16  H    0.141544
    17  C   -0.123981
    18  H    0.168798
    19  C   -0.122168
    20  H    0.161157
    21  C   -0.124122
    22  H    0.164709
    23  N   -0.610686
    24  H    0.369790
    25  C   -0.053175
    26  H    0.182569
    27  C    0.619775
    28  C   -0.458406
    29  H    0.197064
    30  H    0.180638
    31  H    0.170496
    32  O   -0.509389
    33  N   -0.574842
    34  H    0.335446
    35  C   -0.103732
    36  H    0.216845
    37  C    0.640656
    38  C   -0.449592
    39  H    0.175274
    40  H    0.153186
    41  H    0.165043
    42  O   -0.557149
    43  N   -0.603988
    44  H    0.358729
    45  C   -0.027340
    46  H    0.163650
    47  C    0.621047
    48  C   -0.407772
    49  H    0.148586
    50  H    0.162866
    51  O   -0.530336
    52  C    0.139767
    53  C   -0.199226
    54  H    0.082200
    55  C   -0.187349
    56  H    0.101017
    57  C   -0.222843
    58  H    0.077574
    59  C   -0.240140
    60  H    0.086436
    61  O   -0.624997
    62  C    0.418370
    63  N   -0.601535
    64  H    0.350397
    65  C   -0.089587
    66  H    0.197966
    67  C    0.640553
    68  C   -0.246675
    69  H    0.133967
    70  H    0.121237
    71  O   -0.542425
    72  C   -0.066131
    73  H    0.143394
    74  C   -0.441887
    75  H    0.131205
    76  H    0.145508
    77  H    0.137429
    78  C   -0.467144
    79  H    0.122635
    80  H    0.189237
    81  H    0.141582
    82  N   -0.623786
    83  H    0.352698
    84  C   -0.029176
    85  H    0.167054
    86  C    0.603303
    87  C   -0.289462
    88  H    0.217856
    89  H    0.185836
    90  O   -0.517394
    91  C   -0.387048
    92  H    0.166552
    93  H    0.185274
    94  C    0.583148
    95  O   -0.458953
    96  O   -0.555018
    97  N   -0.602626
    98  H    0.346718
    99  C   -0.051133
   100  H    0.209391
   101  C    0.590309
   102  C   -0.285349
   103  H    0.163866
   104  H    0.165416
   105  O   -0.450872
   106  C   -0.280873
   107  H    0.162558
   108  H    0.167781
   109  C   -0.187263
   110  H    0.194413
   111  H    0.172315
   112  N   -0.578434
   113  H    0.356268
   114  N   -0.739394
   115  H    0.367096
   116  H    0.375766
   117  N   -0.742711
   118  H    0.363480
   119  H    0.365810
   120  C    0.712168
   121  O   -0.557123
   122  H    0.422832
   123  H    0.423593
 Sum of Mulliken charges =   1.00000

 Dipole moment (field-independent basis, Debye):
    X=              4.4683    Y=              0.1179    Z=            -13.8108  Tot=             14.5161
 Quadrupole moment (field-independent basis, Debye-Ang):
   XX=            488.0866   YY=           -255.0300   ZZ=           -214.5994
   XY=           -316.3638   XZ=           -298.7030   YZ=             80.8112

 Normal termination of Gaussian 16 at Sun Aug  7 18:52:33 2022.
