 Gaussian 16, Revision C.01,
 Gaussian 16:  ES64L-G16RevC.01  3-Jul-2019

 ----------------------------------------------------------------------
 # B3LYP/6-31G* empiricaldispersion=gd3 guess=read geom=check nosymm in
 tegral(ultrafinegrid)
 ----------------------------------------------------------------------

 ------------------------------------------------------
 Candidate Structure: Conf:727 Charge calc in gas phase
 ------------------------------------------------------
 Structure from the checkpoint file:  "conf-727.chk"
 Charge =  1 Multiplicity = 1

                          Input orientation:
 ---------------------------------------------------------------------
 Center     Atomic      Atomic             Coordinates (Angstroms)
 Number     Number       Type             X           Y           Z
 ---------------------------------------------------------------------
      1          7           0       -6.107647   -5.529326    7.803535
      2          1           0       -6.549016   -6.323492    7.341727
      3          1           0       -6.175594   -5.631674    8.813865
      4          1           0       -5.115681   -5.536193    7.543092
      5          6           0       -6.659842   -4.247058    7.330092
      6          1           0       -7.744793   -4.330103    7.201342
      7          6           0       -6.039829   -3.958864    5.964946
      8          6           0       -6.366323   -3.114923    8.330156
      9          1           0       -7.017634   -3.248457    9.199500
     10          1           0       -6.627926   -2.162198    7.860839
     11          8           0       -5.069873   -4.572890    5.554183
     12          6           0       -4.933834   -3.100484    8.776666
     13          6           0       -4.541778   -3.691239    9.975495
     14          1           0       -5.292696   -4.124406   10.626472
     15          6           0       -3.950132   -2.540265    7.962440
     16          1           0       -4.259440   -2.064292    7.037566
     17          6           0       -3.198984   -3.739053   10.344106
     18          1           0       -2.917426   -4.210232   11.278762
     19          6           0       -2.605649   -2.584112    8.321666
     20          1           0       -1.866854   -2.141602    7.663387
     21          6           0       -2.225212   -3.188949    9.516291
     22          1           0       -1.180175   -3.227659    9.801971
     23          7           0       -6.656227   -2.984253    5.237479
     24          1           0       -7.282598   -2.359716    5.714680
     25          6           0       -6.035249   -2.454849    4.039992
     26          1           0       -5.477596   -3.273016    3.585522
     27          6           0       -5.044412   -1.336502    4.407243
     28          6           0       -7.091446   -1.929567    3.074523
     29          1           0       -6.630556   -1.568532    2.151970
     30          1           0       -7.642680   -1.100432    3.526677
     31          1           0       -7.795073   -2.724800    2.826380
     32          8           0       -5.103883   -0.703140    5.457819
     33          7           0       -4.127566   -1.056077    3.454499
     34          1           0       -4.063731   -1.604222    2.609557
     35          6           0       -3.246623    0.087396    3.587718
     36          1           0       -3.818885    0.898550    4.037321
     37          6           0       -2.821486    0.438368    2.171845
     38          6           0       -2.029713   -0.215871    4.447017
     39          1           0       -1.415838    0.679453    4.576598
     40          1           0       -1.417350   -0.991820    3.982141
     41          1           0       -2.358942   -0.560996    5.426135
     42          8           0       -2.431764   -0.448030    1.408678
     43          7           0       -2.880800    1.738567    1.827641
     44          1           0       -3.314129    2.391866    2.458541
     45          6           0       -2.678635    2.163203    0.446614
     46          1           0       -3.084750    1.372415   -0.185838
     47          6           0       -1.171619    2.295965    0.222346
     48          6           0       -3.427407    3.471967    0.175319
     49          1           0       -3.022647    4.254431    0.812582
     50          1           0       -3.233895    3.761255   -0.858205
     51          8           0       -0.582490    3.372037    0.279869
     52          6           0       -4.879433    3.302503    0.413382
     53          6           0       -5.493462    3.844699    1.555799
     54          1           0       -4.901636    4.457469    2.230097
     55          6           0       -5.650710    2.515019   -0.462674
     56          1           0       -5.164325    2.094210   -1.338562
     57          6           0       -6.811164    3.617465    1.842574
     58          1           0       -7.288679    4.025578    2.723660
     59          6           0       -6.976551    2.268604   -0.238372
     60          1           0       -7.571343    1.663385   -0.909932
     61          8           0       -8.815130    2.568404    1.198292
     62          6           0       -7.629238    2.798315    0.954495
     63          7           0       -0.534151    1.120341    0.012641
     64          1           0       -1.054225    0.252364    0.037728
     65          6           0        0.902811    1.027993   -0.048687
     66          1           0        1.284570    2.040960    0.081986
     67          6           0        1.305950    0.498913   -1.433532
     68          6           0        1.458323    0.094386    1.030217
     69          1           0        1.218952   -0.934296    0.750630
     70          1           0        2.549156    0.175918    1.027276
     71          8           0        0.733332   -0.453225   -1.953767
     72          6           0        0.951394    0.368459    2.449500
     73          1           0       -0.131195    0.207509    2.454062
     74          6           0        1.580050   -0.620034    3.424145
     75          1           0        2.668430   -0.533848    3.402693
     76          1           0        1.248072   -0.433038    4.448861
     77          1           0        1.312990   -1.647479    3.164427
     78          6           0        1.242730    1.799371    2.881262
     79          1           0        2.323124    1.950960    2.963276
     80          1           0        0.854877    2.535913    2.178260
     81          1           0        0.797429    2.000515    3.859857
     82          7           0        2.359579    1.144169   -2.002209
     83          1           0        2.949290    1.752776   -1.449708
     84          6           0        3.001143    0.652200   -3.200153
     85          1           0        2.822547   -0.424344   -3.277488
     86          6           0        4.498852    0.901038   -3.034811
     87          6           0        2.468109    1.312496   -4.484039
     88          1           0        2.183514    2.343576   -4.267660
     89          1           0        3.264262    1.341227   -5.232821
     90          8           0        4.941876    1.658303   -2.191398
     91          6           0        1.287236    0.525902   -5.050763
     92          1           0        0.744235    1.106402   -5.797163
     93          1           0        0.579341    0.272022   -4.259439
     94          6           0        1.732087   -0.755893   -5.700466
     95          8           0        2.879444   -1.136451   -5.771713
     96          8           0        0.713341   -1.459081   -6.216243
     97          7           0        5.280296    0.209998   -3.901408
     98          1           0        4.832654   -0.344971   -4.620245
     99          6           0        6.716999    0.411767   -3.963322
    100          1           0        7.023327    0.825923   -3.002004
    101          6           0        7.019027    1.422304   -5.054478
    102          6           0        7.425650   -0.906807   -4.243910
    103          1           0        7.085660   -1.278205   -5.214116
    104          1           0        7.097243   -1.620361   -3.486521
    105          8           0        7.158376    1.153650   -6.223550
    106          6           0        8.944529   -0.792779   -4.222842
    107          1           0        9.265507   -0.317720   -3.294658
    108          1           0        9.276404   -0.155353   -5.038875
    109          6           0        9.609199   -2.154473   -4.353480
    110          1           0        9.259263   -2.664385   -5.257809
    111          1           0        9.319879   -2.781463   -3.507349
    112          7           0       11.082813   -2.121824   -4.347392
    113          1           0       11.510442   -2.004428   -3.439458
    114          7           0       11.204776   -1.301411   -6.529929
    115          1           0       11.752623   -1.218940   -7.371415
    116          1           0       10.241577   -1.564419   -6.655316
    117          7           0       13.135869   -1.476351   -5.205118
    118          1           0       13.694250   -1.320217   -6.031323
    119          1           0       13.584156   -2.033447   -4.489877
    120          6           0       11.802606   -1.651550   -5.375571
    121          8           0        7.082889    2.682219   -4.579512
    122          1           0        1.102104   -2.251708   -6.609871
    123          1           0        7.240285    3.247073   -5.347276
 ---------------------------------------------------------------------

 SCF Done:  E(RB3LYP) =  -2974.05497808     A.U. after    3 cycles

 Alpha  occ. eigenvalues --  -19.26901 -19.24946 -19.24496 -19.21709 -19.19926
 Alpha  occ. eigenvalues --  -19.18468 -19.18409 -19.16389 -19.15363 -19.13057
 Alpha  occ. eigenvalues --  -19.02725 -14.61101 -14.50489 -14.50422 -14.50168
 Alpha  occ. eigenvalues --  -14.46872 -14.43175 -14.42167 -14.40164 -14.39853
 Alpha  occ. eigenvalues --  -14.37396 -10.44667 -10.41452 -10.39600 -10.39429
 Alpha  occ. eigenvalues --  -10.37638 -10.35404 -10.35142 -10.35111 -10.33106
 Alpha  occ. eigenvalues --  -10.32429 -10.32240 -10.31529 -10.31420 -10.30115
 Alpha  occ. eigenvalues --  -10.29481 -10.29340 -10.28755 -10.28407 -10.28274
 Alpha  occ. eigenvalues --  -10.28238 -10.28015 -10.27703 -10.27549 -10.27265
 Alpha  occ. eigenvalues --  -10.25657 -10.25005 -10.24700 -10.24431 -10.24376
 Alpha  occ. eigenvalues --  -10.23069 -10.21823 -10.21793 -10.20946 -10.19710
 Alpha  occ. eigenvalues --  -10.18492 -10.18175 -10.15366 -10.15212 -10.14826
 Alpha  occ. eigenvalues --  -10.13177 -10.12977  -1.18394  -1.18283  -1.16645
 Alpha  occ. eigenvalues --   -1.15091  -1.15004  -1.11065  -1.10685  -1.09385
 Alpha  occ. eigenvalues --   -1.08573  -1.07466  -1.07378  -1.05113  -1.04617
 Alpha  occ. eigenvalues --   -1.03728  -1.03605  -1.00374  -0.98791  -0.96939
 Alpha  occ. eigenvalues --   -0.96716  -0.96083  -0.94686  -0.93610  -0.92447
 Alpha  occ. eigenvalues --   -0.91097  -0.86783  -0.86324  -0.84917  -0.84731
 Alpha  occ. eigenvalues --   -0.84488  -0.83547  -0.82662  -0.81267  -0.80302
 Alpha  occ. eigenvalues --   -0.79234  -0.78760  -0.77734  -0.76530  -0.76054
 Alpha  occ. eigenvalues --   -0.74677  -0.74238  -0.73288  -0.72768  -0.72574
 Alpha  occ. eigenvalues --   -0.71901  -0.71584  -0.71151  -0.70813  -0.70553
 Alpha  occ. eigenvalues --   -0.69899  -0.69394  -0.68885  -0.68385  -0.68141
 Alpha  occ. eigenvalues --   -0.66573  -0.65848  -0.65428  -0.64465  -0.63902
 Alpha  occ. eigenvalues --   -0.63775  -0.63252  -0.63177  -0.62826  -0.62538
 Alpha  occ. eigenvalues --   -0.62097  -0.61093  -0.60668  -0.59723  -0.59518
 Alpha  occ. eigenvalues --   -0.59201  -0.59062  -0.58545  -0.57342  -0.57155
 Alpha  occ. eigenvalues --   -0.56628  -0.56438  -0.56321  -0.55901  -0.55529
 Alpha  occ. eigenvalues --   -0.55464  -0.55264  -0.54808  -0.54600  -0.53995
 Alpha  occ. eigenvalues --   -0.53673  -0.53507  -0.53033  -0.52444  -0.52209
 Alpha  occ. eigenvalues --   -0.51963  -0.51751  -0.51566  -0.51414  -0.50929
 Alpha  occ. eigenvalues --   -0.50805  -0.50643  -0.50429  -0.50243  -0.49752
 Alpha  occ. eigenvalues --   -0.49582  -0.49354  -0.49092  -0.48571  -0.48521
 Alpha  occ. eigenvalues --   -0.47847  -0.47464  -0.47364  -0.46822  -0.46569
 Alpha  occ. eigenvalues --   -0.46253  -0.46183  -0.45595  -0.45534  -0.45381
 Alpha  occ. eigenvalues --   -0.44969  -0.44625  -0.44313  -0.44252  -0.44058
 Alpha  occ. eigenvalues --   -0.43970  -0.43587  -0.43406  -0.43289  -0.43128
 Alpha  occ. eigenvalues --   -0.42777  -0.42750  -0.42379  -0.41900  -0.41878
 Alpha  occ. eigenvalues --   -0.41792  -0.41397  -0.41338  -0.41230  -0.40985
 Alpha  occ. eigenvalues --   -0.40835  -0.40003  -0.39699  -0.39611  -0.39488
 Alpha  occ. eigenvalues --   -0.39389  -0.38977  -0.38802  -0.38476  -0.37540
 Alpha  occ. eigenvalues --   -0.36977  -0.36481  -0.36133  -0.35835  -0.35655
 Alpha  occ. eigenvalues --   -0.35523  -0.34436  -0.34391  -0.33924  -0.33657
 Alpha  occ. eigenvalues --   -0.33496  -0.32620  -0.32556  -0.32122  -0.32004
 Alpha  occ. eigenvalues --   -0.31290  -0.30922  -0.30596  -0.30214  -0.29868
 Alpha  occ. eigenvalues --   -0.29316  -0.26909  -0.26659  -0.26141  -0.21779
 Alpha  occ. eigenvalues --   -0.16328  -0.12592
 Alpha virt. eigenvalues --   -0.12061  -0.11507  -0.10333  -0.09952  -0.08494
 Alpha virt. eigenvalues --   -0.07900  -0.07372  -0.05528  -0.04843  -0.04393
 Alpha virt. eigenvalues --   -0.04188  -0.03571  -0.03393  -0.03065  -0.02253

 Mulliken charges:
               1
     1  N   -0.711810
     2  H    0.424919
     3  H    0.415426
     4  H    0.431672
     5  C   -0.138396
     6  H    0.220709
     7  C    0.644865
     8  C   -0.402357
     9  H    0.182477
    10  H    0.226934
    11  O   -0.513255
    12  C    0.129031
    13  C   -0.227233
    14  H    0.122265
    15  C   -0.186007
    16  H    0.202199
    17  C   -0.122982
    18  H    0.154125
    19  C   -0.136642
    20  H    0.163372
    21  C   -0.124953
    22  H    0.159108
    23  N   -0.577171
    24  H    0.348622
    25  C   -0.092835
    26  H    0.192332
    27  C    0.640423
    28  C   -0.458660
    29  H    0.199000
    30  H    0.190355
    31  H    0.170340
    32  O   -0.543852
    33  N   -0.600980
    34  H    0.353169
    35  C   -0.009276
    36  H    0.184628
    37  C    0.622813
    38  C   -0.467760
    39  H    0.169451
    40  H    0.172821
    41  H    0.164035
    42  O   -0.571337
    43  N   -0.586094
    44  H    0.345311
    45  C   -0.053228
    46  H    0.176381
    47  C    0.629013
    48  C   -0.390882
    49  H    0.156760
    50  H    0.152817
    51  O   -0.540593
    52  C    0.142795
    53  C   -0.206139
    54  H    0.076704
    55  C   -0.178858
    56  H    0.080060
    57  C   -0.221950
    58  H    0.087561
    59  C   -0.220754
    60  H    0.088582
    61  O   -0.616403
    62  C    0.407341
    63  N   -0.595197
    64  H    0.367305
    65  C   -0.079338
    66  H    0.180960
    67  C    0.626013
    68  C   -0.267595
    69  H    0.148395
    70  H    0.126888
    71  O   -0.542191
    72  C   -0.087022
    73  H    0.150281
    74  C   -0.442275
    75  H    0.136563
    76  H    0.135555
    77  H    0.136185
    78  C   -0.473361
    79  H    0.130519
    80  H    0.191534
    81  H    0.133226
    82  N   -0.610228
    83  H    0.356254
    84  C   -0.051555
    85  H    0.186512
    86  C    0.593955
    87  C   -0.264352
    88  H    0.173054
    89  H    0.150866
    90  O   -0.513167
    91  C   -0.377860
    92  H    0.187867
    93  H    0.234752
    94  C    0.591210
    95  O   -0.493554
    96  O   -0.546603
    97  N   -0.631568
    98  H    0.369602
    99  C   -0.020200
   100  H    0.200051
   101  C    0.580735
   102  C   -0.283268
   103  H    0.164952
   104  H    0.162230
   105  O   -0.471911
   106  C   -0.288680
   107  H    0.160702
   108  H    0.172781
   109  C   -0.191664
   110  H    0.175969
   111  H    0.192735
   112  N   -0.577045
   113  H    0.356623
   114  N   -0.735661
   115  H    0.367820
   116  H    0.381362
   117  N   -0.741502
   118  H    0.363514
   119  H    0.366181
   120  C    0.715774
   121  O   -0.541312
   122  H    0.412834
   123  H    0.417340
 Sum of Mulliken charges =   1.00000

 Dipole moment (field-independent basis, Debye):
    X=             35.2251    Y=            -34.3385    Z=              8.2350  Tot=             49.8775
 Quadrupole moment (field-independent basis, Debye-Ang):
   XX=            131.2783   YY=           -274.9694   ZZ=             12.7222
   XY=            109.8605   XZ=           -393.7528   YZ=           -133.2527

 Normal termination of Gaussian 16 at Sun Aug  7 18:56:11 2022.
