 Gaussian 16, Revision C.01,
 Gaussian 16:  ES64L-G16RevC.01  3-Jul-2019

 ----------------------------------------------------------------------
 # B3LYP/6-31G* empiricaldispersion=gd3 guess=read geom=check nosymm in
 tegral(ultrafinegrid)
 ----------------------------------------------------------------------

 ------------------------------------------------------
 Candidate Structure: Conf:231 Charge calc in gas phase
 ------------------------------------------------------
 Structure from the checkpoint file:  "conf-231.chk"
 Charge =  1 Multiplicity = 1

                          Input orientation:
 ---------------------------------------------------------------------
 Center     Atomic      Atomic             Coordinates (Angstroms)
 Number     Number       Type             X           Y           Z
 ---------------------------------------------------------------------
      1          7           0      -10.875557    7.095133    0.175433
      2          1           0      -11.162926    6.732237   -0.736090
      3          1           0      -11.136435    8.079042    0.236996
      4          1           0      -11.382033    6.554683    0.889721
      5          6           0       -9.423204    6.880936    0.421317
      6          1           0       -8.848988    7.222318   -0.443999
      7          6           0       -9.238566    5.377225    0.647198
      8          6           0       -8.959013    7.655992    1.665527
      9          1           0       -9.530567    7.290933    2.523843
     10          1           0       -9.209755    8.712721    1.519679
     11          8           0      -10.141675    4.726398    1.166059
     12          6           0       -7.479053    7.481462    1.903687
     13          6           0       -7.014859    6.593675    2.875353
     14          1           0       -7.726557    6.023180    3.465907
     15          6           0       -6.555356    8.169687    1.114890
     16          1           0       -6.917426    8.845533    0.343954
     17          6           0       -5.644967    6.417163    3.068915
     18          1           0       -5.295410    5.723529    3.827601
     19          6           0       -5.186268    7.993973    1.307224
     20          1           0       -4.481715    8.541927    0.691843
     21          6           0       -4.728452    7.117653    2.288553
     22          1           0       -3.664336    6.980440    2.442119
     23          7           0       -8.046312    4.877799    0.285888
     24          1           0       -7.297028    5.493896   -0.009299
     25          6           0       -7.615363    3.545442    0.686614
     26          1           0       -8.114789    3.288917    1.625511
     27          6           0       -6.106465    3.642597    0.900043
     28          6           0       -7.949170    2.491491   -0.370867
     29          1           0       -7.584692    1.510333   -0.052407
     30          1           0       -7.467260    2.748031   -1.317255
     31          1           0       -9.029399    2.440666   -0.522983
     32          8           0       -5.411398    4.343132    0.174958
     33          7           0       -5.616631    2.908473    1.936135
     34          1           0       -6.181513    2.126947    2.237012
     35          6           0       -4.185172    2.664959    2.035226
     36          1           0       -3.689568    3.548458    1.628883
     37          6           0       -3.849327    1.433433    1.175668
     38          6           0       -3.779228    2.445406    3.489988
     39          1           0       -2.700596    2.290215    3.572657
     40          1           0       -4.286206    1.566840    3.900532
     41          1           0       -4.056460    3.317194    4.088115
     42          8           0       -4.695079    0.581303    0.927980
     43          7           0       -2.568109    1.347378    0.764440
     44          1           0       -1.865796    2.025044    1.027525
     45          6           0       -2.088218    0.202337    0.019170
     46          1           0       -2.533910   -0.703968    0.438436
     47          6           0       -0.568838    0.182790    0.186195
     48          6           0       -2.516134    0.255589   -1.479468
     49          1           0       -3.604414    0.347397   -1.472765
     50          1           0       -2.095845    1.149348   -1.952430
     51          8           0        0.028721    1.194745    0.570781
     52          6           0       -2.084642   -0.991624   -2.186812
     53          6           0       -0.933199   -1.031734   -2.993665
     54          1           0       -0.433724   -0.102569   -3.246867
     55          6           0       -2.691000   -2.215715   -1.843725
     56          1           0       -3.588254   -2.186948   -1.222857
     57          6           0       -0.367828   -2.217368   -3.379198
     58          1           0        0.557641   -2.225326   -3.943486
     59          6           0       -2.144225   -3.423488   -2.199549
     60          1           0       -2.595106   -4.361536   -1.895126
     61          8           0       -0.339195   -4.574558   -3.217520
     62          6           0       -0.900890   -3.496497   -2.953087
     63          7           0        0.063891   -0.965970   -0.136392
     64          1           0       -0.443252   -1.637225   -0.712818
     65          6           0        1.529098   -1.039591   -0.205380
     66          1           0        1.897300   -0.450962    0.636453
     67          6           0        1.973718   -0.362539   -1.506450
     68          6           0        1.983227   -2.488948   -0.103203
     69          1           0        1.459670   -2.940488    0.745573
     70          1           0        1.655833   -3.013001   -1.006953
     71          8           0        2.353934   -0.986845   -2.504313
     72          6           0        3.494076   -2.686913    0.077132
     73          1           0        3.997238   -2.168113   -0.748910
     74          6           0        4.000042   -2.112477    1.400879
     75          1           0        3.529145   -2.629228    2.244434
     76          1           0        5.082645   -2.243344    1.490956
     77          1           0        3.786294   -1.044291    1.497646
     78          6           0        3.825051   -4.178042   -0.023584
     79          1           0        3.314403   -4.737742    0.766465
     80          1           0        3.509043   -4.587628   -0.986736
     81          1           0        4.900386   -4.351536    0.083376
     82          7           0        1.874553    0.986544   -1.496422
     83          1           0        1.497153    1.415331   -0.655549
     84          6           0        1.762081    1.760814   -2.728365
     85          1           0        1.332651    1.097863   -3.490555
     86          6           0        3.144506    2.192735   -3.237394
     87          6           0        0.830364    2.947578   -2.474013
     88          1           0        0.018654    2.606695   -1.821822
     89          1           0        1.389534    3.713986   -1.929842
     90          8           0        3.467427    3.358354   -3.423038
     91          6           0        0.215468    3.554543   -3.742102
     92          1           0        0.993922    3.853913   -4.444233
     93          1           0       -0.374266    4.434125   -3.470474
     94          6           0       -0.689611    2.545502   -4.394696
     95          8           0       -0.471221    1.932774   -5.409160
     96          8           0       -1.813790    2.339054   -3.647747
     97          7           0        3.994126    1.154337   -3.452568
     98          1           0        3.604751    0.215967   -3.430900
     99          6           0        5.275188    1.383165   -4.078484
    100          1           0        5.745466    2.247703   -3.599904
    101          6           0        5.097122    1.695670   -5.558884
    102          6           0        6.149295    0.132973   -3.899034
    103          1           0        5.690812   -0.693763   -4.451788
    104          1           0        6.113941   -0.127170   -2.836234
    105          8           0        4.230729    1.252462   -6.267717
    106          6           0        7.601347    0.311182   -4.331187
    107          1           0        8.035786    1.173251   -3.816214
    108          1           0        7.657276    0.518083   -5.403442
    109          6           0        8.423630   -0.928478   -4.009698
    110          1           0        7.997820   -1.804673   -4.516594
    111          1           0        8.385536   -1.116202   -2.931642
    112          7           0        9.827585   -0.726096   -4.411579
    113          1           0        9.948137   -0.168290   -5.247250
    114          7           0       10.502841   -2.800964   -3.552078
    115          1           0       11.264489   -3.348412   -3.181040
    116          1           0        9.627877   -2.874029   -3.058114
    117          7           0       11.987087   -1.485752   -4.804483
    118          1           0       12.741944   -2.086867   -4.507503
    119          1           0       12.265705   -0.532003   -4.994320
    120          6           0       10.769995   -1.670573   -4.234337
    121          8           0        6.082322    2.510202   -6.010964
    122          1           0       -2.313764    1.639291   -4.095553
    123          1           0        5.912866    2.635526   -6.957294
 ---------------------------------------------------------------------

 SCF Done:  E(RB3LYP) =  -2974.07063809     A.U. after    1 cycles

 Alpha  occ. eigenvalues --  -19.24892 -19.24570 -19.21785 -19.19574 -19.18785
 Alpha  occ. eigenvalues --  -19.16237 -19.16025 -19.15436 -19.15180 -19.14913
 Alpha  occ. eigenvalues --  -19.02734 -14.62395 -14.51116 -14.50622 -14.50494
 Alpha  occ. eigenvalues --  -14.47337 -14.42898 -14.39241 -14.38824 -14.38772
 Alpha  occ. eigenvalues --  -14.38432 -10.45769 -10.41696 -10.40317 -10.36622
 Alpha  occ. eigenvalues --  -10.36403 -10.34435 -10.34205 -10.33636 -10.32488
 Alpha  occ. eigenvalues --  -10.32242 -10.32147 -10.31797 -10.31464 -10.30175
 Alpha  occ. eigenvalues --  -10.29134 -10.28882 -10.28771 -10.28641 -10.28533
 Alpha  occ. eigenvalues --  -10.28089 -10.27972 -10.27804 -10.27070 -10.26271
 Alpha  occ. eigenvalues --  -10.25868 -10.25541 -10.25328 -10.24546 -10.22678
 Alpha  occ. eigenvalues --  -10.22624 -10.21395 -10.20396 -10.20084 -10.19547
 Alpha  occ. eigenvalues --  -10.19089 -10.18412 -10.15765 -10.15689 -10.15244
 Alpha  occ. eigenvalues --  -10.13567 -10.13034  -1.18658  -1.15779  -1.15329
 Alpha  occ. eigenvalues --   -1.15255  -1.12762  -1.11775  -1.08276  -1.07554
 Alpha  occ. eigenvalues --   -1.07360  -1.06637  -1.06222  -1.04782  -1.04064
 Alpha  occ. eigenvalues --   -1.04057  -1.03900  -0.99623  -0.96733  -0.96568
 Alpha  occ. eigenvalues --   -0.96193  -0.95787  -0.95212  -0.93010  -0.92833
 Alpha  occ. eigenvalues --   -0.89894  -0.87126  -0.84996  -0.84400  -0.83876
 Alpha  occ. eigenvalues --   -0.83781  -0.83266  -0.83062  -0.81892  -0.79553
 Alpha  occ. eigenvalues --   -0.79051  -0.78271  -0.76981  -0.76021  -0.75886
 Alpha  occ. eigenvalues --   -0.74955  -0.74874  -0.74486  -0.72999  -0.71874
 Alpha  occ. eigenvalues --   -0.71099  -0.71048  -0.70602  -0.70507  -0.70260
 Alpha  occ. eigenvalues --   -0.69021  -0.68719  -0.68288  -0.67999  -0.67499
 Alpha  occ. eigenvalues --   -0.66829  -0.65067  -0.64587  -0.64022  -0.63722
 Alpha  occ. eigenvalues --   -0.63306  -0.63188  -0.63009  -0.62568  -0.61136
 Alpha  occ. eigenvalues --   -0.60846  -0.60779  -0.60280  -0.60126  -0.60023
 Alpha  occ. eigenvalues --   -0.58500  -0.58213  -0.57793  -0.57149  -0.56924
 Alpha  occ. eigenvalues --   -0.56836  -0.56020  -0.55855  -0.55588  -0.55287
 Alpha  occ. eigenvalues --   -0.54836  -0.54564  -0.53876  -0.53626  -0.53224
 Alpha  occ. eigenvalues --   -0.52855  -0.52821  -0.52075  -0.51949  -0.51447
 Alpha  occ. eigenvalues --   -0.51323  -0.51160  -0.50889  -0.50636  -0.50414
 Alpha  occ. eigenvalues --   -0.50258  -0.50087  -0.49767  -0.48969  -0.48777
 Alpha  occ. eigenvalues --   -0.48631  -0.48425  -0.48003  -0.47812  -0.47244
 Alpha  occ. eigenvalues --   -0.46780  -0.46723  -0.46461  -0.46099  -0.45860
 Alpha  occ. eigenvalues --   -0.45699  -0.45540  -0.45062  -0.44854  -0.44617
 Alpha  occ. eigenvalues --   -0.44490  -0.44254  -0.44103  -0.44059  -0.43682
 Alpha  occ. eigenvalues --   -0.43583  -0.43497  -0.43371  -0.43008  -0.42621
 Alpha  occ. eigenvalues --   -0.42476  -0.42314  -0.41977  -0.41849  -0.41583
 Alpha  occ. eigenvalues --   -0.41297  -0.41150  -0.40959  -0.40700  -0.40024
 Alpha  occ. eigenvalues --   -0.39960  -0.39421  -0.39166  -0.38982  -0.38765
 Alpha  occ. eigenvalues --   -0.38422  -0.38270  -0.37864  -0.37286  -0.36825
 Alpha  occ. eigenvalues --   -0.36800  -0.35577  -0.35318  -0.35009  -0.34906
 Alpha  occ. eigenvalues --   -0.34410  -0.34368  -0.33813  -0.33548  -0.33482
 Alpha  occ. eigenvalues --   -0.32892  -0.32578  -0.31757  -0.31355  -0.30927
 Alpha  occ. eigenvalues --   -0.30285  -0.29776  -0.29570  -0.29302  -0.29157
 Alpha  occ. eigenvalues --   -0.28959  -0.27489  -0.26900  -0.26454  -0.22087
 Alpha  occ. eigenvalues --   -0.16399  -0.13360
 Alpha virt. eigenvalues --   -0.12490  -0.12396  -0.10632  -0.10414  -0.09647
 Alpha virt. eigenvalues --   -0.07453  -0.06341  -0.05595  -0.04764  -0.04429
 Alpha virt. eigenvalues --   -0.03543  -0.02635  -0.02520  -0.02200  -0.02031

 Mulliken charges:
               1
     1  N   -0.717684
     2  H    0.430659
     3  H    0.419621
     4  H    0.425912
     5  C   -0.145497
     6  H    0.216373
     7  C    0.637357
     8  C   -0.372304
     9  H    0.188817
    10  H    0.174661
    11  O   -0.530628
    12  C    0.151332
    13  C   -0.181988
    14  H    0.145852
    15  C   -0.193942
    16  H    0.127243
    17  C   -0.124614
    18  H    0.160010
    19  C   -0.115882
    20  H    0.160258
    21  C   -0.107463
    22  H    0.160174
    23  N   -0.587725
    24  H    0.367622
    25  C   -0.053338
    26  H    0.179444
    27  C    0.619262
    28  C   -0.449947
    29  H    0.197836
    30  H    0.178226
    31  H    0.168811
    32  O   -0.527064
    33  N   -0.582562
    34  H    0.341674
    35  C   -0.087760
    36  H    0.182068
    37  C    0.635299
    38  C   -0.455238
    39  H    0.173669
    40  H    0.166788
    41  H    0.154779
    42  O   -0.545274
    43  N   -0.614651
    44  H    0.343357
    45  C   -0.036257
    46  H    0.186291
    47  C    0.617960
    48  C   -0.388227
    49  H    0.154421
    50  H    0.175686
    51  O   -0.589311
    52  C    0.063987
    53  C   -0.212412
    54  H    0.087217
    55  C   -0.196389
    56  H    0.097450
    57  C   -0.222041
    58  H    0.109513
    59  C   -0.219479
    60  H    0.095653
    61  O   -0.627342
    62  C    0.404068
    63  N   -0.600560
    64  H    0.393557
    65  C   -0.070753
    66  H    0.165560
    67  C    0.645495
    68  C   -0.282472
    69  H    0.139038
    70  H    0.206385
    71  O   -0.549861
    72  C   -0.078588
    73  H    0.123118
    74  C   -0.446056
    75  H    0.145197
    76  H    0.127423
    77  H    0.139206
    78  C   -0.445035
    79  H    0.145810
    80  H    0.170776
    81  H    0.116505
    82  N   -0.624799
    83  H    0.377375
    84  C   -0.079511
    85  H    0.213680
    86  C    0.647305
    87  C   -0.326050
    88  H    0.175803
    89  H    0.165648
    90  O   -0.539450
    91  C   -0.328715
    92  H    0.192946
    93  H    0.161314
    94  C    0.565818
    95  O   -0.444710
    96  O   -0.570434
    97  N   -0.627807
    98  H    0.381513
    99  C   -0.009121
   100  H    0.184862
   101  C    0.587272
   102  C   -0.313439
   103  H    0.179415
   104  H    0.169763
   105  O   -0.440435
   106  C   -0.303160
   107  H    0.172998
   108  H    0.166727
   109  C   -0.156965
   110  H    0.189727
   111  H    0.176833
   112  N   -0.594693
   113  H    0.361497
   114  N   -0.737037
   115  H    0.372120
   116  H    0.388672
   117  N   -0.738903
   118  H    0.367496
   119  H    0.373059
   120  C    0.742778
   121  O   -0.574841
   122  H    0.423071
   123  H    0.413301
 Sum of Mulliken charges =   1.00000

 Dipole moment (field-independent basis, Debye):
    X=              1.9871    Y=             31.6948    Z=             -0.6109  Tot=             31.7629
 Quadrupole moment (field-independent basis, Debye-Ang):
   XX=            489.5337   YY=           -178.7225   ZZ=           -334.4504
   XY=           -372.0755   XZ=           -176.4824   YZ=             -3.6090

 Normal termination of Gaussian 16 at Sun Aug  7 18:51:27 2022.
