 Gaussian 16, Revision C.01,
 Gaussian 16:  ES64L-G16RevC.01  3-Jul-2019

 ----------------------------------------------------------------------
 # B3LYP/6-31G* empiricaldispersion=gd3 guess=read geom=check nosymm in
 tegral(ultrafinegrid)
 ----------------------------------------------------------------------

 ------------------------------------------------------
 Candidate Structure: Conf:879 Charge calc in gas phase
 ------------------------------------------------------
 Structure from the checkpoint file:  "conf-879.chk"
 Charge =  1 Multiplicity = 1

                          Input orientation:
 ---------------------------------------------------------------------
 Center     Atomic      Atomic             Coordinates (Angstroms)
 Number     Number       Type             X           Y           Z
 ---------------------------------------------------------------------
      1          7           0       -7.891800    0.925617    8.664229
      2          1           0       -8.722744    0.332853    8.686605
      3          1           0       -7.734538    1.329642    9.584688
      4          1           0       -7.101683    0.328778    8.402082
      5          6           0       -7.992447    1.953701    7.611785
      6          1           0       -9.028890    2.293634    7.516892
      7          6           0       -7.547229    1.294699    6.306123
      8          6           0       -7.121116    3.175536    7.930718
      9          1           0       -6.070185    2.871781    7.933764
     10          1           0       -7.376064    3.495031    8.946206
     11          8           0       -6.858080    0.278344    6.321638
     12          6           0       -7.347868    4.303133    6.958349
     13          6           0       -6.428884    4.578860    5.949113
     14          1           0       -5.533609    3.973268    5.870327
     15          6           0       -8.524874    5.044200    7.013810
     16          1           0       -9.249187    4.810059    7.789037
     17          6           0       -6.686285    5.572940    5.010885
     18          1           0       -5.960078    5.758420    4.228123
     19          6           0       -8.779627    6.046412    6.086243
     20          1           0       -9.701594    6.612045    6.148784
     21          6           0       -7.857668    6.315969    5.076796
     22          1           0       -8.051985    7.094064    4.349631
     23          7           0       -7.953554    1.889021    5.165634
     24          1           0       -8.334193    2.821594    5.218411
     25          6           0       -7.513704    1.425988    3.857151
     26          1           0       -7.439170    0.337306    3.934687
     27          6           0       -6.114344    1.988175    3.557305
     28          6           0       -8.533476    1.822590    2.806715
     29          1           0       -8.269717    1.405643    1.832181
     30          1           0       -8.580559    2.908967    2.717687
     31          1           0       -9.514233    1.434992    3.087083
     32          8           0       -5.914101    2.860354    2.714917
     33          7           0       -5.118344    1.509881    4.350550
     34          1           0       -5.306801    0.681265    4.901093
     35          6           0       -3.730078    1.687466    3.970688
     36          1           0       -3.666860    2.631410    3.425284
     37          6           0       -3.322472    0.529987    3.054645
     38          6           0       -2.831741    1.704202    5.200894
     39          1           0       -1.794618    1.897037    4.915811
     40          1           0       -2.877216    0.740809    5.711835
     41          1           0       -3.157149    2.483792    5.890725
     42          8           0       -3.663059   -0.615021    3.290816
     43          7           0       -2.541437    0.874196    1.996267
     44          1           0       -2.037014    1.747117    1.984330
     45          6           0       -2.100785   -0.113289    1.044514
     46          1           0       -2.334560   -1.086209    1.472589
     47          6           0       -0.600286    0.068116    0.829084
     48          6           0       -2.832531    0.029178   -0.304556
     49          1           0       -2.529332    0.982248   -0.748375
     50          1           0       -2.487253   -0.766292   -0.970980
     51          8           0       -0.046075    1.142580    0.999176
     52          6           0       -4.323496   -0.005828   -0.178984
     53          6           0       -5.027353    1.174533    0.130629
     54          1           0       -4.469162    2.090416    0.317871
     55          6           0       -5.059915   -1.188551   -0.355249
     56          1           0       -4.540430   -2.111044   -0.594704
     57          6           0       -6.396130    1.202007    0.221067
     58          1           0       -6.925756    2.115603    0.431782
     59          6           0       -6.432324   -1.213814   -0.247255
     60          1           0       -6.992928   -2.128772   -0.386934
     61          8           0       -8.419107   -0.001158    0.097689
     62          6           0       -7.181478    0.000421    0.032134
     63          7           0        0.054528   -1.043150    0.401857
     64          1           0       -0.490606   -1.840017    0.125272
     65          6           0        1.431182   -0.954832   -0.058510
     66          1           0        1.885444   -0.153602    0.529876
     67          6           0        1.446291   -0.578282   -1.535281
     68          6           0        2.182810   -2.250083    0.176979
     69          1           0        2.136076   -2.461901    1.247888
     70          1           0        1.669203   -3.061766   -0.344113
     71          8           0        1.393070   -1.405370   -2.435701
     72          6           0        3.654202   -2.220935   -0.263530
     73          1           0        3.671192   -2.206052   -1.359158
     74          6           0        4.388960   -0.982974    0.241677
     75          1           0        4.237175   -0.854535    1.317228
     76          1           0        5.462689   -1.078381    0.060222
     77          1           0        4.058736   -0.073335   -0.269126
     78          6           0        4.338218   -3.499884    0.213708
     79          1           0        4.367363   -3.527374    1.305522
     80          1           0        3.804542   -4.385955   -0.137139
     81          1           0        5.364264   -3.556869   -0.156038
     82          7           0        1.487114    0.759772   -1.775421
     83          1           0        1.618289    1.358423   -0.976606
     84          6           0        2.057704    1.233853   -3.035194
     85          1           0        1.572893    0.672135   -3.829073
     86          6           0        3.577460    0.971639   -3.060039
     87          6           0        1.797607    2.737468   -3.180128
     88          1           0        0.775627    2.867742   -3.528272
     89          1           0        1.877185    3.190252   -2.187315
     90          8           0        4.334695    1.354442   -2.148619
     91          6           0        2.791916    3.436592   -4.102060
     92          1           0        3.796792    3.367032   -3.670189
     93          1           0        2.560512    4.499255   -4.196310
     94          6           0        2.837309    2.855201   -5.483379
     95          8           0        2.104456    1.985904   -5.900580
     96          8           0        3.812922    3.414615   -6.215952
     97          7           0        3.994540    0.313664   -4.175257
     98          1           0        3.341383    0.168182   -4.930218
     99          6           0        5.411603    0.118753   -4.440655
    100          1           0        5.919663    0.223592   -3.478345
    101          6           0        5.884654    1.226834   -5.360388
    102          6           0        5.642491   -1.262753   -5.029389
    103          1           0        5.086999   -1.364861   -5.959041
    104          1           0        5.202478   -1.975325   -4.330866
    105          8           0        5.768711    1.214967   -6.562999
    106          6           0        7.108959   -1.602656   -5.246711
    107          1           0        7.676871   -1.433401   -4.326229
    108          1           0        7.527104   -0.934191   -6.003078
    109          6           0        7.305579   -3.053672   -5.674185
    110          1           0        6.995465   -3.725257   -4.873101
    111          1           0        8.359512   -3.248391   -5.872372
    112          7           0        6.575596   -3.397143   -6.915131
    113          1           0        6.876784   -2.821804   -7.691958
    114          7           0        4.677122   -4.226428   -5.841433
    115          1           0        3.710167   -4.500312   -5.891231
    116          1           0        5.259303   -4.819533   -5.268960
    117          7           0        4.467879   -3.186770   -7.931753
    118          1           0        3.568697   -3.629334   -8.061113
    119          1           0        4.922405   -2.941964   -8.800926
    120          6           0        5.248123   -3.628357   -6.909195
    121          8           0        6.401185    2.264585   -4.675020
    122          1           0        3.885787    2.905578   -7.037103
    123          1           0        6.536857    2.969104   -5.322682
 ---------------------------------------------------------------------

 SCF Done:  E(RB3LYP) =  -2974.05329565     A.U. after    3 cycles

 Alpha  occ. eigenvalues --  -19.27633 -19.26372 -19.23737 -19.22562 -19.20696
 Alpha  occ. eigenvalues --  -19.18450 -19.16671 -19.16189 -19.15621 -19.14021
 Alpha  occ. eigenvalues --  -19.03868 -14.61109 -14.50390 -14.50017 -14.50013
 Alpha  occ. eigenvalues --  -14.45877 -14.44181 -14.40646 -14.40625 -14.39729
 Alpha  occ. eigenvalues --  -14.38177 -10.44657 -10.40440 -10.40237 -10.39187
 Alpha  occ. eigenvalues --  -10.38754 -10.35472 -10.34447 -10.33156 -10.32759
 Alpha  occ. eigenvalues --  -10.32736 -10.32573 -10.31720 -10.31104 -10.29169
 Alpha  occ. eigenvalues --  -10.29164 -10.28799 -10.28465 -10.28049 -10.27913
 Alpha  occ. eigenvalues --  -10.27331 -10.27272 -10.27219 -10.26953 -10.26877
 Alpha  occ. eigenvalues --  -10.26688 -10.26054 -10.25328 -10.25091 -10.23388
 Alpha  occ. eigenvalues --  -10.23360 -10.22904 -10.22069 -10.21130 -10.19981
 Alpha  occ. eigenvalues --  -10.19932 -10.18789 -10.15733 -10.15574 -10.15493
 Alpha  occ. eigenvalues --  -10.13494 -10.13234  -1.19148  -1.17976  -1.17723
 Alpha  occ. eigenvalues --   -1.14608  -1.14475  -1.10242  -1.09902  -1.08968
 Alpha  occ. eigenvalues --   -1.08590  -1.08280  -1.07692  -1.06337  -1.04439
 Alpha  occ. eigenvalues --   -1.03365  -1.02586  -1.00702  -0.97934  -0.97283
 Alpha  occ. eigenvalues --   -0.96576  -0.95776  -0.95247  -0.94446  -0.91963
 Alpha  occ. eigenvalues --   -0.90652  -0.87179  -0.86229  -0.85226  -0.85129
 Alpha  occ. eigenvalues --   -0.83255  -0.83007  -0.82203  -0.80845  -0.80753
 Alpha  occ. eigenvalues --   -0.79723  -0.78661  -0.78364  -0.77036  -0.76312
 Alpha  occ. eigenvalues --   -0.74859  -0.73898  -0.73150  -0.72921  -0.72299
 Alpha  occ. eigenvalues --   -0.71781  -0.71415  -0.70939  -0.70678  -0.70007
 Alpha  occ. eigenvalues --   -0.69610  -0.69342  -0.68296  -0.67680  -0.67117
 Alpha  occ. eigenvalues --   -0.66893  -0.66626  -0.65231  -0.64793  -0.64088
 Alpha  occ. eigenvalues --   -0.63056  -0.62878  -0.62763  -0.62739  -0.62382
 Alpha  occ. eigenvalues --   -0.61336  -0.61268  -0.61098  -0.60427  -0.60024
 Alpha  occ. eigenvalues --   -0.59884  -0.59157  -0.57865  -0.57516  -0.56996
 Alpha  occ. eigenvalues --   -0.56944  -0.56713  -0.56537  -0.56176  -0.56146
 Alpha  occ. eigenvalues --   -0.55508  -0.55316  -0.54946  -0.54317  -0.54188
 Alpha  occ. eigenvalues --   -0.53679  -0.53612  -0.53475  -0.53242  -0.52086
 Alpha  occ. eigenvalues --   -0.51930  -0.51808  -0.51454  -0.51139  -0.50834
 Alpha  occ. eigenvalues --   -0.50563  -0.50393  -0.50371  -0.50230  -0.49425
 Alpha  occ. eigenvalues --   -0.49282  -0.49200  -0.48556  -0.48431  -0.48029
 Alpha  occ. eigenvalues --   -0.47774  -0.47017  -0.46918  -0.46687  -0.46523
 Alpha  occ. eigenvalues --   -0.45997  -0.45774  -0.45427  -0.44869  -0.44790
 Alpha  occ. eigenvalues --   -0.44692  -0.44665  -0.44375  -0.44290  -0.44256
 Alpha  occ. eigenvalues --   -0.44124  -0.43690  -0.43331  -0.43164  -0.42834
 Alpha  occ. eigenvalues --   -0.42738  -0.42514  -0.42357  -0.42038  -0.41813
 Alpha  occ. eigenvalues --   -0.41573  -0.41479  -0.41235  -0.41087  -0.40873
 Alpha  occ. eigenvalues --   -0.40790  -0.40298  -0.40227  -0.40181  -0.39800
 Alpha  occ. eigenvalues --   -0.39409  -0.38945  -0.38649  -0.38423  -0.38062
 Alpha  occ. eigenvalues --   -0.37488  -0.37250  -0.37238  -0.37016  -0.36556
 Alpha  occ. eigenvalues --   -0.36010  -0.35579  -0.34284  -0.33900  -0.33576
 Alpha  occ. eigenvalues --   -0.33410  -0.33305  -0.32549  -0.32249  -0.32066
 Alpha  occ. eigenvalues --   -0.31152  -0.30593  -0.30462  -0.29943  -0.29026
 Alpha  occ. eigenvalues --   -0.28512  -0.27833  -0.27455  -0.26681  -0.21642
 Alpha  occ. eigenvalues --   -0.17480  -0.13496
 Alpha virt. eigenvalues --   -0.12727  -0.11143  -0.09976  -0.09500  -0.08577
 Alpha virt. eigenvalues --   -0.08504  -0.07655  -0.06283  -0.05618  -0.04558
 Alpha virt. eigenvalues --   -0.04018  -0.03606  -0.03015  -0.02798  -0.02729

 Mulliken charges:
               1
     1  N   -0.720272
     2  H    0.430824
     3  H    0.417348
     4  H    0.424179
     5  C   -0.144539
     6  H    0.220062
     7  C    0.644459
     8  C   -0.374614
     9  H    0.191870
    10  H    0.170246
    11  O   -0.537603
    12  C    0.132341
    13  C   -0.187216
    14  H    0.165433
    15  C   -0.190424
    16  H    0.123134
    17  C   -0.119446
    18  H    0.176591
    19  C   -0.127435
    20  H    0.157845
    21  C   -0.122177
    22  H    0.165937
    23  N   -0.571552
    24  H    0.358698
    25  C   -0.096830
    26  H    0.210431
    27  C    0.649417
    28  C   -0.484810
    29  H    0.271706
    30  H    0.143306
    31  H    0.139373
    32  O   -0.509712
    33  N   -0.613536
    34  H    0.358294
    35  C   -0.064302
    36  H    0.174399
    37  C    0.640901
    38  C   -0.461279
    39  H    0.165668
    40  H    0.162716
    41  H    0.139632
    42  O   -0.526011
    43  N   -0.595375
    44  H    0.336620
    45  C   -0.061370
    46  H    0.183934
    47  C    0.625717
    48  C   -0.361358
    49  H    0.140248
    50  H    0.126439
    51  O   -0.552456
    52  C    0.156214
    53  C   -0.175739
    54  H    0.084222
    55  C   -0.174100
    56  H    0.072645
    57  C   -0.240861
    58  H    0.109442
    59  C   -0.209137
    60  H    0.089089
    61  O   -0.631375
    62  C    0.412205
    63  N   -0.605485
    64  H    0.339988
    65  C   -0.065032
    66  H    0.178073
    67  C    0.634031
    68  C   -0.262396
    69  H    0.143619
    70  H    0.142075
    71  O   -0.546918
    72  C   -0.082855
    73  H    0.129013
    74  C   -0.470287
    75  H    0.141028
    76  H    0.134203
    77  H    0.178751
    78  C   -0.442392
    79  H    0.148754
    80  H    0.136630
    81  H    0.128485
    82  N   -0.591929
    83  H    0.350920
    84  C   -0.042907
    85  H    0.190430
    86  C    0.602364
    87  C   -0.271723
    88  H    0.185247
    89  H    0.161295
    90  O   -0.534452
    91  C   -0.397464
    92  H    0.209620
    93  H    0.197560
    94  C    0.588000
    95  O   -0.479961
    96  O   -0.565580
    97  N   -0.599724
    98  H    0.359806
    99  C   -0.026627
   100  H    0.207911
   101  C    0.590874
   102  C   -0.286774
   103  H    0.158244
   104  H    0.169752
   105  O   -0.493221
   106  C   -0.286608
   107  H    0.174914
   108  H    0.166405
   109  C   -0.182740
   110  H    0.169947
   111  H    0.195169
   112  N   -0.555444
   113  H    0.351149
   114  N   -0.716674
   115  H    0.372613
   116  H    0.374795
   117  N   -0.722496
   118  H    0.366282
   119  H    0.369121
   120  C    0.663064
   121  O   -0.541509
   122  H    0.421279
   123  H    0.421736
 Sum of Mulliken charges =   1.00000

 Dipole moment (field-independent basis, Debye):
    X=              7.5087    Y=             -2.3713    Z=              7.9819  Tot=             11.2122
 Quadrupole moment (field-independent basis, Debye-Ang):
   XX=           -125.0679   YY=           -269.7661   ZZ=            107.3436
   XY=           -127.9212   XZ=           -415.4610   YZ=            132.4007

 Normal termination of Gaussian 16 at Sun Aug  7 18:56:57 2022.
