 Gaussian 16, Revision C.01,
 Gaussian 16:  ES64L-G16RevC.01  3-Jul-2019

 ----------------------------------------------------------------------
 # B3LYP/6-31G* empiricaldispersion=gd3 guess=read geom=check nosymm in
 tegral(ultrafinegrid)
 ----------------------------------------------------------------------

 ------------------------------------------------------
 Candidate Structure: Conf:549 Charge calc in gas phase
 ------------------------------------------------------
 Structure from the checkpoint file:  "conf-549.chk"
 Charge =  1 Multiplicity = 1

                          Input orientation:
 ---------------------------------------------------------------------
 Center     Atomic      Atomic             Coordinates (Angstroms)
 Number     Number       Type             X           Y           Z
 ---------------------------------------------------------------------
      1          7           0       -9.242218    1.375832    2.658674
      2          1           0       -8.278587    0.510217    1.442393
      3          1           0       -9.870280    2.111125    2.332390
      4          1           0       -9.829184    0.626799    3.031825
      5          6           0       -8.410458    1.886801    3.765427
      6          1           0       -7.709648    2.614262    3.340315
      7          6           0       -7.661809    0.670295    4.324299
      8          6           0       -9.211650    2.571917    4.899340
      9          1           0       -8.503313    2.901131    5.670402
     10          1           0       -9.854919    1.812983    5.357630
     11          8           0       -8.279441   -0.233618    4.884407
     12          6           0      -10.017701    3.742999    4.389288
     13          6           0       -9.413713    4.993873    4.196352
     14          1           0       -8.369938    5.130263    4.472682
     15          6           0      -11.365113    3.589568    4.033828
     16          1           0      -11.852356    2.629668    4.191084
     17          6           0      -10.135574    6.062854    3.666371
     18          1           0       -9.653092    7.027216    3.531609
     19          6           0      -12.091419    4.657313    3.500734
     20          1           0      -13.136891    4.521081    3.237824
     21          6           0      -11.477756    5.896623    3.314873
     22          1           0      -12.041876    6.729527    2.904743
     23          7           0       -6.321834    0.669125    4.145309
     24          1           0       -5.861585    1.404548    3.622456
     25          6           0       -5.476200   -0.439840    4.545497
     26          1           0       -5.652556   -0.643374    5.610471
     27          6           0       -4.026101    0.032178    4.370420
     28          6           0       -5.769558   -1.723296    3.742400
     29          1           0       -5.235976   -2.586522    4.157411
     30          1           0       -5.484876   -1.595682    2.695358
     31          1           0       -6.838848   -1.932322    3.801257
     32          8           0       -3.749668    1.177168    3.995510
     33          7           0       -3.063611   -0.880630    4.645443
     34          1           0       -3.323233   -1.832303    4.865580
     35          6           0       -1.636041   -0.559345    4.573391
     36          1           0       -1.534575    0.475960    4.916861
     37          6           0       -1.137934   -0.627216    3.110990
     38          6           0       -0.838108   -1.499667    5.469653
     39          1           0        0.220678   -1.228708    5.451703
     40          1           0       -0.914288   -2.531556    5.113712
     41          1           0       -1.200910   -1.437594    6.499852
     42          8           0       -0.414527   -1.551615    2.719171
     43          7           0       -1.538569    0.394684    2.319655
     44          1           0       -2.241941    1.029137    2.699715
     45          6           0       -1.300637    0.399726    0.872676
     46          1           0       -1.404044   -0.634945    0.522065
     47          6           0        0.148401    0.847677    0.574528
     48          6           0       -2.302372    1.308793    0.147540
     49          1           0       -2.123939    2.341772    0.464495
     50          1           0       -2.040615    1.281361   -0.917963
     51          8           0        0.410650    1.944086    0.063840
     52          6           0       -3.752627    0.930643    0.355380
     53          6           0       -4.225927   -0.356241    0.053871
     54          1           0       -3.539012   -1.109158   -0.328354
     55          6           0       -4.680011    1.870230    0.816950
     56          1           0       -4.348160    2.880980    1.044034
     57          6           0       -5.560154   -0.700290    0.233393
     58          1           0       -5.920207   -1.700061    0.010908
     59          6           0       -6.027231    1.547789    0.984861
     60          1           0       -6.733613    2.305105    1.312649
     61          8           0       -7.747346   -0.161717    0.921101
     62          6           0       -6.481103    0.244191    0.723096
     63          7           0        1.095260   -0.062212    0.903413
     64          1           0        0.773596   -0.888337    1.414466
     65          6           0        2.526792    0.251782    0.907201
     66          1           0        2.621293    1.309666    1.181101
     67          6           0        3.080587    0.082037   -0.529046
     68          6           0        3.230101   -0.642729    1.931090
     69          1           0        2.701684   -0.533339    2.887671
     70          1           0        3.110842   -1.685178    1.612970
     71          8           0        3.824839   -0.840775   -0.866949
     72          6           0        4.728688   -0.361857    2.134281
     73          1           0        5.212142   -0.555236    1.172224
     74          6           0        5.005667    1.090461    2.551332
     75          1           0        4.472993    1.345043    3.475583
     76          1           0        6.074002    1.249899    2.752978
     77          1           0        4.693145    1.815104    1.789289
     78          6           0        5.308847   -1.338997    3.165912
     79          1           0        4.848939   -1.193194    4.150946
     80          1           0        5.138279   -2.379576    2.868120
     81          1           0        6.390453   -1.194372    3.287661
     82          7           0        2.635497    1.030588   -1.388502
     83          1           0        1.930052    1.673173   -1.019342
     84          6           0        2.693422    0.838213   -2.826163
     85          1           0        2.355270   -0.177068   -3.062364
     86          6           0        4.129759    0.980924   -3.358908
     87          6           0        1.737326    1.869491   -3.469571
     88          1           0        0.760497    1.755471   -2.984490
     89          1           0        2.097794    2.875346   -3.224927
     90          8           0        4.983152    1.683212   -2.797279
     91          6           0        1.563002    1.783361   -5.000055
     92          1           0        2.509770    1.987355   -5.506451
     93          1           0        0.835568    2.535674   -5.313220
     94          6           0        1.103228    0.417517   -5.456847
     95          8           0        1.796506   -0.589656   -5.447638
     96          8           0       -0.174348    0.400798   -5.861918
     97          7           0        4.380802    0.295304   -4.492876
     98          1           0        3.603029   -0.209710   -4.924848
     99          6           0        5.622414    0.455858   -5.241082
    100          1           0        6.035916    1.430318   -4.947714
    101          6           0        5.350499    0.558010   -6.746423
    102          6           0        6.682136   -0.626115   -4.965663
    103          1           0        7.446807   -0.520294   -5.739477
    104          1           0        6.233041   -1.617272   -5.110761
    105          8           0        6.126617    0.215027   -7.604871
    106          6           0        7.353745   -0.526415   -3.585418
    107          1           0        7.514652    0.527323   -3.328532
    108          1           0        8.347494   -0.987899   -3.646162
    109          6           0        6.584396   -1.216095   -2.451151
    110          1           0        6.484685   -2.287043   -2.650550
    111          1           0        5.573105   -0.841290   -2.302153
    112          7           0        7.297245   -1.101289   -1.166956
    113          1           0        8.049885   -1.757862   -1.004004
    114          7           0        6.555249    1.045719   -0.618427
    115          1           0        6.347856    1.694181    0.128237
    116          1           0        6.004391    1.178095   -1.481224
    117          7           0        7.990381   -0.107876    0.798073
    118          1           0        7.939980    0.662520    1.449651
    119          1           0        8.161665   -1.010180    1.220714
    120          6           0        7.251784   -0.051200   -0.342389
    121          8           0        4.152195    1.128479   -7.019204
    122          1           0       -0.389050   -0.515145   -6.127200
    123          1           0        4.085045    1.179951   -7.992259
 ---------------------------------------------------------------------

 SCF Done:  E(RB3LYP) =  -2974.26317950     A.U. after    2 cycles

 Alpha  occ. eigenvalues --  -19.29263 -19.29143 -19.23988 -19.23166 -19.22093
 Alpha  occ. eigenvalues --  -19.20866 -19.20460 -19.20211 -19.20113 -19.19388
 Alpha  occ. eigenvalues --  -19.16606 -14.50323 -14.50285 -14.48856 -14.45700
 Alpha  occ. eigenvalues --  -14.44572 -14.43834 -14.43766 -14.43497 -14.41415
 Alpha  occ. eigenvalues --  -14.39618 -10.46278 -10.41979 -10.41411 -10.38907
 Alpha  occ. eigenvalues --  -10.37304 -10.36976 -10.36928 -10.36644 -10.33814
 Alpha  occ. eigenvalues --  -10.33565 -10.32967 -10.32759 -10.31892 -10.31494
 Alpha  occ. eigenvalues --  -10.31030 -10.30207 -10.29620 -10.29240 -10.29124
 Alpha  occ. eigenvalues --  -10.28844 -10.28514 -10.28254 -10.28141 -10.27593
 Alpha  occ. eigenvalues --  -10.27172 -10.26383 -10.25710 -10.25689 -10.24539
 Alpha  occ. eigenvalues --  -10.24240 -10.24208 -10.24159 -10.24148 -10.23713
 Alpha  occ. eigenvalues --  -10.23709 -10.23691 -10.23649 -10.23637 -10.23478
 Alpha  occ. eigenvalues --  -10.23323 -10.23042  -1.20337  -1.19909  -1.14863
 Alpha  occ. eigenvalues --   -1.13826  -1.12588  -1.12253  -1.11752  -1.11167
 Alpha  occ. eigenvalues --   -1.11154  -1.10897  -1.08657  -1.08098  -1.04276
 Alpha  occ. eigenvalues --   -1.02856  -1.02370  -1.01402  -1.00944  -1.00626
 Alpha  occ. eigenvalues --   -0.99747  -0.98131  -0.96042  -0.90686  -0.90298
 Alpha  occ. eigenvalues --   -0.90205  -0.90111  -0.89407  -0.86631  -0.85856
 Alpha  occ. eigenvalues --   -0.84899  -0.83695  -0.83002  -0.81892  -0.81862
 Alpha  occ. eigenvalues --   -0.79847  -0.79562  -0.79050  -0.78537  -0.77966
 Alpha  occ. eigenvalues --   -0.76993  -0.76127  -0.75114  -0.73692  -0.73520
 Alpha  occ. eigenvalues --   -0.72471  -0.72086  -0.72029  -0.71249  -0.70042
 Alpha  occ. eigenvalues --   -0.69602  -0.68611  -0.68426  -0.67913  -0.67149
 Alpha  occ. eigenvalues --   -0.66746  -0.66482  -0.65768  -0.65381  -0.65181
 Alpha  occ. eigenvalues --   -0.64300  -0.63797  -0.63536  -0.63523  -0.62807
 Alpha  occ. eigenvalues --   -0.62723  -0.62468  -0.60968  -0.60790  -0.60407
 Alpha  occ. eigenvalues --   -0.59397  -0.59278  -0.58757  -0.58289  -0.58196
 Alpha  occ. eigenvalues --   -0.57872  -0.57726  -0.57540  -0.57228  -0.56472
 Alpha  occ. eigenvalues --   -0.56351  -0.56082  -0.55987  -0.55715  -0.55524
 Alpha  occ. eigenvalues --   -0.54970  -0.54885  -0.54457  -0.54107  -0.53170
 Alpha  occ. eigenvalues --   -0.52798  -0.52592  -0.52185  -0.51971  -0.51671
 Alpha  occ. eigenvalues --   -0.51574  -0.51161  -0.51119  -0.51091  -0.50737
 Alpha  occ. eigenvalues --   -0.50146  -0.49907  -0.49849  -0.49659  -0.49361
 Alpha  occ. eigenvalues --   -0.49302  -0.48938  -0.48864  -0.48472  -0.48218
 Alpha  occ. eigenvalues --   -0.47960  -0.47812  -0.47763  -0.47635  -0.47178
 Alpha  occ. eigenvalues --   -0.47121  -0.46815  -0.46667  -0.46589  -0.46323
 Alpha  occ. eigenvalues --   -0.46171  -0.46114  -0.45927  -0.45732  -0.45724
 Alpha  occ. eigenvalues --   -0.45142  -0.44929  -0.44872  -0.44619  -0.44499
 Alpha  occ. eigenvalues --   -0.44285  -0.44206  -0.44026  -0.43759  -0.43509
 Alpha  occ. eigenvalues --   -0.43321  -0.42655  -0.42329  -0.41796  -0.41646
 Alpha  occ. eigenvalues --   -0.41576  -0.41447  -0.41229  -0.41089  -0.41061
 Alpha  occ. eigenvalues --   -0.40920  -0.40240  -0.40040  -0.38711  -0.38544
 Alpha  occ. eigenvalues --   -0.38504  -0.37903  -0.37741  -0.37484  -0.36932
 Alpha  occ. eigenvalues --   -0.36321  -0.36168  -0.36091  -0.35509  -0.35011
 Alpha  occ. eigenvalues --   -0.34338  -0.33967  -0.32995  -0.32508  -0.32295
 Alpha  occ. eigenvalues --   -0.32126  -0.31014  -0.30489  -0.29995  -0.29699
 Alpha  occ. eigenvalues --   -0.28802  -0.25796
 Alpha virt. eigenvalues --   -0.10870  -0.09167  -0.08712  -0.08362  -0.07760
 Alpha virt. eigenvalues --   -0.07356  -0.06941  -0.06143  -0.05410  -0.05302
 Alpha virt. eigenvalues --   -0.04996  -0.04880  -0.03701  -0.03678  -0.02902

 Mulliken charges:
               1
     1  N   -0.775340
     2  H    0.466446
     3  H    0.334642
     4  H    0.339571
     5  C   -0.059387
     6  H    0.140769
     7  C    0.642402
     8  C   -0.362874
     9  H    0.156519
    10  H    0.176156
    11  O   -0.541665
    12  C    0.158641
    13  C   -0.179815
    14  H    0.125225
    15  C   -0.201688
    16  H    0.132418
    17  C   -0.127033
    18  H    0.137842
    19  C   -0.126279
    20  H    0.141519
    21  C   -0.129478
    22  H    0.140615
    23  N   -0.622496
    24  H    0.363731
    25  C   -0.029620
    26  H    0.188927
    27  C    0.631852
    28  C   -0.475515
    29  H    0.130657
    30  H    0.181297
    31  H    0.212265
    32  O   -0.552898
    33  N   -0.604490
    34  H    0.346335
    35  C   -0.054533
    36  H    0.186793
    37  C    0.628284
    38  C   -0.464765
    39  H    0.166352
    40  H    0.175055
    41  H    0.165141
    42  O   -0.553472
    43  N   -0.613891
    44  H    0.390047
    45  C   -0.057813
    46  H    0.177943
    47  C    0.634809
    48  C   -0.384085
    49  H    0.172502
    50  H    0.160532
    51  O   -0.556030
    52  C    0.162674
    53  C   -0.189020
    54  H    0.118771
    55  C   -0.185813
    56  H    0.127984
    57  C   -0.181647
    58  H    0.142522
    59  C   -0.235276
    60  H    0.136825
    61  O   -0.688337
    62  C    0.377162
    63  N   -0.634005
    64  H    0.393124
    65  C   -0.064102
    66  H    0.173823
    67  C    0.626813
    68  C   -0.279175
    69  H    0.150752
    70  H    0.166212
    71  O   -0.547529
    72  C   -0.097676
    73  H    0.145434
    74  C   -0.472357
    75  H    0.171439
    76  H    0.116869
    77  H    0.145458
    78  C   -0.446453
    79  H    0.160035
    80  H    0.159773
    81  H    0.115514
    82  N   -0.632195
    83  H    0.392748
    84  C   -0.040552
    85  H    0.187078
    86  C    0.631431
    87  C   -0.323935
    88  H    0.186201
    89  H    0.185635
    90  O   -0.585502
    91  C   -0.381688
    92  H    0.212296
    93  H    0.193809
    94  C    0.601603
    95  O   -0.483607
    96  O   -0.539090
    97  N   -0.617874
    98  H    0.398666
    99  C   -0.055616
   100  H    0.210238
   101  C    0.587019
   102  C   -0.268573
   103  H    0.195153
   104  H    0.156788
   105  O   -0.438579
   106  C   -0.276427
   107  H    0.161110
   108  H    0.151109
   109  C   -0.201419
   110  H    0.180521
   111  H    0.236868
   112  N   -0.586406
   113  H    0.357644
   114  N   -0.787478
   115  H    0.366190
   116  H    0.463934
   117  N   -0.756675
   118  H    0.372744
   119  H    0.372482
   120  C    0.787908
   121  O   -0.568201
   122  H    0.424615
   123  H    0.428110
 Sum of Mulliken charges =   1.00000

 Dipole moment (field-independent basis, Debye):
    X=             16.7785    Y=              2.1151    Z=             -0.7468  Tot=             16.9278
 Quadrupole moment (field-independent basis, Debye-Ang):
   XX=           -152.9842   YY=           -339.5860   ZZ=           -285.1062
   XY=            -36.8449   XZ=            -16.1294   YZ=             -2.6690

 Normal termination of Gaussian 16 at Sun Aug  7 18:56:57 2022.
