 Gaussian 16, Revision C.01,
 Gaussian 16:  ES64L-G16RevC.01  3-Jul-2019

 ----------------------------------------------------------------------
 # B3LYP/6-31G* empiricaldispersion=gd3 guess=read geom=check nosymm in
 tegral(ultrafinegrid)
 ----------------------------------------------------------------------

 ------------------------------------------------------
 Candidate Structure: Conf:578 Charge calc in gas phase
 ------------------------------------------------------
 Structure from the checkpoint file:  "conf-578.chk"
 Charge =  1 Multiplicity = 1

                          Input orientation:
 ---------------------------------------------------------------------
 Center     Atomic      Atomic             Coordinates (Angstroms)
 Number     Number       Type             X           Y           Z
 ---------------------------------------------------------------------
      1          7           0       -1.334367   -1.030309   -3.630918
      2          1           0       -2.126413   -0.396652   -3.720924
      3          1           0       -1.357696   -1.663610   -4.426766
      4          6           0       -0.068350   -0.298442   -3.580046
      5          1           0        0.723900   -1.060908   -3.560747
      6          6           0        0.060194    0.425182   -2.227585
      7          6           0        0.263103    0.647002   -4.750134
      8          1           0        0.255353    0.066531   -5.680672
      9          1           0        1.279921    1.025593   -4.606462
     10          8           0        0.635020    1.515722   -2.119276
     11          6           0       -0.693018    1.851467   -4.880735
     12          1           0       -1.702668    1.529978   -5.149475
     13          1           0       -0.717358    2.389334   -3.929961
     14          6           0       -0.165059    2.795632   -5.926253
     15          8           0        0.801940    3.532706   -5.781092
     16          8           0       -0.829266    2.724183   -7.086340
     17          7           0       -0.442628   -0.242402   -1.172009
     18          1           0       -0.886495   -1.134612   -1.359082
     19          6           0       -0.160337    0.167537    0.200052
     20          1           0       -0.722896    1.083692    0.414284
     21          6           0        1.353951    0.439647    0.322655
     22          6           0       -0.573738   -0.954844    1.163578
     23          1           0       -0.024804   -1.857172    0.865769
     24          1           0       -1.645175   -1.155617    1.020812
     25          8           0        2.181732   -0.394190   -0.027870
     26          6           0       -0.304859   -0.671733    2.654132
     27          1           0        0.776250   -0.514401    2.777906
     28          6           0       -1.032945    0.581908    3.162116
     29          1           0       -2.111807    0.512994    2.971812
     30          1           0       -0.892667    0.697035    4.242232
     31          1           0       -0.662455    1.500777    2.694240
     32          6           0       -0.698873   -1.901385    3.485233
     33          1           0       -1.776092   -2.096832    3.407358
     34          1           0       -0.168564   -2.799379    3.148109
     35          1           0       -0.464353   -1.748872    4.544273
     36          7           0        1.677053    1.647952    0.850425
     37          1           0        0.947512    2.309555    1.079984
     38          6           0        3.033730    2.143752    0.949059
     39          1           0        3.706433    1.290107    1.069995
     40          6           0        3.115130    3.039615    2.178994
     41          6           0        3.436037    2.964329   -0.306664
     42          1           0        4.327934    3.558184   -0.073295
     43          1           0        2.620305    3.673671   -0.498661
     44          8           0        2.158418    3.546152    2.721487
     45          6           0        3.678052    2.086851   -1.551587
     46          1           0        4.727343    1.762638   -1.585202
     47          1           0        3.079251    1.177183   -1.497676
     48          6           0        3.290645    2.775617   -2.858451
     49          1           0        2.225829    3.011505   -2.832362
     50          1           0        3.467194    2.113047   -3.714098
     51          7           0        4.048607    4.026234   -3.052975
     52          1           0        5.026437    4.011283   -2.790835
     53          7           0        2.410103    5.192164   -4.224022
     54          1           0        1.995830    6.083958   -4.455156
     55          1           0        1.927309    4.367957   -4.598198
     56          7           0        4.305506    6.288955   -3.470106
     57          1           0        4.135302    7.083340   -4.068992
     58          1           0        5.059449    6.363317   -2.803226
     59          6           0        3.581988    5.153912   -3.590065
     60          8           0        4.393177    3.248255    2.553655
     61          1           0        4.373724    3.845879    3.325944
     62          1           0       -0.400444    3.332945   -7.718935
 ---------------------------------------------------------------------

 SCF Done:  E(RB3LYP) =  -1447.50486410     A.U. after    1 cycles

 Alpha  occ. eigenvalues --  -19.30768 -19.28863 -19.25698 -19.23275 -19.20823
 Alpha  occ. eigenvalues --  -19.19200 -14.52011 -14.51780 -14.50620 -14.44446
 Alpha  occ. eigenvalues --  -14.44328 -14.41935 -10.47989 -10.43646 -10.41220
 Alpha  occ. eigenvalues --  -10.37498 -10.36671 -10.34104 -10.33035 -10.32126
 Alpha  occ. eigenvalues --  -10.31497 -10.29844 -10.29365 -10.29174 -10.28745
 Alpha  occ. eigenvalues --  -10.26308 -10.25896 -10.23930 -10.23361  -1.21916
 Alpha  occ. eigenvalues --   -1.19771  -1.16347  -1.12794  -1.12661  -1.11265
 Alpha  occ. eigenvalues --   -1.10774  -1.05687  -1.04251  -1.01399  -1.01214
 Alpha  occ. eigenvalues --   -0.98557  -0.90559  -0.89354  -0.88520  -0.86048
 Alpha  occ. eigenvalues --   -0.82894  -0.80819  -0.80037  -0.77659  -0.74817
 Alpha  occ. eigenvalues --   -0.74331  -0.73832  -0.73111  -0.72167  -0.70689
 Alpha  occ. eigenvalues --   -0.69347  -0.68459  -0.67216  -0.66415  -0.65808
 Alpha  occ. eigenvalues --   -0.64566  -0.62691  -0.61756  -0.61377  -0.60309
 Alpha  occ. eigenvalues --   -0.59836  -0.59015  -0.58711  -0.57999  -0.57474
 Alpha  occ. eigenvalues --   -0.57203  -0.56390  -0.55909  -0.55537  -0.54843
 Alpha  occ. eigenvalues --   -0.54362  -0.53791  -0.52933  -0.52242  -0.51956
 Alpha  occ. eigenvalues --   -0.51283  -0.50397  -0.49617  -0.49351  -0.49094
 Alpha  occ. eigenvalues --   -0.48347  -0.48073  -0.47707  -0.47401  -0.46350
 Alpha  occ. eigenvalues --   -0.45567  -0.45409  -0.45127  -0.44703  -0.44477
 Alpha  occ. eigenvalues --   -0.43823  -0.43669  -0.42987  -0.42714  -0.42596
 Alpha  occ. eigenvalues --   -0.40915  -0.40290  -0.39764  -0.39427  -0.39407
 Alpha  occ. eigenvalues --   -0.39149  -0.36888  -0.35590  -0.35034  -0.33885
 Alpha  occ. eigenvalues --   -0.33328  -0.32417
 Alpha virt. eigenvalues --   -0.11975  -0.10536  -0.08432  -0.08156  -0.07697
 Alpha virt. eigenvalues --   -0.05468  -0.04195  -0.03542  -0.02709  -0.01347
 Alpha virt. eigenvalues --   -0.01113  -0.00574  -0.00056   0.00096   0.01942

 Mulliken charges:
               1
     1  N   -0.733427
     2  H    0.316234
     3  H    0.324339
     4  C   -0.088792
     5  H    0.190030
     6  C    0.637646
     7  C   -0.276502
     8  H    0.156212
     9  H    0.160780
    10  O   -0.574275
    11  C   -0.344084
    12  H    0.171898
    13  H    0.199056
    14  C    0.580631
    15  O   -0.507077
    16  O   -0.528339
    17  N   -0.603215
    18  H    0.363946
    19  C   -0.001436
    20  H    0.152014
    21  C    0.646435
    22  C   -0.302505
    23  H    0.167011
    24  H    0.146426
    25  O   -0.547142
    26  C   -0.086296
    27  H    0.143275
    28  C   -0.449867
    29  H    0.146152
    30  H    0.160721
    31  H    0.133373
    32  C   -0.445725
    33  H    0.146590
    34  H    0.151372
    35  H    0.154686
    36  N   -0.591220
    37  H    0.349421
    38  C   -0.051186
    39  H    0.209430
    40  C    0.580971
    41  C   -0.263586
    42  H    0.148172
    43  H    0.149554
    44  O   -0.456100
    45  C   -0.309943
    46  H    0.148762
    47  H    0.227612
    48  C   -0.175018
    49  H    0.219283
    50  H    0.181858
    51  N   -0.598220
    52  H    0.356825
    53  N   -0.780382
    54  H    0.368536
    55  H    0.435063
    56  N   -0.768111
    57  H    0.379248
    58  H    0.377623
    59  C    0.815600
    60  O   -0.563314
    61  H    0.425140
    62  H    0.423837
 Sum of Mulliken charges =   1.00000

 Dipole moment (field-independent basis, Debye):
    X=             11.1794    Y=             19.1204    Z=            -16.1755  Tot=             27.4265
 Quadrupole moment (field-independent basis, Debye-Ang):
   XX=           -104.0449   YY=            -54.8170   ZZ=            -74.4196
   XY=             79.5494   XZ=            -26.4905   YZ=            -68.7109

 Normal termination of Gaussian 16 at Wed Jun  1 02:02:58 2022.
