 Gaussian 16, Revision C.01,
 Gaussian 16:  ES64L-G16RevC.01  3-Jul-2019

 ----------------------------------------------------------------------
 # B3LYP/6-31G* empiricaldispersion=gd3 guess=read geom=check nosymm in
 tegral(ultrafinegrid)
 ----------------------------------------------------------------------

 ------------------------------------------------------
 Candidate Structure: Conf:879 Charge calc in gas phase
 ------------------------------------------------------
 Structure from the checkpoint file:  "conf-879.chk"
 Charge =  1 Multiplicity = 1

                          Input orientation:
 ---------------------------------------------------------------------
 Center     Atomic      Atomic             Coordinates (Angstroms)
 Number     Number       Type             X           Y           Z
 ---------------------------------------------------------------------
      1          7           0       -0.345610   -1.632100   -3.315709
      2          1           0       -0.555629   -1.970325   -4.254133
      3          1           0        0.668585   -1.705056   -3.231806
      4          6           0       -0.731444   -0.217887   -3.241660
      5          1           0       -0.214746    0.416447   -3.976792
      6          6           0       -0.390056    0.361289   -1.867005
      7          6           0       -2.255558   -0.043096   -3.433692
      8          1           0       -2.469628    1.030892   -3.433857
      9          1           0       -2.772736   -0.480927   -2.572223
     10          8           0       -0.252748    1.579775   -1.692076
     11          6           0       -2.842093   -0.699269   -4.704181
     12          1           0       -2.791756   -1.788707   -4.611377
     13          1           0       -3.892790   -0.416431   -4.804150
     14          6           0       -2.079024   -0.322574   -5.952926
     15          8           0       -0.977891   -0.754271   -6.239750
     16          8           0       -2.730722    0.579239   -6.714297
     17          7           0       -0.294975   -0.545950   -0.871749
     18          1           0       -0.422516   -1.521551   -1.124065
     19          6           0       -0.076580   -0.157862    0.517138
     20          1           0       -0.830361    0.593736    0.776665
     21          6           0        1.325203    0.465694    0.663327
     22          6           0       -0.215250   -1.380738    1.431105
     23          1           0        0.483852   -2.147958    1.076097
     24          1           0       -1.233761   -1.775111    1.310140
     25          8           0        2.348229   -0.207765    0.668223
     26          6           0        0.059539   -1.113100    2.924083
     27          1           0        1.121901   -0.851593    3.020905
     28          6           0       -0.773390    0.050734    3.483402
     29          1           0       -1.844717   -0.106757    3.301695
     30          1           0       -0.631066    0.137523    4.566263
     31          1           0       -0.484815    1.011307    3.041912
     32          6           0       -0.185430   -2.399045    3.725904
     33          1           0       -1.242228   -2.692434    3.682044
     34          1           0        0.411364   -3.232875    3.338184
     35          1           0        0.077454   -2.258735    4.780097
     36          7           0        1.318691    1.826683    0.821550
     37          1           0        0.498562    2.308030    0.470354
     38          6           0        2.558908    2.563562    0.913046
     39          1           0        3.308603    1.826142    1.227444
     40          6           0        2.506844    3.640872    1.997744
     41          6           0        3.004404    3.196270   -0.415549
     42          1           0        3.978999    3.661638   -0.228805
     43          1           0        2.296955    4.002534   -0.665810
     44          8           0        3.003391    4.741817    1.875733
     45          6           0        3.076803    2.203456   -1.576239
     46          1           0        3.700695    1.342943   -1.306234
     47          1           0        2.073244    1.817993   -1.784106
     48          6           0        3.583956    2.845222   -2.868677
     49          1           0        2.961284    3.695575   -3.163909
     50          1           0        3.553991    2.128944   -3.694934
     51          7           0        4.984004    3.322709   -2.789753
     52          1           0        5.703779    2.612585   -2.848724
     53          7           0        4.555032    5.535499   -2.194161
     54          1           0        4.825537    6.508261   -2.231726
     55          1           0        3.724680    5.306761   -1.663922
     56          7           0        6.682534    4.896268   -2.844572
     57          1           0        7.096943    5.732734   -2.458035
     58          1           0        7.279102    4.296065   -3.396565
     59          6           0        5.398687    4.575068   -2.599139
     60          8           0        1.876991    3.221185    3.107487
     61          1           0        1.917356    3.951502    3.754519
     62          1           0       -2.163655    0.762812   -7.487980
 ---------------------------------------------------------------------

 SCF Done:  E(RB3LYP) =  -1447.48471244     A.U. after    3 cycles

 Alpha  occ. eigenvalues --  -19.28858 -19.27202 -19.23473 -19.21495 -19.20144
 Alpha  occ. eigenvalues --  -19.19791 -14.54177 -14.54168 -14.53830 -14.44657
 Alpha  occ. eigenvalues --  -14.44000 -14.39837 -10.50495 -10.41531 -10.39657
 Alpha  occ. eigenvalues --  -10.36941 -10.36870 -10.36498 -10.33571 -10.31154
 Alpha  occ. eigenvalues --  -10.30517 -10.30136 -10.30077 -10.27556 -10.27462
 Alpha  occ. eigenvalues --  -10.25782 -10.25270 -10.23388 -10.22974  -1.19924
 Alpha  occ. eigenvalues --   -1.18768  -1.18035  -1.12298  -1.11149  -1.10973
 Alpha  occ. eigenvalues --   -1.08938  -1.07967  -1.06909  -1.01735  -1.00809
 Alpha  occ. eigenvalues --   -0.96828  -0.92214  -0.88222  -0.86982  -0.86794
 Alpha  occ. eigenvalues --   -0.82863  -0.81677  -0.79564  -0.78802  -0.76309
 Alpha  occ. eigenvalues --   -0.74350  -0.73988  -0.72924  -0.71763  -0.71623
 Alpha  occ. eigenvalues --   -0.68909  -0.67933  -0.67726  -0.67209  -0.66101
 Alpha  occ. eigenvalues --   -0.65294  -0.62588  -0.61884  -0.61483  -0.60200
 Alpha  occ. eigenvalues --   -0.59605  -0.58404  -0.57801  -0.57509  -0.57322
 Alpha  occ. eigenvalues --   -0.56443  -0.56429  -0.55644  -0.55379  -0.54342
 Alpha  occ. eigenvalues --   -0.53168  -0.52949  -0.52394  -0.51474  -0.50808
 Alpha  occ. eigenvalues --   -0.50137  -0.49348  -0.49217  -0.48918  -0.48681
 Alpha  occ. eigenvalues --   -0.48248  -0.48123  -0.47192  -0.46674  -0.46101
 Alpha  occ. eigenvalues --   -0.45537  -0.45380  -0.44926  -0.44676  -0.43948
 Alpha  occ. eigenvalues --   -0.43792  -0.43238  -0.42602  -0.42493  -0.42180
 Alpha  occ. eigenvalues --   -0.41084  -0.39245  -0.39122  -0.38900  -0.38582
 Alpha  occ. eigenvalues --   -0.37729  -0.35532  -0.34991  -0.34694  -0.33313
 Alpha  occ. eigenvalues --   -0.32648  -0.32163
 Alpha virt. eigenvalues --   -0.14690  -0.10067  -0.08790  -0.07195  -0.06705
 Alpha virt. eigenvalues --   -0.06018  -0.05728  -0.05415  -0.04595  -0.01301
 Alpha virt. eigenvalues --   -0.01092  -0.00057   0.00780   0.01040   0.01581

 Mulliken charges:
               1
     1  N   -0.762002
     2  H    0.338884
     3  H    0.307659
     4  C   -0.043884
     5  H    0.144061
     6  C    0.596713
     7  C   -0.272711
     8  H    0.174828
     9  H    0.163451
    10  O   -0.576367
    11  C   -0.359003
    12  H    0.188720
    13  H    0.187661
    14  C    0.580225
    15  O   -0.471875
    16  O   -0.549536
    17  N   -0.601401
    18  H    0.365226
    19  C   -0.023072
    20  H    0.163434
    21  C    0.631320
    22  C   -0.295512
    23  H    0.161724
    24  H    0.146426
    25  O   -0.531336
    26  C   -0.085450
    27  H    0.149960
    28  C   -0.457625
    29  H    0.143149
    30  H    0.153432
    31  H    0.145397
    32  C   -0.446545
    33  H    0.145296
    34  H    0.148866
    35  H    0.152007
    36  N   -0.583572
    37  H    0.352625
    38  C   -0.067126
    39  H    0.217063
    40  C    0.596160
    41  C   -0.294025
    42  H    0.147633
    43  H    0.146566
    44  O   -0.476261
    45  C   -0.287800
    46  H    0.172741
    47  H    0.215105
    48  C   -0.188671
    49  H    0.189550
    50  H    0.199602
    51  N   -0.580643
    52  H    0.368241
    53  N   -0.749458
    54  H    0.385282
    55  H    0.403309
    56  N   -0.759490
    57  H    0.387454
    58  H    0.386350
    59  C    0.811116
    60  O   -0.544329
    61  H    0.425405
    62  H    0.415049
 Sum of Mulliken charges =   1.00000

 Dipole moment (field-independent basis, Debye):
    X=             18.9260    Y=             17.6065    Z=            -11.6835  Tot=             28.3670
 Quadrupole moment (field-independent basis, Debye-Ang):
   XX=            -33.8582   YY=            -78.1153   ZZ=           -111.4658
   XY=            104.2791   XZ=            -53.9211   YZ=            -42.0488

 Normal termination of Gaussian 16 at Wed Jun  1 02:03:20 2022.
