 Gaussian 16, Revision C.01,
 Gaussian 16:  ES64L-G16RevC.01  3-Jul-2019

 ----------------------------------------------------------------------
 # B3LYP/6-31G* empiricaldispersion=gd3 guess=read geom=check nosymm in
 tegral(ultrafinegrid)
 ----------------------------------------------------------------------

 ------------------------------------------------------
 Candidate Structure: Conf:746 Charge calc in gas phase
 ------------------------------------------------------
 Structure from the checkpoint file:  "conf-746.chk"
 Charge =  1 Multiplicity = 1

                          Input orientation:
 ---------------------------------------------------------------------
 Center     Atomic      Atomic             Coordinates (Angstroms)
 Number     Number       Type             X           Y           Z
 ---------------------------------------------------------------------
      1          7           0       -2.143838    0.098470   -4.332821
      2          1           0       -1.784118    1.044745   -4.427553
      3          1           0       -2.475513   -0.229609   -5.235830
      4          6           0       -1.134435   -0.779306   -3.774300
      5          1           0       -1.632715   -1.684283   -3.398952
      6          6           0       -0.477596   -0.041150   -2.604200
      7          6           0       -0.029769   -1.267988   -4.757306
      8          1           0       -0.526785   -1.819469   -5.564694
      9          1           0        0.625765   -1.983937   -4.242297
     10          8           0       -0.213411    1.160646   -2.678619
     11          6           0        0.806075   -0.124555   -5.372461
     12          1           0        0.138714    0.622633   -5.807659
     13          1           0        1.418021    0.363512   -4.608387
     14          6           0        1.658805   -0.671050   -6.485339
     15          8           0        1.373572   -0.749562   -7.648523
     16          8           0        2.863326   -1.191212   -6.011299
     17          7           0       -0.128609   -0.793485   -1.525516
     18          1           0       -0.485975   -1.736795   -1.445472
     19          6           0        0.398200   -0.163113   -0.310821
     20          1           0       -0.214100    0.721058   -0.106145
     21          6           0        1.848651    0.285547   -0.565860
     22          6           0        0.322484   -1.134993    0.870754
     23          1           0        0.860387   -2.052194    0.599570
     24          1           0       -0.734575   -1.397621    1.015893
     25          8           0        2.790456   -0.518596   -0.492121
     26          6           0        0.899135   -0.592387    2.194550
     27          1           0        1.982048   -0.471462    2.056143
     28          6           0        0.307712    0.771348    2.584780
     29          1           0       -0.788358    0.729871    2.625571
     30          1           0        0.663433    1.071663    3.576064
     31          1           0        0.595537    1.565242    1.885457
     32          6           0        0.677573   -1.626319    3.307475
     33          1           0       -0.392846   -1.766216    3.504231
     34          1           0        1.101305   -2.601630    3.040689
     35          1           0        1.147295   -1.300099    4.241370
     36          7           0        1.986616    1.598361   -0.845638
     37          1           0        1.136946    2.094531   -1.090926
     38          6           0        3.256582    2.215765   -1.170233
     39          1           0        4.017992    1.617123   -0.658527
     40          6           0        3.385924    3.628331   -0.600848
     41          6           0        3.556998    2.218079   -2.689847
     42          1           0        3.014693    3.039950   -3.167556
     43          1           0        3.120756    1.297635   -3.085927
     44          8           0        4.205497    4.419204   -1.008309
     45          6           0        5.066334    2.300922   -3.011168
     46          1           0        5.338367    3.317319   -3.306652
     47          1           0        5.643672    2.126387   -2.097265
     48          6           0        5.556341    1.353777   -4.133993
     49          1           0        6.647967    1.266993   -4.095140
     50          1           0        5.312815    1.778337   -5.111170
     51          7           0        4.948107    0.003659   -4.156366
     52          1           0        4.447622   -0.244090   -5.003757
     53          7           0        5.201474   -0.549908   -1.891047
     54          1           0        4.607580   -0.654300   -1.064416
     55          1           0        5.989538    0.075225   -1.822971
     56          7           0        3.611514   -1.614528   -3.175318
     57          1           0        3.284248   -2.079013   -2.338731
     58          1           0        3.065814   -1.678272   -4.027316
     59          6           0        4.591416   -0.705712   -3.075882
     60          8           0        2.517337    3.877674    0.395526
     61          1           0        2.687935    4.788629    0.706001
     62          1           0        3.281283   -1.639404   -6.773825
 ---------------------------------------------------------------------

 SCF Done:  E(RB3LYP) =  -1447.49996254     A.U. after    1 cycles

 Alpha  occ. eigenvalues --  -19.33452 -19.30863 -19.26620 -19.25020 -19.24873
 Alpha  occ. eigenvalues --  -19.23600 -14.51417 -14.50860 -14.50291 -14.48446
 Alpha  occ. eigenvalues --  -14.48247 -14.41242 -10.47459 -10.44601 -10.43404
 Alpha  occ. eigenvalues --  -10.41343 -10.40319 -10.36471 -10.36275 -10.34645
 Alpha  occ. eigenvalues --  -10.33743 -10.32015 -10.31669 -10.31668 -10.31558
 Alpha  occ. eigenvalues --  -10.28950 -10.27972 -10.25714 -10.25273  -1.23027
 Alpha  occ. eigenvalues --   -1.21757  -1.16529  -1.16000  -1.15197  -1.14396
 Alpha  occ. eigenvalues --   -1.12824  -1.05666  -1.05230  -1.04258  -1.04014
 Alpha  occ. eigenvalues --   -0.99294  -0.92781  -0.91255  -0.90861  -0.88099
 Alpha  occ. eigenvalues --   -0.85308  -0.82447  -0.81734  -0.77995  -0.76862
 Alpha  occ. eigenvalues --   -0.76093  -0.75286  -0.74664  -0.72812  -0.72139
 Alpha  occ. eigenvalues --   -0.71614  -0.70156  -0.69552  -0.68951  -0.66157
 Alpha  occ. eigenvalues --   -0.65056  -0.64707  -0.64268  -0.63493  -0.61796
 Alpha  occ. eigenvalues --   -0.61568  -0.61267  -0.60526  -0.60204  -0.59568
 Alpha  occ. eigenvalues --   -0.59143  -0.58425  -0.57572  -0.57338  -0.56895
 Alpha  occ. eigenvalues --   -0.55778  -0.55448  -0.55073  -0.54540  -0.53877
 Alpha  occ. eigenvalues --   -0.53536  -0.53070  -0.52150  -0.51641  -0.51560
 Alpha  occ. eigenvalues --   -0.50956  -0.50412  -0.49773  -0.49457  -0.48395
 Alpha  occ. eigenvalues --   -0.48009  -0.47940  -0.47501  -0.47420  -0.47083
 Alpha  occ. eigenvalues --   -0.46463  -0.46222  -0.45247  -0.44849  -0.42771
 Alpha  occ. eigenvalues --   -0.42414  -0.41916  -0.41556  -0.41272  -0.40745
 Alpha  occ. eigenvalues --   -0.40054  -0.39644  -0.39590  -0.38147  -0.36948
 Alpha  occ. eigenvalues --   -0.36347  -0.33296
 Alpha virt. eigenvalues --   -0.12693  -0.11886  -0.11019  -0.10380  -0.09473
 Alpha virt. eigenvalues --   -0.07618  -0.05820  -0.04607  -0.03327  -0.02965
 Alpha virt. eigenvalues --   -0.02689  -0.01624  -0.00854  -0.00651   0.00062

 Mulliken charges:
               1
     1  N   -0.710390
     2  H    0.329678
     3  H    0.316263
     4  C   -0.056104
     5  H    0.155229
     6  C    0.641440
     7  C   -0.296367
     8  H    0.184933
     9  H    0.130385
    10  O   -0.549141
    11  C   -0.351856
    12  H    0.194979
    13  H    0.176866
    14  C    0.575134
    15  O   -0.401777
    16  O   -0.622710
    17  N   -0.624765
    18  H    0.345044
    19  C   -0.042676
    20  H    0.184548
    21  C    0.650669
    22  C   -0.296210
    23  H    0.150264
    24  H    0.155029
    25  O   -0.589601
    26  C   -0.087301
    27  H    0.143547
    28  C   -0.460676
    29  H    0.152080
    30  H    0.163172
    31  H    0.143548
    32  C   -0.447891
    33  H    0.152041
    34  H    0.147401
    35  H    0.159984
    36  N   -0.572401
    37  H    0.373222
    38  C   -0.059042
    39  H    0.183768
    40  C    0.590354
    41  C   -0.283990
    42  H    0.184262
    43  H    0.160096
    44  O   -0.442330
    45  C   -0.296351
    46  H    0.208370
    47  H    0.147290
    48  C   -0.171194
    49  H    0.195455
    50  H    0.189726
    51  N   -0.608119
    52  H    0.377411
    53  N   -0.749084
    54  H    0.409294
    55  H    0.369654
    56  N   -0.776205
    57  H    0.382613
    58  H    0.404403
    59  C    0.754051
    60  O   -0.552586
    61  H    0.433493
    62  H    0.433074
 Sum of Mulliken charges =   1.00000

 Dipole moment (field-independent basis, Debye):
    X=             14.2547    Y=             -1.0068    Z=            -12.3102  Tot=             18.8614
 Quadrupole moment (field-independent basis, Debye-Ang):
   XX=           -102.7793   YY=           -150.6694   ZZ=           -109.3453
   XY=              6.4441   XZ=            -47.2290   YZ=             12.3155

 Normal termination of Gaussian 16 at Wed Jun  1 02:03:00 2022.
