 Gaussian 16, Revision C.01,
 Gaussian 16:  ES64L-G16RevC.01  3-Jul-2019

 ----------------------------------------------------------------------
 # B3LYP/6-31G* empiricaldispersion=gd3 guess=read geom=check nosymm in
 tegral(ultrafinegrid)
 ----------------------------------------------------------------------

 ------------------------------------------------------
 Candidate Structure: Conf:205 Charge calc in gas phase
 ------------------------------------------------------
 Structure from the checkpoint file:  "conf-205.chk"
 Charge =  1 Multiplicity = 1

                          Input orientation:
 ---------------------------------------------------------------------
 Center     Atomic      Atomic             Coordinates (Angstroms)
 Number     Number       Type             X           Y           Z
 ---------------------------------------------------------------------
      1          7           0       -0.468983    2.697610   -4.188325
      2          1           0       -0.726082    2.607052   -5.170700
      3          1           0       -0.856169    3.574328   -3.844232
      4          6           0       -1.042300    1.570119   -3.419737
      5          1           0       -2.141845    1.640914   -3.349013
      6          6           0       -0.519362    1.728592   -1.990917
      7          6           0       -0.691180    0.241152   -4.089921
      8          1           0       -1.164350    0.224920   -5.078784
      9          1           0       -1.161925   -0.580583   -3.544924
     10          8           0       -0.285737    2.867675   -1.557214
     11          6           0        0.816676   -0.013778   -4.266656
     12          1           0        1.412575    0.324964   -3.415163
     13          1           0        1.012011   -1.091645   -4.344191
     14          6           0        1.320745    0.612186   -5.538020
     15          8           0        0.632942    0.986356   -6.461118
     16          8           0        2.683968    0.696957   -5.533689
     17          7           0       -0.366759    0.632737   -1.220811
     18          1           0       -0.364425   -0.276312   -1.656427
     19          6           0        0.278527    0.734422    0.074402
     20          1           0       -0.134311    1.619041    0.564870
     21          6           0        1.799530    0.937452   -0.127041
     22          6           0        0.015445   -0.525349    0.917351
     23          1           0        0.516303   -0.399873    1.884900
     24          1           0        0.507502   -1.379269    0.428807
     25          8           0        2.338395    0.665002   -1.204038
     26          6           0       -1.469004   -0.854603    1.160347
     27          1           0       -1.942871   -1.027396    0.183417
     28          6           0       -1.578303   -2.150004    1.976116
     29          1           0       -1.133926   -2.022226    2.970804
     30          1           0       -2.625945   -2.436220    2.114283
     31          1           0       -1.064135   -2.982703    1.482516
     32          6           0       -2.210583    0.295286    1.854773
     33          1           0       -1.730147    0.548504    2.808501
     34          1           0       -2.244150    1.200651    1.238642
     35          1           0       -3.244579    0.008622    2.072956
     36          7           0        2.489525    1.381770    0.954126
     37          1           0        2.026994    1.537017    1.844723
     38          6           0        3.944463    1.253440    1.037287
     39          1           0        4.231475    0.205498    0.871759
     40          6           0        4.319626    1.611901    2.472977
     41          6           0        4.717161    2.102162    0.011587
     42          1           0        4.434516    1.719547   -0.975451
     43          1           0        5.785250    1.932373    0.153132
     44          8           0        3.521209    1.923692    3.333903
     45          6           0        4.365364    3.590775    0.101610
     46          1           0        3.295333    3.682520    0.317313
     47          1           0        4.903761    4.072887    0.927022
     48          6           0        4.699474    4.343477   -1.194963
     49          1           0        5.771397    4.295967   -1.401562
     50          1           0        4.454077    5.408532   -1.101986
     51          7           0        4.040226    3.783610   -2.378186
     52          1           0        4.618925    3.333157   -3.069316
     53          7           0        1.879510    4.435207   -1.773166
     54          1           0        0.915342    4.099271   -1.670444
     55          1           0        2.247836    4.992273   -1.015375
     56          7           0        2.214749    3.056723   -3.603462
     57          1           0        1.183182    2.983304   -3.754869
     58          1           0        2.769013    2.339256   -4.059622
     59          6           0        2.710266    3.741615   -2.572026
     60          8           0        5.645217    1.530864    2.669109
     61          1           0        5.817211    1.743495    3.606406
     62          1           0        2.949343    1.022359   -6.415264
 ---------------------------------------------------------------------

 SCF Done:  E(RB3LYP) =  -1447.52994334     A.U. after    1 cycles

 Alpha  occ. eigenvalues --  -19.30971 -19.30739 -19.25372 -19.24996 -19.24229
 Alpha  occ. eigenvalues --  -19.23086 -14.49976 -14.48233 -14.47970 -14.47256
 Alpha  occ. eigenvalues --  -14.46633 -14.44889 -10.45057 -10.43332 -10.43032
 Alpha  occ. eigenvalues --  -10.41096 -10.40042 -10.35272 -10.35237 -10.34729
 Alpha  occ. eigenvalues --  -10.34379 -10.30620 -10.30591 -10.30291 -10.29608
 Alpha  occ. eigenvalues --  -10.29405 -10.28344 -10.25886 -10.25534  -1.21803
 Alpha  occ. eigenvalues --   -1.21309  -1.16296  -1.14545  -1.13639  -1.12905
 Alpha  occ. eigenvalues --   -1.12660  -1.04862  -1.03788  -1.03391  -1.01850
 Alpha  occ. eigenvalues --   -1.00721  -0.92152  -0.91150  -0.90224  -0.87311
 Alpha  occ. eigenvalues --   -0.85236  -0.82671  -0.80199  -0.77045  -0.76560
 Alpha  occ. eigenvalues --   -0.76301  -0.75415  -0.73164  -0.72212  -0.71506
 Alpha  occ. eigenvalues --   -0.70535  -0.69307  -0.68189  -0.66516  -0.66239
 Alpha  occ. eigenvalues --   -0.64125  -0.63576  -0.63088  -0.61568  -0.61064
 Alpha  occ. eigenvalues --   -0.60630  -0.60298  -0.60156  -0.59323  -0.58999
 Alpha  occ. eigenvalues --   -0.58656  -0.58079  -0.57256  -0.56676  -0.56553
 Alpha  occ. eigenvalues --   -0.55334  -0.55125  -0.54833  -0.53516  -0.53292
 Alpha  occ. eigenvalues --   -0.53104  -0.52169  -0.51891  -0.51517  -0.51224
 Alpha  occ. eigenvalues --   -0.50521  -0.49958  -0.49733  -0.48653  -0.48113
 Alpha  occ. eigenvalues --   -0.47626  -0.47159  -0.46999  -0.46630  -0.46328
 Alpha  occ. eigenvalues --   -0.45836  -0.45594  -0.45174  -0.43101  -0.42906
 Alpha  occ. eigenvalues --   -0.42130  -0.41745  -0.41654  -0.39671  -0.39167
 Alpha  occ. eigenvalues --   -0.38942  -0.38828  -0.38599  -0.38063  -0.37140
 Alpha  occ. eigenvalues --   -0.37003  -0.35968
 Alpha virt. eigenvalues --   -0.10808  -0.10529  -0.10094  -0.09407  -0.08895
 Alpha virt. eigenvalues --   -0.05799  -0.04369  -0.03725  -0.03103  -0.02687
 Alpha virt. eigenvalues --   -0.01700  -0.00924   0.00731   0.01216   0.01825

 Mulliken charges:
               1
     1  N   -0.786720
     2  H    0.354745
     3  H    0.343571
     4  C   -0.058490
     5  H    0.187090
     6  C    0.658186
     7  C   -0.328978
     8  H    0.200249
     9  H    0.157907
    10  O   -0.580844
    11  C   -0.393915
    12  H    0.218956
    13  H    0.205490
    14  C    0.598240
    15  O   -0.449287
    16  O   -0.583638
    17  N   -0.583267
    18  H    0.351264
    19  C   -0.071793
    20  H    0.190038
    21  C    0.636853
    22  C   -0.296803
    23  H    0.154835
    24  H    0.149535
    25  O   -0.540369
    26  C   -0.068917
    27  H    0.125604
    28  C   -0.446487
    29  H    0.152682
    30  H    0.163029
    31  H    0.147806
    32  C   -0.456755
    33  H    0.149053
    34  H    0.147996
    35  H    0.166562
    36  N   -0.629551
    37  H    0.365437
    38  C   -0.032614
    39  H    0.201951
    40  C    0.586037
    41  C   -0.283558
    42  H    0.183771
    43  H    0.179269
    44  O   -0.460498
    45  C   -0.292281
    46  H    0.156429
    47  H    0.171847
    48  C   -0.174564
    49  H    0.186838
    50  H    0.181292
    51  N   -0.597129
    52  H    0.357990
    53  N   -0.784606
    54  H    0.422879
    55  H    0.361911
    56  N   -0.834294
    57  H    0.444973
    58  H    0.363281
    59  C    0.810963
    60  O   -0.558684
    61  H    0.433953
    62  H    0.425529
 Sum of Mulliken charges =   1.00000

 Dipole moment (field-independent basis, Debye):
    X=             10.7285    Y=              9.4856    Z=             -7.2279  Tot=             16.0412
 Quadrupole moment (field-independent basis, Debye-Ang):
   XX=           -101.5724   YY=           -127.8325   ZZ=           -125.2941
   XY=             39.0709   XZ=             -7.4202   YZ=            -18.1210

 Normal termination of Gaussian 16 at Wed Jun  1 02:02:56 2022.
