 Gaussian 16, Revision C.01,
 Gaussian 16:  ES64L-G16RevC.01  3-Jul-2019

 ----------------------------------------------------------------------
 # B3LYP/6-31G* empiricaldispersion=gd3 guess=read geom=check nosymm in
 tegral(ultrafinegrid)
 ----------------------------------------------------------------------

 ------------------------------------------------------
 Candidate Structure: Conf:102 Charge calc in gas phase
 ------------------------------------------------------
 Structure from the checkpoint file:  "conf-102.chk"
 Charge =  1 Multiplicity = 1

                          Input orientation:
 ---------------------------------------------------------------------
 Center     Atomic      Atomic             Coordinates (Angstroms)
 Number     Number       Type             X           Y           Z
 ---------------------------------------------------------------------
      1          7           0       -3.074876    0.466960   -3.760176
      2          1           0       -3.788299    0.294368   -3.053338
      3          1           0       -2.899877    1.472454   -3.751201
      4          6           0       -1.833983   -0.218185   -3.403809
      5          1           0       -2.076146   -1.258954   -3.172303
      6          6           0       -1.162160    0.415772   -2.173918
      7          6           0       -0.891874   -0.204462   -4.636022
      8          1           0       -1.062201    0.731054   -5.180145
      9          1           0       -1.205513   -1.015618   -5.298639
     10          8           0       -0.959734    1.637472   -2.100708
     11          6           0        0.609501   -0.293400   -4.339456
     12          1           0        1.176474   -0.397121   -5.273911
     13          1           0        0.952281    0.637055   -3.875820
     14          6           0        1.018105   -1.428587   -3.423830
     15          8           0        0.338415   -2.386193   -3.120342
     16          8           0        2.261769   -1.221861   -2.926527
     17          7           0       -0.819671   -0.446078   -1.185084
     18          1           0       -0.865463   -1.438322   -1.383012
     19          6           0       -0.178835   -0.040987    0.065244
     20          1           0       -0.647334    0.900492    0.366701
     21          6           0        1.321039    0.229689   -0.187731
     22          6           0       -0.367356   -1.109534    1.144403
     23          1           0        0.115597   -0.744155    2.059719
     24          1           0        0.195852   -2.002844    0.847317
     25          8           0        2.203620   -0.587279    0.043624
     26          6           0       -1.831636   -1.478047    1.449797
     27          1           0       -2.280976   -1.896684    0.537300
     28          6           0       -1.870883   -2.566332    2.532133
     29          1           0       -1.451678   -2.193177    3.475197
     30          1           0       -2.899709   -2.887265    2.728385
     31          1           0       -1.292612   -3.448894    2.234923
     32          6           0       -2.666308   -0.258923    1.867455
     33          1           0       -2.222314    0.237123    2.740477
     34          1           0       -2.749468    0.480795    1.062817
     35          1           0       -3.683290   -0.561197    2.140057
     36          7           0        1.563652    1.477841   -0.701572
     37          1           0        0.761501    1.971342   -1.097112
     38          6           0        2.912867    1.917615   -0.997252
     39          1           0        3.569810    1.166100   -0.542272
     40          6           0        3.152936    3.236705   -0.257379
     41          6           0        3.197055    2.010824   -2.502904
     42          1           0        2.550691    2.785856   -2.934350
     43          1           0        2.884723    1.057486   -2.930301
     44          8           0        3.426684    4.315968   -0.775944
     45          6           0        4.685039    2.267960   -2.852203
     46          1           0        5.257900    2.552963   -1.960606
     47          1           0        5.147459    1.349710   -3.226145
     48          6           0        4.880704    3.359783   -3.909571
     49          1           0        4.323208    3.115823   -4.823654
     50          1           0        5.944185    3.452163   -4.164423
     51          7           0        4.387450    4.631238   -3.362337
     52          1           0        4.039540    4.588432   -2.393538
     53          7           0        4.743687    5.927608   -5.260504
     54          1           0        4.478729    6.716071   -5.832849
     55          1           0        5.284739    5.198711   -5.700975
     56          7           0        3.585049    6.794824   -3.445470
     57          1           0        3.734365    7.743969   -3.757947
     58          1           0        3.217308    6.680245   -2.509723
     59          6           0        4.250169    5.770324   -4.020081
     60          8           0        3.014850    3.104134    1.058972
     61          1           0        3.162322    3.975314    1.475525
     62          1           0        2.426601   -1.882928   -2.226003
 ---------------------------------------------------------------------

 SCF Done:  E(RB3LYP) =  -1447.50004027     A.U. after    1 cycles

 Alpha  occ. eigenvalues --  -19.32066 -19.28070 -19.27908 -19.22492 -19.21019
 Alpha  occ. eigenvalues --  -19.20609 -14.53294 -14.52649 -14.51650 -14.45249
 Alpha  occ. eigenvalues --  -14.45020 -14.38776 -10.49065 -10.45259 -10.40723
 Alpha  occ. eigenvalues --  -10.37761 -10.37000 -10.36909 -10.34858 -10.31827
 Alpha  occ. eigenvalues --  -10.31628 -10.30312 -10.29881 -10.28567 -10.26833
 Alpha  occ. eigenvalues --  -10.25857 -10.25811 -10.23792 -10.23276  -1.23675
 Alpha  occ. eigenvalues --   -1.18829  -1.17605  -1.14530  -1.12980  -1.11859
 Alpha  occ. eigenvalues --   -1.09995  -1.06709  -1.05960  -1.02437  -1.01287
 Alpha  occ. eigenvalues --   -0.96185  -0.92600  -0.88586  -0.87474  -0.87382
 Alpha  occ. eigenvalues --   -0.83048  -0.81413  -0.79758  -0.78483  -0.75656
 Alpha  occ. eigenvalues --   -0.74810  -0.74559  -0.73503  -0.72503  -0.71018
 Alpha  occ. eigenvalues --   -0.70050  -0.68227  -0.67207  -0.66491  -0.65792
 Alpha  occ. eigenvalues --   -0.65499  -0.64296  -0.63126  -0.62347  -0.61847
 Alpha  occ. eigenvalues --   -0.60277  -0.59700  -0.58730  -0.58327  -0.57886
 Alpha  occ. eigenvalues --   -0.57141  -0.56594  -0.56415  -0.55923  -0.55347
 Alpha  occ. eigenvalues --   -0.54698  -0.54204  -0.52663  -0.52102  -0.51665
 Alpha  occ. eigenvalues --   -0.51155  -0.50454  -0.50279  -0.49718  -0.49411
 Alpha  occ. eigenvalues --   -0.48874  -0.47909  -0.47458  -0.46821  -0.46538
 Alpha  occ. eigenvalues --   -0.45841  -0.45547  -0.45437  -0.44694  -0.44624
 Alpha  occ. eigenvalues --   -0.44198  -0.44133  -0.43118  -0.42812  -0.42073
 Alpha  occ. eigenvalues --   -0.41796  -0.41374  -0.40463  -0.39349  -0.39252
 Alpha  occ. eigenvalues --   -0.39064  -0.36848  -0.35921  -0.35373  -0.34756
 Alpha  occ. eigenvalues --   -0.32870  -0.30817
 Alpha virt. eigenvalues --   -0.12957  -0.12629  -0.08895  -0.08478  -0.07486
 Alpha virt. eigenvalues --   -0.05901  -0.05450  -0.03728  -0.03470  -0.02161
 Alpha virt. eigenvalues --   -0.01323  -0.00645   0.00253   0.00758   0.01714

 Mulliken charges:
               1
     1  N   -0.699149
     2  H    0.309424
     3  H    0.310979
     4  C   -0.064957
     5  H    0.163682
     6  C    0.584264
     7  C   -0.238930
     8  H    0.154144
     9  H    0.180820
    10  O   -0.575182
    11  C   -0.393455
    12  H    0.188101
    13  H    0.175397
    14  C    0.597357
    15  O   -0.471816
    16  O   -0.569940
    17  N   -0.594613
    18  H    0.365153
    19  C   -0.065542
    20  H    0.178786
    21  C    0.631672
    22  C   -0.285450
    23  H    0.156035
    24  H    0.162220
    25  O   -0.527396
    26  C   -0.074776
    27  H    0.123523
    28  C   -0.444242
    29  H    0.147651
    30  H    0.154348
    31  H    0.149243
    32  C   -0.454076
    33  H    0.144857
    34  H    0.143680
    35  H    0.157813
    36  N   -0.629159
    37  H    0.374119
    38  C   -0.044579
    39  H    0.220347
    40  C    0.614884
    41  C   -0.314878
    42  H    0.148322
    43  H    0.219301
    44  O   -0.527478
    45  C   -0.319469
    46  H    0.169671
    47  H    0.191639
    48  C   -0.158798
    49  H    0.182201
    50  H    0.182964
    51  N   -0.633367
    52  H    0.429348
    53  N   -0.761338
    54  H    0.384514
    55  H    0.390475
    56  N   -0.763436
    57  H    0.378702
    58  H    0.391069
    59  C    0.814009
    60  O   -0.519472
    61  H    0.431151
    62  H    0.429633
 Sum of Mulliken charges =   1.00000

 Dipole moment (field-independent basis, Debye):
    X=             16.9743    Y=             22.2724    Z=            -15.1623  Tot=             31.8447
 Quadrupole moment (field-independent basis, Debye-Ang):
   XX=            -88.6168   YY=            -32.2924   ZZ=            -88.1034
   XY=             97.3970   XZ=            -78.8147   YZ=            -85.9146

 Normal termination of Gaussian 16 at Wed Jun  1 02:03:14 2022.
