 Gaussian 16, Revision C.01,
 Gaussian 16:  ES64L-G16RevC.01  3-Jul-2019

 ----------------------------------------------------------------------
 # B3LYP/6-31G* empiricaldispersion=gd3 guess=read geom=check nosymm in
 tegral(ultrafinegrid)
 ----------------------------------------------------------------------

 ------------------------------------------------------
 Candidate Structure: Conf:112 Charge calc in gas phase
 ------------------------------------------------------
 Structure from the checkpoint file:  "conf-112.chk"
 Charge =  1 Multiplicity = 1

                          Input orientation:
 ---------------------------------------------------------------------
 Center     Atomic      Atomic             Coordinates (Angstroms)
 Number     Number       Type             X           Y           Z
 ---------------------------------------------------------------------
      1          7           0       -1.557209    0.659339   -3.908931
      2          1           0       -1.267752    1.634694   -3.950975
      3          1           0       -1.740897    0.340628   -4.857771
      4          6           0       -0.497399   -0.130417   -3.292006
      5          1           0       -0.876585   -1.152113   -3.154563
      6          6           0       -0.219020    0.517510   -1.930311
      7          6           0        0.826647   -0.190181   -4.089096
      8          1           0        1.238734    0.823415   -4.136764
      9          1           0        0.603170   -0.505977   -5.115534
     10          8           0        0.135695    1.704141   -1.880966
     11          6           0        1.852178   -1.148603   -3.468102
     12          1           0        2.042003   -0.876211   -2.420245
     13          1           0        1.484878   -2.179195   -3.457621
     14          6           0        3.192190   -1.116271   -4.159813
     15          8           0        3.716592   -0.122450   -4.647985
     16          8           0        3.795362   -2.307460   -4.167165
     17          7           0       -0.344714   -0.267191   -0.838701
     18          1           0       -0.651086   -1.223038   -0.959939
     19          6           0       -0.179164    0.217311    0.541291
     20          1           0       -0.651804    1.203102    0.591516
     21          6           0        1.334306    0.374883    0.817997
     22          6           0       -0.826110   -0.743791    1.539519
     23          1           0       -0.678799   -0.316217    2.539353
     24          1           0       -0.258364   -1.682363    1.531567
     25          8           0        2.023985   -0.504653    1.309213
     26          6           0       -2.327750   -1.016337    1.322701
     27          1           0       -2.461149   -1.511031    0.347641
     28          6           0       -2.830375   -1.985893    2.402259
     29          1           0       -2.748807   -1.533262    3.398344
     30          1           0       -3.882090   -2.243728    2.237931
     31          1           0       -2.250424   -2.916096    2.409272
     32          6           0       -3.161305    0.272849    1.309380
     33          1           0       -3.017420    0.838509    2.238975
     34          1           0       -2.900410    0.926456    0.469087
     35          1           0       -4.228372    0.041928    1.223230
     36          7           0        1.822372    1.595008    0.416746
     37          1           0        1.240350    2.072685   -0.273075
     38          6           0        3.261279    1.790610    0.290312
     39          1           0        3.728279    1.255895    1.122401
     40          6           0        3.513312    3.284779    0.494711
     41          6           0        3.763228    1.230310   -1.054377
     42          1           0        3.077880    1.587233   -1.831557
     43          1           0        3.622831    0.146849   -0.989773
     44          8           0        3.727639    4.107852   -0.385758
     45          6           0        5.224322    1.566546   -1.430379
     46          1           0        5.653395    2.286632   -0.723807
     47          1           0        5.861330    0.678205   -1.374176
     48          6           0        5.342377    2.145494   -2.849821
     49          1           0        5.082857    1.389436   -3.590532
     50          1           0        6.369383    2.470249   -3.048913
     51          7           0        4.449859    3.307971   -2.981244
     52          1           0        4.310071    3.825109   -2.107820
     53          7           0        3.281348    2.684540   -4.916760
     54          1           0        2.777722    2.999741   -5.733074
     55          1           0        3.461780    1.680806   -4.829932
     56          7           0        2.940322    4.757077   -3.946052
     57          1           0        2.015260    4.839089   -4.343995
     58          1           0        3.191255    5.447914   -3.251763
     59          6           0        3.559972    3.553412   -3.937921
     60          8           0        3.434862    3.621692    1.781784
     61          1           0        3.557321    4.588415    1.854439
     62          1           0        4.661763   -2.210803   -4.609295
 ---------------------------------------------------------------------

 SCF Done:  E(RB3LYP) =  -1447.50869335     A.U. after    1 cycles

 Alpha  occ. eigenvalues --  -19.32128 -19.31447 -19.27364 -19.27007 -19.22982
 Alpha  occ. eigenvalues --  -19.21399 -14.50955 -14.50187 -14.50148 -14.47585
 Alpha  occ. eigenvalues --  -14.45406 -14.41377 -10.47120 -10.45290 -10.44630
 Alpha  occ. eigenvalues --  -10.39697 -10.38168 -10.34876 -10.34607 -10.33161
 Alpha  occ. eigenvalues --  -10.32948 -10.31848 -10.30808 -10.30330 -10.30308
 Alpha  occ. eigenvalues --  -10.26996 -10.26960 -10.24560 -10.24168  -1.23462
 Alpha  occ. eigenvalues --   -1.22956  -1.15541  -1.14688  -1.14251  -1.13820
 Alpha  occ. eigenvalues --   -1.13137  -1.04906  -1.03572  -1.03529  -1.02663
 Alpha  occ. eigenvalues --   -0.99042  -0.91612  -0.91013  -0.89474  -0.87016
 Alpha  occ. eigenvalues --   -0.84095  -0.81743  -0.80931  -0.77793  -0.75972
 Alpha  occ. eigenvalues --   -0.75339  -0.74676  -0.73385  -0.72735  -0.71396
 Alpha  occ. eigenvalues --   -0.69971  -0.69004  -0.68830  -0.67901  -0.65478
 Alpha  occ. eigenvalues --   -0.64443  -0.64399  -0.63793  -0.63445  -0.61727
 Alpha  occ. eigenvalues --   -0.61412  -0.60505  -0.60041  -0.59375  -0.59190
 Alpha  occ. eigenvalues --   -0.58291  -0.57975  -0.57139  -0.56089  -0.55597
 Alpha  occ. eigenvalues --   -0.55072  -0.54157  -0.53948  -0.53631  -0.53203
 Alpha  occ. eigenvalues --   -0.52397  -0.51682  -0.51245  -0.50559  -0.50425
 Alpha  occ. eigenvalues --   -0.49924  -0.49701  -0.49003  -0.48554  -0.47886
 Alpha  occ. eigenvalues --   -0.46947  -0.46765  -0.46527  -0.46108  -0.45847
 Alpha  occ. eigenvalues --   -0.45463  -0.45122  -0.44455  -0.43926  -0.43830
 Alpha  occ. eigenvalues --   -0.42157  -0.41005  -0.40861  -0.40289  -0.40216
 Alpha  occ. eigenvalues --   -0.40082  -0.39511  -0.38182  -0.37221  -0.35539
 Alpha  occ. eigenvalues --   -0.33757  -0.33369
 Alpha virt. eigenvalues --   -0.12239  -0.12003  -0.11646  -0.09035  -0.07594
 Alpha virt. eigenvalues --   -0.06716  -0.04012  -0.03076  -0.02814  -0.02703
 Alpha virt. eigenvalues --   -0.01847  -0.01385  -0.01037   0.00212   0.00804

 Mulliken charges:
               1
     1  N   -0.705531
     2  H    0.312502
     3  H    0.312132
     4  C   -0.054352
     5  H    0.145901
     6  C    0.645849
     7  C   -0.283915
     8  H    0.149408
     9  H    0.156855
    10  O   -0.570932
    11  C   -0.381400
    12  H    0.202057
    13  H    0.195980
    14  C    0.604956
    15  O   -0.499625
    16  O   -0.528699
    17  N   -0.599631
    18  H    0.349639
    19  C   -0.065345
    20  H    0.184446
    21  C    0.619836
    22  C   -0.296732
    23  H    0.165252
    24  H    0.167806
    25  O   -0.505533
    26  C   -0.082143
    27  H    0.113910
    28  C   -0.443818
    29  H    0.153017
    30  H    0.156902
    31  H    0.148917
    32  C   -0.453220
    33  H    0.149407
    34  H    0.147209
    35  H    0.161366
    36  N   -0.620789
    37  H    0.372085
    38  C   -0.036893
    39  H    0.217961
    40  C    0.596352
    41  C   -0.299216
    42  H    0.150224
    43  H    0.183023
    44  O   -0.510401
    45  C   -0.307710
    46  H    0.167081
    47  H    0.178787
    48  C   -0.170096
    49  H    0.195506
    50  H    0.192981
    51  N   -0.609944
    52  H    0.402238
    53  N   -0.789128
    54  H    0.367704
    55  H    0.436120
    56  N   -0.752120
    57  H    0.371792
    58  H    0.381435
    59  C    0.774555
    60  O   -0.523780
    61  H    0.430525
    62  H    0.429235
 Sum of Mulliken charges =   1.00000

 Dipole moment (field-independent basis, Debye):
    X=             12.3832    Y=              9.5291    Z=            -14.8962  Tot=             21.5880
 Quadrupole moment (field-independent basis, Debye-Ang):
   XX=           -110.1169   YY=           -111.7551   ZZ=            -95.9812
   XY=             36.4777   XZ=            -43.3676   YZ=            -20.1654

 Normal termination of Gaussian 16 at Wed Jun  1 02:02:56 2022.
