 Gaussian 16, Revision C.01,
 Gaussian 16:  ES64L-G16RevC.01  3-Jul-2019

 ----------------------------------------------------------------------
 # B3LYP/6-31G* empiricaldispersion=gd3 guess=read geom=check nosymm in
 tegral(ultrafinegrid)
 ----------------------------------------------------------------------

 ------------------------------------------------------
 Candidate Structure: Conf:433 Charge calc in gas phase
 ------------------------------------------------------
 Structure from the checkpoint file:  "conf-433.chk"
 Charge =  1 Multiplicity = 1

                          Input orientation:
 ---------------------------------------------------------------------
 Center     Atomic      Atomic             Coordinates (Angstroms)
 Number     Number       Type             X           Y           Z
 ---------------------------------------------------------------------
      1          7           0       -1.210099   -0.140256   -4.230816
      2          1           0       -1.171400    0.875580   -4.283859
      3          1           0       -1.006322   -0.529520   -5.146971
      4          6           0       -0.288711   -0.610521   -3.208551
      5          1           0       -0.453611   -1.687133   -3.066696
      6          6           0       -0.597369    0.154428   -1.917012
      7          6           0        1.225107   -0.360997   -3.467953
      8          1           0        1.795403   -0.636087   -2.571536
      9          1           0        1.348843    0.718447   -3.613492
     10          8           0       -0.604630    1.384636   -1.922884
     11          6           0        1.762354   -1.113748   -4.682056
     12          1           0        1.661062   -2.199311   -4.569285
     13          1           0        1.197357   -0.853433   -5.588972
     14          6           0        3.208629   -0.815719   -4.989610
     15          8           0        3.849894    0.141838   -4.564141
     16          8           0        3.743424   -1.714362   -5.817477
     17          7           0       -0.770209   -0.581839   -0.783188
     18          1           0       -0.533199   -1.564415   -0.839056
     19          6           0       -0.521292    0.046000    0.510633
     20          1           0       -1.128517    0.953096    0.556472
     21          6           0        0.970946    0.427080    0.555221
     22          6           0       -0.872157   -0.902791    1.666415
     23          1           0       -0.646063   -0.384496    2.608334
     24          1           0       -0.193114   -1.766273    1.621200
     25          8           0        1.817511   -0.262952   -0.014422
     26          6           0       -2.334942   -1.387583    1.691019
     27          1           0       -2.529693   -1.926103    0.752726
     28          6           0       -2.530928   -2.369223    2.855259
     29          1           0       -2.361545   -1.871368    3.818550
     30          1           0       -3.550938   -2.768227    2.862077
     31          1           0       -1.838081   -3.216551    2.789606
     32          6           0       -3.329627   -0.222261    1.781523
     33          1           0       -3.134180    0.390334    2.671663
     34          1           0       -3.285422    0.428361    0.901194
     35          1           0       -4.355850   -0.597235    1.857250
     36          7           0        1.285127    1.570887    1.216347
     37          1           0        0.581729    2.095475    1.721576
     38          6           0        2.645606    2.071927    1.236304
     39          1           0        3.305645    1.204606    1.152953
     40          6           0        2.893929    2.768016    2.563887
     41          6           0        2.969203    3.046838    0.055164
     42          1           0        4.050113    2.986229   -0.121283
     43          1           0        2.751671    4.082094    0.350930
     44          8           0        2.031233    3.068478    3.356939
     45          6           0        2.167007    2.705704   -1.207433
     46          1           0        2.168194    1.626005   -1.366614
     47          1           0        1.118340    2.977326   -1.069213
     48          6           0        2.672577    3.357970   -2.495826
     49          1           0        2.979628    4.400681   -2.359631
     50          1           0        1.871593    3.365930   -3.240989
     51          7           0        3.778125    2.591480   -3.092811
     52          1           0        3.524097    1.698098   -3.522679
     53          7           0        5.591938    3.885005   -2.370735
     54          1           0        6.501678    4.254430   -2.607449
     55          1           0        4.997476    4.469843   -1.803395
     56          7           0        5.913806    2.087764   -3.799950
     57          1           0        6.889800    2.041137   -3.542956
     58          1           0        5.521855    1.281270   -4.280037
     59          6           0        5.075574    2.858074   -3.075648
     60          8           0        4.202025    3.057874    2.720929
     61          1           0        4.292771    3.525043    3.573997
     62          1           0        4.666035   -1.460149   -6.010449
 ---------------------------------------------------------------------

 SCF Done:  E(RB3LYP) =  -1447.50177863     A.U. after    1 cycles

 Alpha  occ. eigenvalues --  -19.32622 -19.29504 -19.28355 -19.23897 -19.20856
 Alpha  occ. eigenvalues --  -19.20675 -14.52182 -14.51182 -14.50983 -14.45720
 Alpha  occ. eigenvalues --  -14.44742 -14.40111 -10.48036 -10.45899 -10.41923
 Alpha  occ. eigenvalues --  -10.37896 -10.37392 -10.35653 -10.33928 -10.31857
 Alpha  occ. eigenvalues --  -10.31746 -10.31621 -10.30327 -10.29186 -10.28951
 Alpha  occ. eigenvalues --  -10.27014 -10.26157 -10.23841 -10.23701  -1.24049
 Alpha  occ. eigenvalues --   -1.20405  -1.16521  -1.14906  -1.13340  -1.12129
 Alpha  occ. eigenvalues --   -1.11541  -1.05789  -1.04600  -1.02293  -1.01307
 Alpha  occ. eigenvalues --   -0.97765  -0.91225  -0.90303  -0.88823  -0.86893
 Alpha  occ. eigenvalues --   -0.83488  -0.81471  -0.80689  -0.77942  -0.75543
 Alpha  occ. eigenvalues --   -0.74775  -0.73930  -0.73575  -0.72239  -0.70794
 Alpha  occ. eigenvalues --   -0.69800  -0.68846  -0.68308  -0.66649  -0.66178
 Alpha  occ. eigenvalues --   -0.64930  -0.63867  -0.62625  -0.62042  -0.61362
 Alpha  occ. eigenvalues --   -0.60444  -0.60402  -0.59508  -0.59115  -0.58808
 Alpha  occ. eigenvalues --   -0.57494  -0.56958  -0.56886  -0.55902  -0.54812
 Alpha  occ. eigenvalues --   -0.54234  -0.54014  -0.53574  -0.52989  -0.52596
 Alpha  occ. eigenvalues --   -0.51899  -0.51661  -0.50787  -0.50216  -0.49398
 Alpha  occ. eigenvalues --   -0.48991  -0.48617  -0.47934  -0.47530  -0.47425
 Alpha  occ. eigenvalues --   -0.46654  -0.45535  -0.45426  -0.45104  -0.44997
 Alpha  occ. eigenvalues --   -0.44869  -0.44532  -0.44311  -0.43235  -0.42876
 Alpha  occ. eigenvalues --   -0.42033  -0.41646  -0.40197  -0.39945  -0.39598
 Alpha  occ. eigenvalues --   -0.39508  -0.37547  -0.35688  -0.35222  -0.34722
 Alpha  occ. eigenvalues --   -0.33717  -0.31834
 Alpha virt. eigenvalues --   -0.12476  -0.11872  -0.08964  -0.08010  -0.07766
 Alpha virt. eigenvalues --   -0.06356  -0.04602  -0.04262  -0.02766  -0.01805
 Alpha virt. eigenvalues --   -0.01556  -0.00926  -0.00332  -0.00007   0.01171

 Mulliken charges:
               1
     1  N   -0.707131
     2  H    0.318335
     3  H    0.306256
     4  C   -0.069347
     5  H    0.143423
     6  C    0.651326
     7  C   -0.295540
     8  H    0.188971
     9  H    0.141947
    10  O   -0.548819
    11  C   -0.368725
    12  H    0.204348
    13  H    0.190902
    14  C    0.610289
    15  O   -0.512950
    16  O   -0.523745
    17  N   -0.576872
    18  H    0.338047
    19  C   -0.065946
    20  H    0.180580
    21  C    0.636965
    22  C   -0.292247
    23  H    0.152951
    24  H    0.150262
    25  O   -0.552507
    26  C   -0.068934
    27  H    0.134101
    28  C   -0.445287
    29  H    0.148540
    30  H    0.157866
    31  H    0.144725
    32  C   -0.457246
    33  H    0.143045
    34  H    0.154846
    35  H    0.161023
    36  N   -0.605505
    37  H    0.354282
    38  C   -0.025904
    39  H    0.210619
    40  C    0.577604
    41  C   -0.299162
    42  H    0.146103
    43  H    0.155809
    44  O   -0.449642
    45  C   -0.280141
    46  H    0.189293
    47  H    0.201378
    48  C   -0.189938
    49  H    0.161219
    50  H    0.204156
    51  N   -0.614954
    52  H    0.417586
    53  N   -0.756917
    54  H    0.380479
    55  H    0.382094
    56  N   -0.773356
    57  H    0.369567
    58  H    0.395515
    59  C    0.790744
    60  O   -0.567223
    61  H    0.427969
    62  H    0.424873
 Sum of Mulliken charges =   1.00000

 Dipole moment (field-independent basis, Debye):
    X=             20.3299    Y=              8.3989    Z=            -12.4109  Tot=             25.2563
 Quadrupole moment (field-independent basis, Debye-Ang):
   XX=            -54.3444   YY=           -121.7602   ZZ=           -100.5290
   XY=             58.4311   XZ=            -65.2843   YZ=            -10.5292

 Normal termination of Gaussian 16 at Wed Jun  1 02:02:55 2022.
