 Gaussian 16, Revision C.01,
 Gaussian 16:  ES64L-G16RevC.01  3-Jul-2019

 ----------------------------------------------------------------------
 # B3LYP/6-31G* empiricaldispersion=gd3 guess=read geom=check nosymm in
 tegral(ultrafinegrid)
 ----------------------------------------------------------------------

 ------------------------------------------------------
 Candidate Structure: Conf:962 Charge calc in gas phase
 ------------------------------------------------------
 Structure from the checkpoint file:  "conf-962.chk"
 Charge =  1 Multiplicity = 1

                          Input orientation:
 ---------------------------------------------------------------------
 Center     Atomic      Atomic             Coordinates (Angstroms)
 Number     Number       Type             X           Y           Z
 ---------------------------------------------------------------------
      1          7           0       -2.467697   -2.478785   -3.119813
      2          1           0       -3.305016   -1.904390   -3.030982
      3          1           0       -2.604829   -3.113448   -3.903069
      4          6           0       -1.319877   -1.598721   -3.352003
      5          1           0       -0.417716   -2.227074   -3.345914
      6          6           0       -1.297276   -0.635216   -2.162654
      7          6           0       -1.334205   -0.763409   -4.649781
      8          1           0       -0.437243   -0.133305   -4.690651
      9          1           0       -2.191970   -0.082227   -4.616071
     10          8           0       -2.257240    0.095178   -1.929117
     11          6           0       -1.390623   -1.620609   -5.913741
     12          1           0       -0.602347   -2.388198   -5.905825
     13          1           0       -2.338210   -2.163052   -6.002516
     14          6           0       -1.191979   -0.801727   -7.173247
     15          8           0       -0.741827    0.321807   -7.223364
     16          8           0       -1.561979   -1.497885   -8.274419
     17          7           0       -0.172176   -0.646354   -1.397694
     18          1           0        0.610012   -1.243506   -1.630538
     19          6           0       -0.009044    0.234607   -0.260316
     20          1           0       -0.728080    1.049899   -0.397470
     21          6           0        1.420571    0.772855   -0.286632
     22          6           0       -0.279139   -0.434783    1.109350
     23          1           0       -0.069576    0.322913    1.877960
     24          1           0        0.452154   -1.240306    1.262742
     25          8           0        2.362727    0.137200   -0.751000
     26          6           0       -1.718486   -0.974956    1.300712
     27          1           0       -2.401445   -0.324910    0.737974
     28          6           0       -1.888691   -2.411049    0.778514
     29          1           0       -1.194997   -3.090682    1.291603
     30          1           0       -2.906004   -2.767097    0.976446
     31          1           0       -1.720652   -2.497726   -0.297083
     32          6           0       -2.098500   -0.909427    2.788654
     33          1           0       -1.415723   -1.520330    3.393962
     34          1           0       -2.059360    0.117917    3.171935
     35          1           0       -3.113271   -1.289196    2.950626
     36          7           0        1.601714    2.001809    0.289365
     37          1           0        0.809213    2.533303    0.620452
     38          6           0        2.932643    2.568262    0.368844
     39          1           0        3.623993    1.743241    0.580004
     40          6           0        3.071254    3.547619    1.517951
     41          6           0        3.367704    3.184574   -0.993574
     42          1           0        2.742782    4.058988   -1.216302
     43          1           0        3.112895    2.417265   -1.727669
     44          8           0        4.136069    4.024830    1.884485
     45          6           0        4.868531    3.518488   -1.116915
     46          1           0        5.444151    2.905726   -0.413140
     47          1           0        5.221894    3.241654   -2.116522
     48          6           0        5.190338    5.003648   -0.889108
     49          1           0        4.735268    5.384118    0.027160
     50          1           0        4.803775    5.612974   -1.710415
     51          7           0        6.638525    5.262893   -0.818157
     52          1           0        7.128387    5.372162   -1.696997
     53          7           0        6.868973    4.604078    1.404807
     54          1           0        7.391218    4.670390    2.267280
     55          1           0        5.896677    4.289556    1.481815
     56          7           0        8.707867    5.363401    0.216334
     57          1           0        9.333871    5.108317    0.966381
     58          1           0        9.094060    5.913274   -0.537435
     59          6           0        7.393414    5.071610    0.271669
     60          8           0        1.913465    3.876610    2.096628
     61          1           0        2.095434    4.505784    2.822172
     62          1           0       -1.384172   -0.921937   -9.041989
 ---------------------------------------------------------------------

 SCF Done:  E(RB3LYP) =  -1447.47807897     A.U. after    1 cycles

 Alpha  occ. eigenvalues --  -19.33908 -19.28650 -19.24506 -19.21222 -19.18966
 Alpha  occ. eigenvalues --  -19.17192 -14.53791 -14.53691 -14.52620 -14.46475
 Alpha  occ. eigenvalues --  -14.42415 -14.36973 -10.49957 -10.46677 -10.38106
 Alpha  occ. eigenvalues --  -10.37189 -10.37135 -10.36230 -10.34340 -10.32093
 Alpha  occ. eigenvalues --  -10.31378 -10.30724 -10.28009 -10.25685 -10.25485
 Alpha  occ. eigenvalues --  -10.24175 -10.24105 -10.22441 -10.21338  -1.25128
 Alpha  occ. eigenvalues --   -1.18306  -1.15846  -1.15381  -1.13376  -1.09268
 Alpha  occ. eigenvalues --   -1.07690  -1.06441  -1.06188  -1.03285  -0.98980
 Alpha  occ. eigenvalues --   -0.94278  -0.93045  -0.88739  -0.86453  -0.84444
 Alpha  occ. eigenvalues --   -0.83438  -0.81389  -0.80060  -0.76847  -0.76041
 Alpha  occ. eigenvalues --   -0.75803  -0.73026  -0.72700  -0.72193  -0.71722
 Alpha  occ. eigenvalues --   -0.70153  -0.68108  -0.67219  -0.66608  -0.65282
 Alpha  occ. eigenvalues --   -0.65076  -0.63171  -0.62362  -0.61868  -0.61676
 Alpha  occ. eigenvalues --   -0.60691  -0.59762  -0.58686  -0.58482  -0.56612
 Alpha  occ. eigenvalues --   -0.56414  -0.55118  -0.54671  -0.54161  -0.53942
 Alpha  occ. eigenvalues --   -0.53108  -0.52709  -0.52634  -0.52077  -0.50701
 Alpha  occ. eigenvalues --   -0.50527  -0.49560  -0.49261  -0.48381  -0.48121
 Alpha  occ. eigenvalues --   -0.47968  -0.47231  -0.47046  -0.46843  -0.45907
 Alpha  occ. eigenvalues --   -0.45550  -0.44396  -0.44313  -0.43796  -0.43233
 Alpha  occ. eigenvalues --   -0.42949  -0.42629  -0.41979  -0.41872  -0.41487
 Alpha  occ. eigenvalues --   -0.41220  -0.39860  -0.38636  -0.37941  -0.37573
 Alpha  occ. eigenvalues --   -0.36788  -0.35815  -0.34875  -0.32691  -0.31384
 Alpha  occ. eigenvalues --   -0.31182  -0.28834
 Alpha virt. eigenvalues --   -0.13730  -0.13483  -0.09880  -0.07059  -0.05936
 Alpha virt. eigenvalues --   -0.05285  -0.05024  -0.04157  -0.03177  -0.02621
 Alpha virt. eigenvalues --   -0.00924  -0.00650   0.00794   0.00964   0.01651

 Mulliken charges:
               1
     1  N   -0.714678
     2  H    0.320332
     3  H    0.308075
     4  C   -0.066810
     5  H    0.127830
     6  C    0.638279
     7  C   -0.261263
     8  H    0.154349
     9  H    0.170761
    10  O   -0.537939
    11  C   -0.367056
    12  H    0.177753
    13  H    0.173009
    14  C    0.582201
    15  O   -0.461430
    16  O   -0.564028
    17  N   -0.602844
    18  H    0.344741
    19  C   -0.067627
    20  H    0.179269
    21  C    0.628825
    22  C   -0.255890
    23  H    0.123300
    24  H    0.147666
    25  O   -0.532996
    26  C   -0.076752
    27  H    0.157780
    28  C   -0.456973
    29  H    0.131925
    30  H    0.149634
    31  H    0.174173
    32  C   -0.447289
    33  H    0.141049
    34  H    0.130888
    35  H    0.155438
    36  N   -0.626285
    37  H    0.357028
    38  C   -0.044891
    39  H    0.216019
    40  C    0.616718
    41  C   -0.284328
    42  H    0.158537
    43  H    0.212868
    44  O   -0.506121
    45  C   -0.277456
    46  H    0.159617
    47  H    0.173250
    48  C   -0.190490
    49  H    0.195664
    50  H    0.197976
    51  N   -0.593846
    52  H    0.365517
    53  N   -0.792265
    54  H    0.375350
    55  H    0.447110
    56  N   -0.768459
    57  H    0.385205
    58  H    0.384676
    59  C    0.825710
    60  O   -0.542211
    61  H    0.438075
    62  H    0.413328
 Sum of Mulliken charges =   1.00000

 Dipole moment (field-independent basis, Debye):
    X=             29.8077    Y=             21.8920    Z=              0.7714  Tot=             36.9913
 Quadrupole moment (field-independent basis, Debye-Ang):
   XX=             55.1054   YY=            -52.0547   ZZ=           -132.7556
   XY=            159.9412   XZ=             11.2085   YZ=             20.4198

 Normal termination of Gaussian 16 at Wed Jun  1 02:03:06 2022.
