 Gaussian 16, Revision C.01,
 Gaussian 16:  ES64L-G16RevC.01  3-Jul-2019

 ----------------------------------------------------------------------
 # B3LYP/6-31G* empiricaldispersion=gd3 guess=read geom=check nosymm in
 tegral(ultrafinegrid)
 ----------------------------------------------------------------------

 ------------------------------------------------------
 Candidate Structure: Conf:549 Charge calc in gas phase
 ------------------------------------------------------
 Structure from the checkpoint file:  "conf-549.chk"
 Charge =  1 Multiplicity = 1

                          Input orientation:
 ---------------------------------------------------------------------
 Center     Atomic      Atomic             Coordinates (Angstroms)
 Number     Number       Type             X           Y           Z
 ---------------------------------------------------------------------
      1          7           0       -2.233546    0.593734   -4.430822
      2          1           0       -3.124993    0.528985   -3.942591
      3          1           0       -2.032277    1.589728   -4.513769
      4          6           0       -1.184693   -0.040988   -3.645316
      5          1           0       -1.533540   -1.038211   -3.359798
      6          6           0       -0.839754    0.738610   -2.361984
      7          6           0        0.070369   -0.200429   -4.535228
      8          1           0        0.404327    0.796117   -4.855230
      9          1           0       -0.253515   -0.722203   -5.440707
     10          8           0       -0.945328    1.986389   -2.345253
     11          6           0        1.278476   -0.927059   -3.897805
     12          1           0        2.077930   -1.006174   -4.638610
     13          1           0        1.651359   -0.363800   -3.036589
     14          6           0        0.913084   -2.310307   -3.412112
     15          8           0        0.275226   -2.545193   -2.393465
     16          8           0        1.329254   -3.283638   -4.231186
     17          7           0       -0.440663    0.010046   -1.313298
     18          1           0       -0.267785   -0.985137   -1.485909
     19          6           0        0.005472    0.558201   -0.047899
     20          1           0       -0.555979    1.482635    0.124823
     21          6           0        1.499053    0.970760   -0.143828
     22          6           0       -0.298342   -0.443170    1.085743
     23          1           0       -0.049053    0.017047    2.050787
     24          1           0        0.362106   -1.313681    0.975593
     25          8           0        2.090006    1.048261   -1.223310
     26          6           0       -1.765990   -0.912480    1.149787
     27          1           0       -1.990153   -1.453328    0.220503
     28          6           0       -1.939715   -1.891107    2.319884
     29          1           0       -1.747649   -1.394214    3.279433
     30          1           0       -2.960766   -2.285753    2.348497
     31          1           0       -1.252964   -2.741431    2.237527
     32          6           0       -2.745314    0.264010    1.264533
     33          1           0       -2.518714    0.878884    2.145826
     34          1           0       -2.721608    0.911450    0.379979
     35          1           0       -3.772356   -0.099796    1.373132
     36          7           0        2.079216    1.292565    1.035206
     37          1           0        1.575607    1.185571    1.908393
     38          6           0        3.473108    1.688079    1.183640
     39          1           0        4.126428    0.900552    0.787689
     40          6           0        3.731442    1.802067    2.683387
     41          6           0        3.819934    3.002463    0.445676
     42          1           0        3.714490    2.782682   -0.618400
     43          1           0        4.871904    3.237450    0.635777
     44          8           0        2.876841    1.675641    3.534164
     45          6           0        2.911800    4.174640    0.840055
     46          1           0        1.897793    3.799479    1.011163
     47          1           0        3.239380    4.624427    1.784874
     48          6           0        2.868610    5.289833   -0.217242
     49          1           0        3.844834    5.771712   -0.311965
     50          1           0        2.162986    6.076757    0.075969
     51          7           0        2.536120    4.802654   -1.568345
     52          1           0        3.254425    4.860516   -2.277025
     53          7           0        0.353663    4.099465   -1.132395
     54          1           0       -0.377528    3.410016   -1.345869
     55          1           0        0.198864    4.819602   -0.443116
     56          7           0        1.438397    3.378732   -3.040087
     57          1           0        0.595263    2.820267   -3.186194
     58          1           0        2.298316    2.906404   -3.289691
     59          6           0        1.446507    4.090915   -1.896465
     60          8           0        5.019258    2.078609    2.937633
     61          1           0        5.125961    2.134826    3.907023
     62          1           0        1.029032   -4.136287   -3.859229
 ---------------------------------------------------------------------

 SCF Done:  E(RB3LYP) =  -1447.52788405     A.U. after    2 cycles

 Alpha  occ. eigenvalues --  -19.31220 -19.29815 -19.25900 -19.24652 -19.24154
 Alpha  occ. eigenvalues --  -19.23637 -14.51650 -14.50348 -14.49385 -14.47686
 Alpha  occ. eigenvalues --  -14.46887 -14.40554 -10.46948 -10.43846 -10.42617
 Alpha  occ. eigenvalues --  -10.40619 -10.39930 -10.36530 -10.35831 -10.34678
 Alpha  occ. eigenvalues --  -10.32257 -10.31295 -10.30733 -10.29575 -10.29482
 Alpha  occ. eigenvalues --  -10.29367 -10.28139 -10.26069 -10.25339  -1.22340
 Alpha  occ. eigenvalues --   -1.20937  -1.16029  -1.15386  -1.14681  -1.13522
 Alpha  occ. eigenvalues --   -1.11755  -1.05464  -1.04404  -1.03976  -1.03189
 Alpha  occ. eigenvalues --   -0.98323  -0.92696  -0.90963  -0.89109  -0.88088
 Alpha  occ. eigenvalues --   -0.85020  -0.81615  -0.80339  -0.77683  -0.77012
 Alpha  occ. eigenvalues --   -0.75900  -0.74852  -0.74146  -0.72721  -0.71991
 Alpha  occ. eigenvalues --   -0.69899  -0.69179  -0.68723  -0.67594  -0.65645
 Alpha  occ. eigenvalues --   -0.65313  -0.64129  -0.63606  -0.62091  -0.61200
 Alpha  occ. eigenvalues --   -0.60804  -0.60287  -0.59865  -0.59088  -0.58890
 Alpha  occ. eigenvalues --   -0.58228  -0.57896  -0.57466  -0.56186  -0.55872
 Alpha  occ. eigenvalues --   -0.55427  -0.54856  -0.54642  -0.53868  -0.53689
 Alpha  occ. eigenvalues --   -0.52770  -0.52331  -0.51897  -0.51500  -0.51008
 Alpha  occ. eigenvalues --   -0.50460  -0.50053  -0.49003  -0.48493  -0.48215
 Alpha  occ. eigenvalues --   -0.47766  -0.47152  -0.46504  -0.46373  -0.46093
 Alpha  occ. eigenvalues --   -0.45436  -0.45268  -0.44322  -0.43435  -0.42279
 Alpha  occ. eigenvalues --   -0.42017  -0.41902  -0.41614  -0.41462  -0.40371
 Alpha  occ. eigenvalues --   -0.39487  -0.38876  -0.38050  -0.37867  -0.37366
 Alpha  occ. eigenvalues --   -0.36200  -0.33240
 Alpha virt. eigenvalues --   -0.12373  -0.10894  -0.09957  -0.09632  -0.09210
 Alpha virt. eigenvalues --   -0.06957  -0.05283  -0.03302  -0.03210  -0.02031
 Alpha virt. eigenvalues --   -0.01247  -0.00912   0.00275   0.00661   0.00861

 Mulliken charges:
               1
     1  N   -0.685951
     2  H    0.314749
     3  H    0.308510
     4  C   -0.098209
     5  H    0.173648
     6  C    0.606045
     7  C   -0.269980
     8  H    0.140613
     9  H    0.197070
    10  O   -0.606590
    11  C   -0.392441
    12  H    0.186471
    13  H    0.211027
    14  C    0.599572
    15  O   -0.489691
    16  O   -0.534770
    17  N   -0.587955
    18  H    0.403988
    19  C   -0.082405
    20  H    0.177015
    21  C    0.641890
    22  C   -0.305478
    23  H    0.148699
    24  H    0.163387
    25  O   -0.552689
    26  C   -0.070922
    27  H    0.141294
    28  C   -0.448632
    29  H    0.149538
    30  H    0.162270
    31  H    0.152905
    32  C   -0.458867
    33  H    0.143822
    34  H    0.142147
    35  H    0.167325
    36  N   -0.634009
    37  H    0.371753
    38  C   -0.020435
    39  H    0.206398
    40  C    0.586042
    41  C   -0.287464
    42  H    0.169336
    43  H    0.182745
    44  O   -0.457862
    45  C   -0.292601
    46  H    0.157380
    47  H    0.177562
    48  C   -0.165868
    49  H    0.192450
    50  H    0.182572
    51  N   -0.590472
    52  H    0.365758
    53  N   -0.774489
    54  H    0.426375
    55  H    0.370091
    56  N   -0.757042
    57  H    0.400958
    58  H    0.366261
    59  C    0.773828
    60  O   -0.558447
    61  H    0.435226
    62  H    0.426551
 Sum of Mulliken charges =   1.00000

 Dipole moment (field-independent basis, Debye):
    X=              8.6670    Y=             11.3785    Z=             -3.2345  Tot=             14.6645
 Quadrupole moment (field-independent basis, Debye-Ang):
   XX=           -127.4878   YY=            -95.5527   ZZ=           -145.3501
   XY=             34.7551   XZ=             -0.6330   YZ=              0.1493

 Normal termination of Gaussian 16 at Wed Jun  1 02:03:13 2022.
