 Gaussian 16, Revision C.01,
 Gaussian 16:  ES64L-G16RevC.01  3-Jul-2019

 ----------------------------------------------------------------------
 # B3LYP/6-31G* empiricaldispersion=gd3 guess=read geom=check nosymm in
 tegral(ultrafinegrid)
 ----------------------------------------------------------------------

 ------------------------------------------------------
 Candidate Structure: Conf:123 Charge calc in gas phase
 ------------------------------------------------------
 Structure from the checkpoint file:  "conf-123.chk"
 Charge =  1 Multiplicity = 1

                          Input orientation:
 ---------------------------------------------------------------------
 Center     Atomic      Atomic             Coordinates (Angstroms)
 Number     Number       Type             X           Y           Z
 ---------------------------------------------------------------------
      1          7           0       -1.957079    0.844341   -4.194122
      2          1           0       -2.863551    0.742561   -3.739787
      3          1           0       -1.686641    1.820945   -4.071773
      4          6           0       -0.961453    0.011258   -3.520272
      5          1           0       -1.361700   -1.008615   -3.450124
      6          6           0       -0.609380    0.550104   -2.127782
      7          6           0        0.316688   -0.010081   -4.376789
      8          1           0        0.690636    1.016903   -4.458364
      9          1           0        0.032564   -0.341187   -5.380552
     10          8           0       -0.258952    1.724759   -1.982835
     11          6           0        1.426396   -0.920052   -3.802004
     12          1           0        1.789804   -0.538924   -2.840448
     13          1           0        1.050719   -1.935125   -3.645852
     14          6           0        2.553827   -1.029107   -4.788974
     15          8           0        2.828350   -1.964132   -5.492972
     16          8           0        3.287136    0.157919   -4.892440
     17          7           0       -0.694341   -0.308806   -1.080307
     18          1           0       -0.839009   -1.292956   -1.259404
     19          6           0       -0.214178    0.086941    0.236794
     20          1           0       -0.784708    0.968002    0.547371
     21          6           0        1.275755    0.456499    0.132030
     22          6           0       -0.388903   -1.052594    1.251986
     23          1           0        0.008415   -0.703142    2.214402
     24          1           0        0.252599   -1.886572    0.936653
     25          8           0        2.077117   -0.270798   -0.455624
     26          6           0       -1.835958   -1.543712    1.457764
     27          1           0       -2.213607   -1.929985    0.498936
     28          6           0       -1.843144   -2.704284    2.463351
     29          1           0       -1.493290   -2.367966    3.447536
     30          1           0       -2.853997   -3.106683    2.589026
     31          1           0       -1.191423   -3.523564    2.137781
     32          6           0       -2.773485   -0.416902    1.912733
     33          1           0       -2.409731    0.041407    2.841530
     34          1           0       -2.868608    0.372215    1.158437
     35          1           0       -3.778657   -0.805913    2.107011
     36          7           0        1.632267    1.609792    0.748115
     37          1           0        0.939343    2.180428    1.216087
     38          6           0        2.997320    2.090830    0.768548
     39          1           0        3.660039    1.219319    0.761628
     40          6           0        3.210152    2.869168    2.060450
     41          6           0        3.349414    2.989509   -0.445208
     42          1           0        4.410667    3.253245   -0.355879
     43          1           0        2.776680    3.924369   -0.381167
     44          8           0        2.322861    3.245205    2.791236
     45          6           0        3.064319    2.296524   -1.783728
     46          1           0        3.423833    1.265017   -1.744096
     47          1           0        1.983654    2.228475   -1.945934
     48          6           0        3.665021    3.018742   -2.989208
     49          1           0        3.315120    4.052363   -3.048504
     50          1           0        3.370664    2.524835   -3.920766
     51          7           0        5.146410    3.106984   -2.938126
     52          1           0        5.556458    4.025718   -2.840669
     53          7           0        5.581566    0.845907   -3.277535
     54          1           0        6.136209    0.038965   -3.028102
     55          1           0        4.659166    0.666721   -3.680810
     56          7           0        7.270768    2.253571   -2.560300
     57          1           0        7.982998    1.580058   -2.804014
     58          1           0        7.578754    3.114048   -2.131246
     59          6           0        5.985833    2.070060   -2.926314
     60          8           0        4.518727    3.129678    2.264523
     61          1           0        4.581640    3.648884    3.089642
     62          1           0        3.848352    0.030720   -5.683346
 ---------------------------------------------------------------------

 SCF Done:  E(RB3LYP) =  -1447.49388461     A.U. after    2 cycles

 Alpha  occ. eigenvalues --  -19.31413 -19.29986 -19.24833 -19.24351 -19.20888
 Alpha  occ. eigenvalues --  -19.20629 -14.53457 -14.53341 -14.52424 -14.45726
 Alpha  occ. eigenvalues --  -14.45486 -14.39627 -10.49586 -10.42682 -10.42349
 Alpha  occ. eigenvalues --  -10.38033 -10.37166 -10.36064 -10.34296 -10.32273
 Alpha  occ. eigenvalues --  -10.31155 -10.30313 -10.29410 -10.29385 -10.28296
 Alpha  occ. eigenvalues --  -10.27355 -10.26959 -10.24523 -10.24269  -1.21139
 Alpha  occ. eigenvalues --   -1.20862  -1.17928  -1.13309  -1.12433  -1.12188
 Alpha  occ. eigenvalues --   -1.11884  -1.07139  -1.05929  -1.02477  -1.01658
 Alpha  occ. eigenvalues --   -0.97206  -0.91761  -0.89407  -0.88825  -0.87430
 Alpha  occ. eigenvalues --   -0.83608  -0.81866  -0.79836  -0.78793  -0.75612
 Alpha  occ. eigenvalues --   -0.75488  -0.74382  -0.73474  -0.73043  -0.70468
 Alpha  occ. eigenvalues --   -0.70195  -0.69131  -0.68426  -0.66907  -0.66556
 Alpha  occ. eigenvalues --   -0.66248  -0.64218  -0.62647  -0.61830  -0.60814
 Alpha  occ. eigenvalues --   -0.59742  -0.59532  -0.59066  -0.58765  -0.58230
 Alpha  occ. eigenvalues --   -0.57480  -0.57242  -0.56734  -0.55914  -0.54482
 Alpha  occ. eigenvalues --   -0.54179  -0.54012  -0.53639  -0.53119  -0.52238
 Alpha  occ. eigenvalues --   -0.51543  -0.51416  -0.50392  -0.50186  -0.49600
 Alpha  occ. eigenvalues --   -0.49285  -0.48490  -0.47920  -0.47850  -0.46811
 Alpha  occ. eigenvalues --   -0.46367  -0.45932  -0.45666  -0.45303  -0.45148
 Alpha  occ. eigenvalues --   -0.44237  -0.43795  -0.43651  -0.43182  -0.42949
 Alpha  occ. eigenvalues --   -0.42079  -0.41797  -0.40437  -0.40275  -0.40102
 Alpha  occ. eigenvalues --   -0.37988  -0.37915  -0.36177  -0.35528  -0.34976
 Alpha  occ. eigenvalues --   -0.33826  -0.31596
 Alpha virt. eigenvalues --   -0.13686  -0.10170  -0.09764  -0.09305  -0.07729
 Alpha virt. eigenvalues --   -0.06502  -0.05738  -0.05621  -0.04133  -0.02027
 Alpha virt. eigenvalues --   -0.01711  -0.01391  -0.00109   0.00290   0.01572

 Mulliken charges:
               1
     1  N   -0.695689
     2  H    0.312673
     3  H    0.315172
     4  C   -0.074273
     5  H    0.140988
     6  C    0.619004
     7  C   -0.267160
     8  H    0.159530
     9  H    0.184057
    10  O   -0.554554
    11  C   -0.374906
    12  H    0.213989
    13  H    0.181928
    14  C    0.563600
    15  O   -0.411826
    16  O   -0.610772
    17  N   -0.596032
    18  H    0.341083
    19  C   -0.037042
    20  H    0.167565
    21  C    0.655313
    22  C   -0.301932
    23  H    0.155918
    24  H    0.158798
    25  O   -0.559481
    26  C   -0.076133
    27  H    0.120965
    28  C   -0.444131
    29  H    0.150627
    30  H    0.158756
    31  H    0.146901
    32  C   -0.453918
    33  H    0.148472
    34  H    0.148485
    35  H    0.161777
    36  N   -0.599092
    37  H    0.357103
    38  C   -0.041475
    39  H    0.195762
    40  C    0.586940
    41  C   -0.266509
    42  H    0.139199
    43  H    0.161902
    44  O   -0.448367
    45  C   -0.319830
    46  H    0.169977
    47  H    0.229740
    48  C   -0.190266
    49  H    0.189231
    50  H    0.202618
    51  N   -0.592602
    52  H    0.364921
    53  N   -0.787869
    54  H    0.378229
    55  H    0.433192
    56  N   -0.764667
    57  H    0.384276
    58  H    0.381844
    59  C    0.811975
    60  O   -0.571532
    61  H    0.428352
    62  H    0.419198
 Sum of Mulliken charges =   1.00000

 Dipole moment (field-independent basis, Debye):
    X=             22.4312    Y=              9.1029    Z=             -8.8564  Tot=             25.7770
 Quadrupole moment (field-independent basis, Debye-Ang):
   XX=             -1.7087   YY=           -136.9495   ZZ=           -137.8399
   XY=             66.8890   XZ=            -59.6253   YZ=            -24.1364

 Normal termination of Gaussian 16 at Wed Jun  1 02:03:06 2022.
