 Gaussian 16, Revision C.01,
 Gaussian 16:  ES64L-G16RevC.01  3-Jul-2019

 ----------------------------------------------------------------------
 # B3LYP/6-31G* empiricaldispersion=gd3 guess=read geom=check nosymm in
 tegral(ultrafinegrid)
 ----------------------------------------------------------------------

 ------------------------------------------------------
 Candidate Structure: Conf:304 Charge calc in gas phase
 ------------------------------------------------------
 Structure from the checkpoint file:  "conf-304.chk"
 Charge =  1 Multiplicity = 1

                          Input orientation:
 ---------------------------------------------------------------------
 Center     Atomic      Atomic             Coordinates (Angstroms)
 Number     Number       Type             X           Y           Z
 ---------------------------------------------------------------------
      1          7           0       -2.149470    1.987068   -4.070191
      2          1           0       -2.742475    1.767288   -4.869020
      3          1           0       -2.638559    2.694537   -3.521555
      4          6           0       -1.972357    0.777264   -3.248706
      5          1           0       -2.939986    0.321103   -2.983475
      6          6           0       -1.283333    1.181749   -1.932771
      7          6           0       -1.156938   -0.272145   -4.035477
      8          1           0       -1.606748   -0.346546   -5.032598
      9          1           0       -1.277504   -1.261050   -3.580762
     10          8           0       -0.942829    2.345902   -1.698967
     11          6           0        0.352725    0.064559   -4.145567
     12          1           0        0.493817    1.142734   -4.066711
     13          1           0        0.921388   -0.395297   -3.336200
     14          6           0        0.901670   -0.396233   -5.470347
     15          8           0        1.525881   -1.399371   -5.696655
     16          8           0        0.551478    0.483690   -6.478390
     17          7           0       -1.083001    0.187177   -1.041525
     18          1           0       -1.284954   -0.768655   -1.302320
     19          6           0       -0.312484    0.413718    0.177455
     20          1           0       -0.848309    1.156217    0.777344
     21          6           0        1.083572    0.947324   -0.195878
     22          6           0       -0.172625   -0.911103    0.947866
     23          1           0        0.355964   -1.616807    0.292815
     24          1           0       -1.180142   -1.313946    1.123520
     25          8           0        1.733018    0.456603   -1.115591
     26          6           0        0.572468   -0.817035    2.294462
     27          1           0        1.567185   -0.388339    2.112020
     28          6           0       -0.154122    0.082011    3.305614
     29          1           0       -1.169447   -0.286673    3.498611
     30          1           0        0.382549    0.097060    4.259853
     31          1           0       -0.235941    1.122116    2.969058
     32          6           0        0.764234   -2.227840    2.870065
     33          1           0       -0.203566   -2.702658    3.075428
     34          1           0        1.315675   -2.872305    2.176014
     35          1           0        1.322787   -2.191950    3.811428
     36          7           0        1.538046    1.957573    0.588214
     37          1           0        0.949563    2.296513    1.336116
     38          6           0        2.889610    2.486789    0.500770
     39          1           0        3.501528    1.706545    0.030435
     40          6           0        3.501793    2.735945    1.879863
     41          6           0        2.966071    3.765309   -0.361553
     42          1           0        3.939903    4.237911   -0.200215
     43          1           0        2.200263    4.467286   -0.004413
     44          8           0        4.520371    3.360869    2.051006
     45          6           0        2.754367    3.447959   -1.845451
     46          1           0        3.627485    2.906334   -2.231174
     47          1           0        1.907478    2.766336   -1.958588
     48          6           0        2.523116    4.701115   -2.699471
     49          1           0        3.356548    5.403683   -2.613911
     50          1           0        1.624920    5.243918   -2.384115
     51          7           0        2.391404    4.375540   -4.129674
     52          1           0        3.256022    4.313213   -4.650653
     53          7           0        0.211576    3.569022   -3.963743
     54          1           0       -0.599902    3.028978   -4.321531
     55          1           0        0.200392    3.597313   -2.950719
     56          7           0        1.368799    3.335691   -5.947600
     57          1           0        0.806069    2.535760   -6.228836
     58          1           0        2.204135    3.492148   -6.493452
     59          6           0        1.327995    3.744742   -4.660324
     60          8           0        2.789700    2.170783    2.883197
     61          1           0        3.266951    2.367236    3.712620
     62          1           0        0.866016    0.082273   -7.311721
 ---------------------------------------------------------------------

 SCF Done:  E(RB3LYP) =  -1447.51503996     A.U. after    3 cycles

 Alpha  occ. eigenvalues --  -19.30848 -19.29819 -19.24600 -19.23891 -19.23648
 Alpha  occ. eigenvalues --  -19.21811 -14.51127 -14.49984 -14.48330 -14.47757
 Alpha  occ. eigenvalues --  -14.46662 -14.45582 -10.46535 -10.42620 -10.42048
 Alpha  occ. eigenvalues --  -10.40678 -10.38988 -10.35333 -10.35118 -10.34395
 Alpha  occ. eigenvalues --  -10.33921 -10.31628 -10.30290 -10.29843 -10.29601
 Alpha  occ. eigenvalues --  -10.28681 -10.27801 -10.25866 -10.25054  -1.20872
 Alpha  occ. eigenvalues --   -1.20480  -1.15792  -1.15068  -1.13647  -1.12219
 Alpha  occ. eigenvalues --   -1.11517  -1.04749  -1.04129  -1.03293  -1.02768
 Alpha  occ. eigenvalues --   -1.01864  -0.91791  -0.90989  -0.90173  -0.86874
 Alpha  occ. eigenvalues --   -0.84985  -0.82182  -0.80551  -0.76945  -0.76604
 Alpha  occ. eigenvalues --   -0.75798  -0.74446  -0.72872  -0.72214  -0.71159
 Alpha  occ. eigenvalues --   -0.70032  -0.69873  -0.68839  -0.68672  -0.64772
 Alpha  occ. eigenvalues --   -0.64150  -0.63901  -0.62861  -0.62278  -0.61053
 Alpha  occ. eigenvalues --   -0.60483  -0.59986  -0.59720  -0.58597  -0.58487
 Alpha  occ. eigenvalues --   -0.58060  -0.57961  -0.57267  -0.56196  -0.55923
 Alpha  occ. eigenvalues --   -0.55485  -0.54953  -0.54403  -0.54013  -0.53313
 Alpha  occ. eigenvalues --   -0.52192  -0.51826  -0.51541  -0.51245  -0.50504
 Alpha  occ. eigenvalues --   -0.50377  -0.49416  -0.49228  -0.48712  -0.48179
 Alpha  occ. eigenvalues --   -0.47533  -0.46950  -0.46573  -0.46329  -0.46218
 Alpha  occ. eigenvalues --   -0.45737  -0.44991  -0.44568  -0.42871  -0.41788
 Alpha  occ. eigenvalues --   -0.41698  -0.41283  -0.41058  -0.40974  -0.39633
 Alpha  occ. eigenvalues --   -0.38995  -0.38245  -0.37988  -0.37576  -0.37362
 Alpha  occ. eigenvalues --   -0.35498  -0.35018
 Alpha virt. eigenvalues --   -0.11259  -0.10620  -0.09202  -0.08990  -0.07919
 Alpha virt. eigenvalues --   -0.06934  -0.04975  -0.03491  -0.03408  -0.02462
 Alpha virt. eigenvalues --   -0.01725  -0.01403  -0.00685   0.00740   0.01250

 Mulliken charges:
               1
     1  N   -0.759479
     2  H    0.333358
     3  H    0.341796
     4  C   -0.091331
     5  H    0.172706
     6  C    0.651663
     7  C   -0.284346
     8  H    0.174535
     9  H    0.170677
    10  O   -0.565385
    11  C   -0.353231
    12  H    0.159605
    13  H    0.227494
    14  C    0.554237
    15  O   -0.414145
    16  O   -0.600291
    17  N   -0.607800
    18  H    0.346705
    19  C   -0.021170
    20  H    0.167744
    21  C    0.646075
    22  C   -0.307166
    23  H    0.162337
    24  H    0.153864
    25  O   -0.547521
    26  C   -0.092793
    27  H    0.147521
    28  C   -0.444728
    29  H    0.153467
    30  H    0.161346
    31  H    0.124092
    32  C   -0.446732
    33  H    0.150166
    34  H    0.153188
    35  H    0.158402
    36  N   -0.596835
    37  H    0.352027
    38  C   -0.065157
    39  H    0.218711
    40  C    0.589287
    41  C   -0.266433
    42  H    0.190939
    43  H    0.149617
    44  O   -0.439396
    45  C   -0.291464
    46  H    0.159335
    47  H    0.179972
    48  C   -0.184691
    49  H    0.191562
    50  H    0.188560
    51  N   -0.587589
    52  H    0.354444
    53  N   -0.786288
    54  H    0.413682
    55  H    0.401090
    56  N   -0.776157
    57  H    0.399101
    58  H    0.361040
    59  C    0.785885
    60  O   -0.570805
    61  H    0.430184
    62  H    0.424517
 Sum of Mulliken charges =   1.00000

 Dipole moment (field-independent basis, Debye):
    X=              1.3265    Y=             11.0119    Z=            -13.8242  Tot=             17.7238
 Quadrupole moment (field-independent basis, Debye-Ang):
   XX=           -147.5145   YY=           -132.5716   ZZ=            -60.8844
   XY=             25.5777   XZ=             -7.2327   YZ=            -47.4754

 Normal termination of Gaussian 16 at Wed Jun  1 02:03:17 2022.
