 Gaussian 16, Revision C.01,
 Gaussian 16:  ES64L-G16RevC.01  3-Jul-2019

 ----------------------------------------------------------------------
 # B3LYP/6-31G* empiricaldispersion=gd3 guess=read geom=check nosymm in
 tegral(ultrafinegrid)
 ----------------------------------------------------------------------

 ------------------------------------------------------
 Candidate Structure: Conf:797 Charge calc in gas phase
 ------------------------------------------------------
 Structure from the checkpoint file:  "conf-797.chk"
 Charge =  1 Multiplicity = 1

                          Input orientation:
 ---------------------------------------------------------------------
 Center     Atomic      Atomic             Coordinates (Angstroms)
 Number     Number       Type             X           Y           Z
 ---------------------------------------------------------------------
      1          7           0       -2.325936    0.092127   -4.666902
      2          1           0       -3.306660    0.182466   -4.406260
      3          1           0       -1.960655    1.045339   -4.652743
      4          6           0       -1.619685   -0.669966   -3.641837
      5          1           0       -2.237470   -1.530906   -3.358250
      6          6           0       -1.300558    0.163905   -2.386781
      7          6           0       -0.278173   -1.214552   -4.193271
      8          1           0       -0.498025   -1.917496   -5.001646
      9          1           0        0.253121   -1.768023   -3.411039
     10          8           0       -1.177561    1.385204   -2.433715
     11          6           0        0.629586   -0.092760   -4.708182
     12          1           0        0.275353    0.286213   -5.674891
     13          1           0        0.618486    0.764931   -4.026747
     14          6           0        2.060365   -0.535368   -4.864613
     15          8           0        2.495174   -1.657238   -4.807839
     16          8           0        2.891284    0.549731   -5.072511
     17          7           0       -1.083075   -0.544093   -1.231988
     18          1           0       -0.947451   -1.543375   -1.330059
     19          6           0       -0.336150    0.078356   -0.148256
     20          1           0       -0.752477    1.078269   -0.009307
     21          6           0        1.146798    0.162728   -0.548911
     22          6           0       -0.487274   -0.761246    1.133862
     23          1           0       -0.096339   -1.766659    0.923549
     24          1           0       -1.561858   -0.868489    1.330391
     25          8           0        1.710139   -0.777250   -1.102910
     26          6           0        0.208793   -0.206997    2.391178
     27          1           0        1.283642   -0.113887    2.176793
     28          6           0       -0.320425    1.178599    2.788969
     29          1           0       -1.403880    1.147284    2.958462
     30          1           0        0.151323    1.524730    3.715428
     31          1           0       -0.126783    1.936181    2.021320
     32          6           0        0.043312   -1.200350    3.550745
     33          1           0       -1.015647   -1.325270    3.808954
     34          1           0        0.442484   -2.188351    3.292453
     35          1           0        0.563809   -0.848199    4.448656
     36          7           0        1.817449    1.297840   -0.184219
     37          1           0        1.271781    2.134804   -0.030327
     38          6           0        3.230110    1.455884   -0.519295
     39          1           0        3.491937    2.490182   -0.263407
     40          6           0        3.478476    1.304576   -2.033751
     41          6           0        4.108872    0.482113    0.287271
     42          1           0        3.948260   -0.517490   -0.125460
     43          1           0        3.745089    0.478157    1.321076
     44          8           0        4.428998    0.715330   -2.514840
     45          6           0        5.601778    0.838230    0.257982
     46          1           0        5.899119    1.031115   -0.777339
     47          1           0        5.796690    1.741436    0.851382
     48          6           0        6.439309   -0.319916    0.798425
     49          1           0        6.234235   -1.222015    0.207267
     50          1           0        6.197907   -0.522769    1.848573
     51          7           0        7.876876    0.007211    0.710194
     52          1           0        8.130843    0.764038    0.086645
     53          7           0        8.608036   -1.887467    1.829930
     54          1           0        9.292621   -2.344290    2.415687
     55          1           0        7.724159   -2.357166    1.696045
     56          7           0       10.123913   -0.238920    1.241332
     57          1           0       10.911483   -0.847310    1.415397
     58          1           0       10.327879    0.716448    0.983877
     59          6           0        8.862891   -0.706026    1.250086
     60          8           0        2.553782    1.948753   -2.745181
     61          1           0        2.707580    1.726692   -3.697119
     62          1           0        3.806631    0.210020   -5.031219
 ---------------------------------------------------------------------

 SCF Done:  E(RB3LYP) =  -1447.48271512     A.U. after    2 cycles

 Alpha  occ. eigenvalues --  -19.26821 -19.26807 -19.22415 -19.20697 -19.20422
 Alpha  occ. eigenvalues --  -19.18460 -14.55006 -14.54807 -14.54757 -14.45259
 Alpha  occ. eigenvalues --  -14.42678 -14.36741 -10.51245 -10.40640 -10.38626
 Alpha  occ. eigenvalues --  -10.37725 -10.37020 -10.34733 -10.33895 -10.31358
 Alpha  occ. eigenvalues --  -10.30744 -10.29382 -10.28358 -10.26636 -10.26352
 Alpha  occ. eigenvalues --  -10.25790 -10.24725 -10.24696 -10.24367  -1.19640
 Alpha  occ. eigenvalues --   -1.18687  -1.16822  -1.12422  -1.10122  -1.09653
 Alpha  occ. eigenvalues --   -1.08762  -1.08260  -1.07843  -1.01601  -0.99373
 Alpha  occ. eigenvalues --   -0.94426  -0.92923  -0.88793  -0.87052  -0.85152
 Alpha  occ. eigenvalues --   -0.82936  -0.81719  -0.79541  -0.77293  -0.77146
 Alpha  occ. eigenvalues --   -0.75485  -0.73951  -0.72937  -0.72369  -0.70658
 Alpha  occ. eigenvalues --   -0.68467  -0.68387  -0.67665  -0.65973  -0.65343
 Alpha  occ. eigenvalues --   -0.63950  -0.63685  -0.63175  -0.61654  -0.60994
 Alpha  occ. eigenvalues --   -0.60058  -0.58401  -0.57756  -0.57065  -0.56545
 Alpha  occ. eigenvalues --   -0.56000  -0.54884  -0.54811  -0.53955  -0.53546
 Alpha  occ. eigenvalues --   -0.52624  -0.52320  -0.52070  -0.50806  -0.50404
 Alpha  occ. eigenvalues --   -0.50315  -0.49966  -0.48529  -0.48385  -0.47817
 Alpha  occ. eigenvalues --   -0.47539  -0.46963  -0.46525  -0.46044  -0.45884
 Alpha  occ. eigenvalues --   -0.45847  -0.45354  -0.44939  -0.44609  -0.44281
 Alpha  occ. eigenvalues --   -0.43485  -0.43313  -0.41883  -0.41171  -0.40491
 Alpha  occ. eigenvalues --   -0.40185  -0.39987  -0.39830  -0.39590  -0.38951
 Alpha  occ. eigenvalues --   -0.37307  -0.34657  -0.34212  -0.33858  -0.32841
 Alpha  occ. eigenvalues --   -0.31859  -0.29315
 Alpha virt. eigenvalues --   -0.15003  -0.10829  -0.08207  -0.07065  -0.06549
 Alpha virt. eigenvalues --   -0.06147  -0.05537  -0.05518  -0.04646  -0.02429
 Alpha virt. eigenvalues --   -0.01987  -0.00982   0.00824   0.00875   0.01360

 Mulliken charges:
               1
     1  N   -0.700864
     2  H    0.309479
     3  H    0.317517
     4  C   -0.100411
     5  H    0.146788
     6  C    0.597000
     7  C   -0.252569
     8  H    0.175536
     9  H    0.164631
    10  O   -0.528870
    11  C   -0.392983
    12  H    0.205215
    13  H    0.194618
    14  C    0.598534
    15  O   -0.437898
    16  O   -0.612215
    17  N   -0.583523
    18  H    0.337134
    19  C   -0.060447
    20  H    0.175833
    21  C    0.630593
    22  C   -0.277891
    23  H    0.146026
    24  H    0.162066
    25  O   -0.535550
    26  C   -0.086027
    27  H    0.124144
    28  C   -0.445513
    29  H    0.158381
    30  H    0.150347
    31  H    0.126952
    32  C   -0.444149
    33  H    0.154911
    34  H    0.143714
    35  H    0.145260
    36  N   -0.597071
    37  H    0.354758
    38  C   -0.049069
    39  H    0.173856
    40  C    0.626556
    41  C   -0.276486
    42  H    0.199557
    43  H    0.158660
    44  O   -0.500269
    45  C   -0.325429
    46  H    0.194610
    47  H    0.157134
    48  C   -0.147660
    49  H    0.196511
    50  H    0.186484
    51  N   -0.609169
    52  H    0.370939
    53  N   -0.755731
    54  H    0.389616
    55  H    0.398496
    56  N   -0.762386
    57  H    0.388994
    58  H    0.388809
    59  C    0.840874
    60  O   -0.586034
    61  H    0.454221
    62  H    0.423466
 Sum of Mulliken charges =   1.00000

 Dipole moment (field-independent basis, Debye):
    X=             36.2495    Y=             -1.2162    Z=              7.9583  Tot=             37.1327
 Quadrupole moment (field-independent basis, Debye-Ang):
   XX=            181.6139   YY=           -158.3650   ZZ=           -163.6185
   XY=            -14.4032   XZ=             54.8861   YZ=            -14.6332

 Normal termination of Gaussian 16 at Wed Jun  1 02:03:06 2022.
