 Gaussian 16, Revision C.01,
 Gaussian 16:  ES64L-G16RevC.01  3-Jul-2019

 ----------------------------------------------------------------------
 # B3LYP/6-31G* empiricaldispersion=gd3 guess=read geom=check nosymm in
 tegral(ultrafinegrid)
 ----------------------------------------------------------------------

 ------------------------------------------------------
 Candidate Structure: Conf:474 Charge calc in gas phase
 ------------------------------------------------------
 Structure from the checkpoint file:  "conf-474.chk"
 Charge =  1 Multiplicity = 1

                          Input orientation:
 ---------------------------------------------------------------------
 Center     Atomic      Atomic             Coordinates (Angstroms)
 Number     Number       Type             X           Y           Z
 ---------------------------------------------------------------------
      1          7           0       -1.422920   -2.606042   -2.602115
      2          1           0       -2.405571   -2.383444   -2.753287
      3          1           0       -1.243731   -3.504209   -3.042928
      4          6           0       -0.560658   -1.554557   -3.147667
      5          1           0        0.462525   -1.957294   -3.146413
      6          6           0       -0.447992   -0.372413   -2.172476
      7          6           0       -0.888566   -1.061789   -4.568968
      8          1           0       -0.370350   -0.115374   -4.739010
      9          1           0       -1.964171   -0.858487   -4.639452
     10          8           0       -0.008275    0.719715   -2.538067
     11          6           0       -0.495820   -2.068736   -5.649777
     12          1           0       -0.908345   -3.067174   -5.461332
     13          1           0       -0.890807   -1.769919   -6.630241
     14          6           0        1.000703   -2.201134   -5.815637
     15          8           0        1.830868   -1.417155   -5.377753
     16          8           0        1.334817   -3.286890   -6.527509
     17          7           0       -0.772585   -0.649139   -0.887419
     18          1           0       -0.965602   -1.627235   -0.695018
     19          6           0       -0.273525    0.208622    0.174479
     20          1           0       -0.717653    1.201778    0.051296
     21          6           0        1.255480    0.324833    0.017392
     22          6           0       -0.618538   -0.367485    1.556322
     23          1           0       -0.200712    0.306720    2.316396
     24          1           0       -0.090665   -1.324600    1.666251
     25          8           0        1.933810   -0.632215   -0.352771
     26          6           0       -2.122819   -0.564339    1.830044
     27          1           0       -2.518120   -1.271012    1.085912
     28          6           0       -2.313335   -1.187717    3.220322
     29          1           0       -1.948055   -0.511731    4.003905
     30          1           0       -3.372277   -1.385659    3.418824
     31          1           0       -1.769519   -2.135014    3.314522
     32          6           0       -2.912330    0.745674    1.703045
     33          1           0       -2.516365    1.508106    2.386731
     34          1           0       -2.879560    1.149987    0.685196
     35          1           0       -3.965760    0.587983    1.958442
     36          7           0        1.788479    1.542791    0.300458
     37          1           0        1.208837    2.284758    0.671422
     38          6           0        3.197185    1.818878    0.128234
     39          1           0        3.702272    0.851486    0.064273
     40          6           0        3.716314    2.569320    1.347448
     41          6           0        3.494535    2.663545   -1.145167
     42          1           0        4.585226    2.719100   -1.264992
     43          1           0        3.166190    3.694343   -0.961324
     44          8           0        3.017448    3.134084    2.156048
     45          6           0        2.795876    2.179149   -2.425706
     46          1           0        1.714011    2.178161   -2.273064
     47          1           0        3.010546    2.896772   -3.227757
     48          6           0        3.147729    0.768236   -2.911097
     49          1           0        2.547101    0.527164   -3.788635
     50          1           0        2.924747    0.018586   -2.148439
     51          7           0        4.582316    0.659620   -3.261482
     52          1           0        5.233208    0.875632   -2.516744
     53          7           0        4.414640   -0.217466   -5.420208
     54          1           0        4.747168   -0.146273   -6.371108
     55          1           0        3.496894   -0.646207   -5.280868
     56          7           0        6.418449    0.652959   -4.674510
     57          1           0        6.946025    0.134819   -5.362206
     58          1           0        6.939143    1.250980   -4.049696
     59          6           0        5.117262    0.361997   -4.440985
     60          8           0        5.066706    2.572348    1.377205
     61          1           0        5.336255    3.099452    2.154235
     62          1           0        2.306035   -3.313956   -6.615677
 ---------------------------------------------------------------------

 SCF Done:  E(RB3LYP) =  -1447.50795090     A.U. after    3 cycles

 Alpha  occ. eigenvalues --  -19.31416 -19.29073 -19.26691 -19.23360 -19.20236
 Alpha  occ. eigenvalues --  -19.19849 -14.51834 -14.51678 -14.50633 -14.45191
 Alpha  occ. eigenvalues --  -14.43390 -14.41630 -10.47882 -10.44378 -10.41369
 Alpha  occ. eigenvalues --  -10.37366 -10.36519 -10.33448 -10.33039 -10.31378
 Alpha  occ. eigenvalues --  -10.31349 -10.30429 -10.29653 -10.28432 -10.27841
 Alpha  occ. eigenvalues --  -10.26553 -10.26078 -10.23861 -10.23574  -1.22631
 Alpha  occ. eigenvalues --   -1.19886  -1.16180  -1.13621  -1.12723  -1.11281
 Alpha  occ. eigenvalues --   -1.10988  -1.05463  -1.04152  -1.01865  -1.00800
 Alpha  occ. eigenvalues --   -0.98123  -0.90453  -0.89300  -0.88355  -0.86011
 Alpha  occ. eigenvalues --   -0.82781  -0.80809  -0.80186  -0.77663  -0.75110
 Alpha  occ. eigenvalues --   -0.74651  -0.73606  -0.73260  -0.72064  -0.70256
 Alpha  occ. eigenvalues --   -0.68985  -0.67972  -0.67783  -0.65974  -0.65529
 Alpha  occ. eigenvalues --   -0.64805  -0.63468  -0.61650  -0.61200  -0.60521
 Alpha  occ. eigenvalues --   -0.60115  -0.59497  -0.58629  -0.58317  -0.57632
 Alpha  occ. eigenvalues --   -0.56636  -0.56513  -0.56030  -0.55684  -0.54215
 Alpha  occ. eigenvalues --   -0.53874  -0.53359  -0.52617  -0.52594  -0.51883
 Alpha  occ. eigenvalues --   -0.51140  -0.50805  -0.49755  -0.49691  -0.49510
 Alpha  occ. eigenvalues --   -0.48686  -0.47881  -0.47713  -0.46806  -0.46224
 Alpha  occ. eigenvalues --   -0.45617  -0.45175  -0.45016  -0.44766  -0.44387
 Alpha  occ. eigenvalues --   -0.43993  -0.43981  -0.43226  -0.42683  -0.42382
 Alpha  occ. eigenvalues --   -0.41093  -0.40192  -0.39931  -0.39551  -0.39462
 Alpha  occ. eigenvalues --   -0.39207  -0.37051  -0.35483  -0.34803  -0.34562
 Alpha  occ. eigenvalues --   -0.33362  -0.32298
 Alpha virt. eigenvalues --   -0.12132  -0.11065  -0.08508  -0.08097  -0.07279
 Alpha virt. eigenvalues --   -0.05666  -0.04442  -0.04101  -0.03058  -0.01552
 Alpha virt. eigenvalues --   -0.01028  -0.00523  -0.00065   0.01354   0.01856

 Mulliken charges:
               1
     1  N   -0.741410
     2  H    0.317479
     3  H    0.319569
     4  C   -0.088716
     5  H    0.179438
     6  C    0.635647
     7  C   -0.269706
     8  H    0.190066
     9  H    0.152164
    10  O   -0.555383
    11  C   -0.367667
    12  H    0.179972
    13  H    0.207905
    14  C    0.591564
    15  O   -0.492062
    16  O   -0.530705
    17  N   -0.594060
    18  H    0.366641
    19  C   -0.035857
    20  H    0.165281
    21  C    0.640732
    22  C   -0.296678
    23  H    0.152235
    24  H    0.157848
    25  O   -0.549334
    26  C   -0.073066
    27  H    0.129662
    28  C   -0.444658
    29  H    0.148979
    30  H    0.155460
    31  H    0.146949
    32  C   -0.454846
    33  H    0.145071
    34  H    0.149332
    35  H    0.158483
    36  N   -0.595651
    37  H    0.350309
    38  C   -0.049342
    39  H    0.194338
    40  C    0.591436
    41  C   -0.295015
    42  H    0.136834
    43  H    0.171185
    44  O   -0.449163
    45  C   -0.287565
    46  H    0.224569
    47  H    0.147863
    48  C   -0.213562
    49  H    0.198825
    50  H    0.237584
    51  N   -0.590910
    52  H    0.359091
    53  N   -0.789161
    54  H    0.367846
    55  H    0.433143
    56  N   -0.762459
    57  H    0.377650
    58  H    0.375984
    59  C    0.798111
    60  O   -0.571191
    61  H    0.427280
    62  H    0.415645
 Sum of Mulliken charges =   1.00000

 Dipole moment (field-independent basis, Debye):
    X=             17.2850    Y=             -0.8851    Z=            -18.7789  Tot=             25.5383
 Quadrupole moment (field-independent basis, Debye-Ang):
   XX=            -40.7838   YY=           -152.3801   ZZ=            -56.6707
   XY=             21.5512   XZ=            -78.4012   YZ=             20.5633

 Normal termination of Gaussian 16 at Wed Jun  1 02:03:15 2022.
