 Gaussian 16, Revision C.01,
 Gaussian 16:  ES64L-G16RevC.01  3-Jul-2019

 ----------------------------------------------------------------------
 # B3LYP/6-31G* empiricaldispersion=gd3 guess=read geom=check nosymm in
 tegral(ultrafinegrid)
 ----------------------------------------------------------------------

 ------------------------------------------------------
 Candidate Structure: Conf:472 Charge calc in gas phase
 ------------------------------------------------------
 Structure from the checkpoint file:  "conf-472.chk"
 Charge =  1 Multiplicity = 1

                          Input orientation:
 ---------------------------------------------------------------------
 Center     Atomic      Atomic             Coordinates (Angstroms)
 Number     Number       Type             X           Y           Z
 ---------------------------------------------------------------------
      1          7           0       -1.649864    1.102588   -4.333349
      2          1           0       -2.635508    0.979184   -4.109856
      3          1           0       -1.426480    2.061997   -4.064738
      4          6           0       -0.838658    0.207379   -3.523526
      5          1           0       -1.310856   -0.784152   -3.516419
      6          6           0       -0.646050    0.704556   -2.075603
      7          6           0        0.578136    0.075065   -4.129696
      8          1           0        1.178983   -0.592876   -3.503852
      9          1           0        1.064473    1.058854   -4.087169
     10          8           0       -0.768597    1.897958   -1.795153
     11          6           0        0.558628   -0.423427   -5.573535
     12          1           0        0.085880   -1.414151   -5.641984
     13          1           0       -0.045704    0.235944   -6.202130
     14          6           0        1.941050   -0.554879   -6.159136
     15          8           0        2.982259   -0.645293   -5.511990
     16          8           0        1.933636   -0.581790   -7.491402
     17          7           0       -0.236196   -0.224974   -1.171403
     18          1           0       -0.104224   -1.181254   -1.472961
     19          6           0        0.242743    0.131003    0.170052
     20          1           0       -0.439684    0.890638    0.559876
     21          6           0        1.644360    0.754946    0.002391
     22          6           0        0.271639   -1.088543    1.091166
     23          1           0        0.635255   -0.752506    2.070714
     24          1           0        1.029771   -1.788363    0.716560
     25          8           0        2.674123    0.067737    0.048820
     26          6           0       -1.079917   -1.807341    1.269140
     27          1           0       -1.408540   -2.178405    0.286295
     28          6           0       -0.896151   -3.022218    2.190098
     29          1           0       -0.589325   -2.705821    3.194820
     30          1           0       -1.831466   -3.583239    2.289084
     31          1           0       -0.130434   -3.707168    1.806766
     32          6           0       -2.172235   -0.871904    1.806677
     33          1           0       -1.866912   -0.424459    2.761244
     34          1           0       -2.403276   -0.058893    1.109062
     35          1           0       -3.101224   -1.424576    1.982315
     36          7           0        1.627975    2.083646   -0.247817
     37          1           0        0.722750    2.502037   -0.446393
     38          6           0        2.823793    2.816186   -0.618032
     39          1           0        3.646263    2.372661   -0.044307
     40          6           0        2.765226    4.286432   -0.211004
     41          6           0        3.153215    2.688745   -2.126670
     42          1           0        2.493904    3.346806   -2.703596
     43          1           0        2.883797    1.667462   -2.406964
     44          8           0        3.560034    5.104404   -0.615670
     45          6           0        4.632271    2.976512   -2.451078
     46          1           0        4.768115    4.033583   -2.692250
     47          1           0        5.239028    2.828535   -1.551287
     48          6           0        5.216568    2.163608   -3.624207
     49          1           0        6.306179    2.279322   -3.644339
     50          1           0        4.839847    2.562613   -4.570239
     51          7           0        4.869846    0.724847   -3.664511
     52          1           0        4.533190    0.374616   -4.556509
     53          7           0        5.096901    0.145737   -1.388697
     54          1           0        4.431705    0.015260   -0.617670
     55          1           0        5.780710    0.877610   -1.270361
     56          7           0        3.814497   -1.136798   -2.807110
     57          1           0        3.757210   -1.846008   -2.091088
     58          1           0        3.327126   -1.249670   -3.693803
     59          6           0        4.604048   -0.071017   -2.622473
     60          8           0        1.754194    4.565762    0.630661
     61          1           0        1.803178    5.520562    0.833288
     62          1           0        2.848958   -0.715607   -7.806285
 ---------------------------------------------------------------------

 SCF Done:  E(RB3LYP) =  -1447.51506851     A.U. after    2 cycles

 Alpha  occ. eigenvalues --  -19.32363 -19.30278 -19.27786 -19.24372 -19.23946
 Alpha  occ. eigenvalues --  -19.23133 -14.50751 -14.50016 -14.49160 -14.47792
 Alpha  occ. eigenvalues --  -14.47257 -14.41376 -10.46537 -10.45608 -10.42839
 Alpha  occ. eigenvalues --  -10.40394 -10.39625 -10.35819 -10.35513 -10.34018
 Alpha  occ. eigenvalues --  -10.33555 -10.31369 -10.31075 -10.31020 -10.30995
 Alpha  occ. eigenvalues --  -10.28210 -10.27876 -10.25330 -10.25154  -1.23745
 Alpha  occ. eigenvalues --   -1.21192  -1.15608  -1.15226  -1.14559  -1.14431
 Alpha  occ. eigenvalues --   -1.12199  -1.04717  -1.04342  -1.03760  -1.02989
 Alpha  occ. eigenvalues --   -0.99321  -0.92162  -0.90936  -0.90293  -0.87580
 Alpha  occ. eigenvalues --   -0.85007  -0.82471  -0.81279  -0.77161  -0.76417
 Alpha  occ. eigenvalues --   -0.75964  -0.74649  -0.74058  -0.71631  -0.71019
 Alpha  occ. eigenvalues --   -0.70832  -0.69289  -0.69120  -0.68340  -0.65794
 Alpha  occ. eigenvalues --   -0.65073  -0.64550  -0.64130  -0.62805  -0.61913
 Alpha  occ. eigenvalues --   -0.60826  -0.60413  -0.60339  -0.59869  -0.59459
 Alpha  occ. eigenvalues --   -0.58830  -0.58285  -0.57926  -0.56902  -0.55764
 Alpha  occ. eigenvalues --   -0.55068  -0.54647  -0.54495  -0.53404  -0.53216
 Alpha  occ. eigenvalues --   -0.52914  -0.52437  -0.51609  -0.51386  -0.51203
 Alpha  occ. eigenvalues --   -0.49875  -0.49763  -0.49273  -0.48644  -0.48112
 Alpha  occ. eigenvalues --   -0.47808  -0.47246  -0.46968  -0.46602  -0.46193
 Alpha  occ. eigenvalues --   -0.45977  -0.45519  -0.44949  -0.44876  -0.42180
 Alpha  occ. eigenvalues --   -0.41891  -0.41410  -0.41261  -0.41187  -0.41048
 Alpha  occ. eigenvalues --   -0.40008  -0.39329  -0.38689  -0.37408  -0.36802
 Alpha  occ. eigenvalues --   -0.35417  -0.34139
 Alpha virt. eigenvalues --   -0.12589  -0.11939  -0.10376  -0.09669  -0.08579
 Alpha virt. eigenvalues --   -0.05834  -0.04871  -0.03747  -0.03028  -0.02571
 Alpha virt. eigenvalues --   -0.02177  -0.01006  -0.00351   0.00310   0.00996

 Mulliken charges:
               1
     1  N   -0.700828
     2  H    0.322546
     3  H    0.322899
     4  C   -0.088528
     5  H    0.151589
     6  C    0.605730
     7  C   -0.270289
     8  H    0.130809
     9  H    0.158083
    10  O   -0.536604
    11  C   -0.356663
    12  H    0.198117
    13  H    0.233860
    14  C    0.600627
    15  O   -0.521434
    16  O   -0.523177
    17  N   -0.594947
    18  H    0.335693
    19  C   -0.066210
    20  H    0.191962
    21  C    0.641924
    22  C   -0.287498
    23  H    0.163805
    24  H    0.146129
    25  O   -0.578150
    26  C   -0.076242
    27  H    0.115705
    28  C   -0.443930
    29  H    0.154128
    30  H    0.159917
    31  H    0.142035
    32  C   -0.455674
    33  H    0.151913
    34  H    0.149118
    35  H    0.162800
    36  N   -0.593897
    37  H    0.382018
    38  C   -0.056539
    39  H    0.188125
    40  C    0.592841
    41  C   -0.284032
    42  H    0.175318
    43  H    0.161352
    44  O   -0.446269
    45  C   -0.300159
    46  H    0.210069
    47  H    0.144369
    48  C   -0.159908
    49  H    0.194146
    50  H    0.184434
    51  N   -0.603675
    52  H    0.389524
    53  N   -0.754014
    54  H    0.414759
    55  H    0.363962
    56  N   -0.769101
    57  H    0.375750
    58  H    0.407391
    59  C    0.736269
    60  O   -0.553316
    61  H    0.432445
    62  H    0.428919
 Sum of Mulliken charges =   1.00000

 Dipole moment (field-independent basis, Debye):
    X=             12.1037    Y=              0.8978    Z=            -13.1232  Tot=             17.8753
 Quadrupole moment (field-independent basis, Debye-Ang):
   XX=           -107.7870   YY=           -148.0533   ZZ=            -97.3303
   XY=             11.4424   XZ=            -45.9608   YZ=              5.3393

 Normal termination of Gaussian 16 at Wed Jun  1 02:03:07 2022.
