 Gaussian 16, Revision C.01,
 Gaussian 16:  ES64L-G16RevC.01  3-Jul-2019

 ----------------------------------------------------------------------
 # B3LYP/6-31G* empiricaldispersion=gd3 guess=read geom=check nosymm in
 tegral(ultrafinegrid)
 ----------------------------------------------------------------------

 ------------------------------------------------------
 Candidate Structure: Conf:110 Charge calc in gas phase
 ------------------------------------------------------
 Structure from the checkpoint file:  "conf-110.chk"
 Charge =  1 Multiplicity = 1

                          Input orientation:
 ---------------------------------------------------------------------
 Center     Atomic      Atomic             Coordinates (Angstroms)
 Number     Number       Type             X           Y           Z
 ---------------------------------------------------------------------
      1          7           0       -2.489273   -1.165818   -3.601928
      2          1           0       -3.330621   -0.647468   -3.351073
      3          1           0       -2.659497   -1.599727   -4.507661
      4          6           0       -1.362510   -0.236857   -3.684780
      5          1           0       -0.471441   -0.825178   -3.932363
      6          6           0       -1.202498    0.363432   -2.282940
      7          6           0       -1.511443    0.881213   -4.747014
      8          1           0       -2.526822    1.284856   -4.686023
      9          1           0       -1.394128    0.419986   -5.733227
     10          8           0       -1.992646    1.195142   -1.849784
     11          6           0       -0.539593    2.083971   -4.600599
     12          1           0       -0.449577    2.596676   -5.565582
     13          1           0       -0.928715    2.791283   -3.867189
     14          6           0        0.836299    1.658651   -4.157018
     15          8           0        1.498278    0.770735   -4.677406
     16          8           0        1.291850    2.321330   -3.066150
     17          7           0       -0.120962   -0.087079   -1.580753
     18          1           0        0.475665   -0.789395   -1.995315
     19          6           0        0.203550    0.361369   -0.243832
     20          1           0       -0.517528    1.149155   -0.005781
     21          6           0        1.606338    0.975807   -0.258198
     22          6           0        0.103787   -0.778104    0.798086
     23          1           0        0.350174   -0.375432    1.790701
     24          1           0        0.875240   -1.526548    0.567034
     25          8           0        2.385707    0.831013   -1.227808
     26          6           0       -1.278064   -1.457454    0.854823
     27          1           0       -1.497418   -1.853475   -0.146262
     28          6           0       -1.226656   -2.636042    1.837864
     29          1           0       -1.020870   -2.287724    2.858221
     30          1           0       -2.184271   -3.166929    1.855701
     31          1           0       -0.447600   -3.357997    1.564978
     32          6           0       -2.393151   -0.471002    1.232460
     33          1           0       -2.177880    0.012891    2.194935
     34          1           0       -2.532492    0.305392    0.473425
     35          1           0       -3.346963   -0.999078    1.337363
     36          7           0        1.978998    1.697742    0.808315
     37          1           0        1.392223    1.787737    1.631755
     38          6           0        3.280820    2.348266    0.840348
     39          1           0        4.039989    1.604495    0.572874
     40          6           0        3.539779    2.802492    2.268216
     41          6           0        3.367948    3.527798   -0.170123
     42          1           0        3.006184    4.449087    0.298749
     43          1           0        2.663351    3.297585   -0.970553
     44          8           0        2.745833    2.701526    3.175393
     45          6           0        4.774526    3.737972   -0.765858
     46          1           0        5.307509    4.534983   -0.237844
     47          1           0        5.376586    2.830998   -0.634643
     48          6           0        4.726976    4.084940   -2.263854
     49          1           0        5.713601    4.388001   -2.634965
     50          1           0        4.066018    4.936751   -2.444403
     51          7           0        4.212772    2.989738   -3.103896
     52          1           0        3.214408    2.986906   -3.299286
     53          7           0        6.168095    1.724117   -3.026054
     54          1           0        6.715482    0.960729   -3.397260
     55          1           0        6.693214    2.520468   -2.698329
     56          7           0        4.270585    0.865798   -4.041277
     57          1           0        4.762703   -0.002194   -4.198206
     58          1           0        3.257617    0.852008   -4.239463
     59          6           0        4.873290    1.860575   -3.388153
     60          8           0        4.762372    3.353071    2.379413
     61          1           0        4.873627    3.642016    3.306155
     62          1           0        1.789932    1.668448   -2.482727
 ---------------------------------------------------------------------

 SCF Done:  E(RB3LYP) =  -1447.50776598     A.U. after    1 cycles

 Alpha  occ. eigenvalues --  -19.31413 -19.29509 -19.26293 -19.25921 -19.24971
 Alpha  occ. eigenvalues --  -19.20501 -14.52349 -14.51555 -14.50451 -14.48888
 Alpha  occ. eigenvalues --  -14.45705 -14.39873 -10.48159 -10.43966 -10.43771
 Alpha  occ. eigenvalues --  -10.41528 -10.37581 -10.36823 -10.36223 -10.33600
 Alpha  occ. eigenvalues --  -10.31665 -10.31402 -10.31042 -10.29586 -10.28239
 Alpha  occ. eigenvalues --  -10.28176 -10.26445 -10.24093 -10.23690  -1.22383
 Alpha  occ. eigenvalues --   -1.21425  -1.16619  -1.16501  -1.13653  -1.12546
 Alpha  occ. eigenvalues --   -1.12487  -1.06009  -1.05257  -1.04454  -1.02287
 Alpha  occ. eigenvalues --   -0.97263  -0.92985  -0.89799  -0.88614  -0.88029
 Alpha  occ. eigenvalues --   -0.84182  -0.81797  -0.79753  -0.78609  -0.75548
 Alpha  occ. eigenvalues --   -0.75166  -0.74800  -0.74652  -0.73731  -0.71562
 Alpha  occ. eigenvalues --   -0.70750  -0.69792  -0.69247  -0.67548  -0.65092
 Alpha  occ. eigenvalues --   -0.64848  -0.64556  -0.63364  -0.62272  -0.61428
 Alpha  occ. eigenvalues --   -0.60831  -0.60565  -0.59606  -0.59007  -0.58925
 Alpha  occ. eigenvalues --   -0.58439  -0.58343  -0.57605  -0.56638  -0.55853
 Alpha  occ. eigenvalues --   -0.55307  -0.54969  -0.54130  -0.54018  -0.52945
 Alpha  occ. eigenvalues --   -0.52573  -0.51957  -0.51851  -0.50492  -0.49890
 Alpha  occ. eigenvalues --   -0.49346  -0.48746  -0.48458  -0.48050  -0.47666
 Alpha  occ. eigenvalues --   -0.47335  -0.46873  -0.46641  -0.45682  -0.45167
 Alpha  occ. eigenvalues --   -0.44761  -0.44264  -0.43786  -0.43570  -0.43128
 Alpha  occ. eigenvalues --   -0.42581  -0.41145  -0.40488  -0.39893  -0.39869
 Alpha  occ. eigenvalues --   -0.39658  -0.39454  -0.38626  -0.38063  -0.34990
 Alpha  occ. eigenvalues --   -0.34333  -0.31816
 Alpha virt. eigenvalues --   -0.12314  -0.11826  -0.11378  -0.10272  -0.08147
 Alpha virt. eigenvalues --   -0.06561  -0.05250  -0.03417  -0.02832  -0.01982
 Alpha virt. eigenvalues --   -0.01630  -0.01100  -0.00322   0.00413   0.01179

 Mulliken charges:
               1
     1  N   -0.716339
     2  H    0.321481
     3  H    0.314226
     4  C   -0.077155
     5  H    0.148465
     6  C    0.625745
     7  C   -0.265531
     8  H    0.175480
     9  H    0.162020
    10  O   -0.524464
    11  C   -0.367660
    12  H    0.193536
    13  H    0.205419
    14  C    0.589167
    15  O   -0.484718
    16  O   -0.640825
    17  N   -0.598969
    18  H    0.340310
    19  C   -0.084278
    20  H    0.212006
    21  C    0.650602
    22  C   -0.267562
    23  H    0.142369
    24  H    0.141371
    25  O   -0.610586
    26  C   -0.074231
    27  H    0.149818
    28  C   -0.446419
    29  H    0.146273
    30  H    0.161207
    31  H    0.142677
    32  C   -0.474986
    33  H    0.135737
    34  H    0.178811
    35  H    0.160402
    36  N   -0.604478
    37  H    0.373726
    38  C   -0.017915
    39  H    0.200741
    40  C    0.579858
    41  C   -0.286351
    42  H    0.178607
    43  H    0.166061
    44  O   -0.444206
    45  C   -0.266302
    46  H    0.185549
    47  H    0.156413
    48  C   -0.200530
    49  H    0.175861
    50  H    0.202548
    51  N   -0.608536
    52  H    0.387434
    53  N   -0.759389
    54  H    0.377151
    55  H    0.380721
    56  N   -0.795350
    57  H    0.367157
    58  H    0.423464
    59  C    0.819786
    60  O   -0.563091
    61  H    0.436068
    62  H    0.471598
 Sum of Mulliken charges =   1.00000

 Dipole moment (field-independent basis, Debye):
    X=             19.5388    Y=              8.9043    Z=            -10.6107  Tot=             23.9507
 Quadrupole moment (field-independent basis, Debye-Ang):
   XX=            -52.1310   YY=           -133.3089   ZZ=           -114.2725
   XY=             49.8426   XZ=            -33.5242   YZ=            -11.6807

 Normal termination of Gaussian 16 at Wed Jun  1 02:03:08 2022.
