 Gaussian 16, Revision C.01,
 Gaussian 16:  ES64L-G16RevC.01  3-Jul-2019

 ----------------------------------------------------------------------
 # B3LYP/6-31G* empiricaldispersion=gd3 guess=read geom=check nosymm in
 tegral(ultrafinegrid)
 ----------------------------------------------------------------------

 ------------------------------------------------------
 Candidate Structure: Conf:966 Charge calc in gas phase
 ------------------------------------------------------
 Structure from the checkpoint file:  "conf-966.chk"
 Charge =  1 Multiplicity = 1

                          Input orientation:
 ---------------------------------------------------------------------
 Center     Atomic      Atomic             Coordinates (Angstroms)
 Number     Number       Type             X           Y           Z
 ---------------------------------------------------------------------
      1          7           0       -1.818951    0.744730   -4.031083
      2          1           0       -2.698460    0.650859   -3.526555
      3          1           0       -1.540248    1.720882   -3.935999
      4          6           0       -0.790454   -0.099402   -3.417659
      5          1           0       -1.250108   -1.067455   -3.187311
      6          6           0       -0.244998    0.525495   -2.124977
      7          6           0        0.361589   -0.363829   -4.410953
      8          1           0       -0.004455   -1.048598   -5.181774
      9          1           0        1.184067   -0.874928   -3.896809
     10          8           0        0.166222    1.700949   -2.115624
     11          6           0        0.879570    0.907674   -5.087018
     12          1           0        0.112802    1.331898   -5.745698
     13          1           0        1.108647    1.685503   -4.348316
     14          6           0        2.113509    0.650450   -5.907335
     15          8           0        2.713135   -0.387768   -6.027578
     16          8           0        2.555364    1.806315   -6.529023
     17          7           0       -0.246637   -0.251800   -1.021085
     18          1           0       -0.568653   -1.207504   -1.099909
     19          6           0        0.073896    0.233952    0.329383
     20          1           0       -0.287408    1.266463    0.377582
     21          6           0        1.605916    0.262855    0.533823
     22          6           0       -0.610636   -0.625934    1.392962
     23          1           0       -0.348643   -0.201543    2.369687
     24          1           0       -0.158878   -1.625542    1.378075
     25          8           0        2.209552   -0.526240    1.243688
     26          6           0       -2.143945   -0.726180    1.273484
     27          1           0       -2.391593   -1.225046    0.323319
     28          6           0       -2.689144   -1.602929    2.410052
     29          1           0       -2.494433   -1.139265    3.385083
     30          1           0       -3.771743   -1.739772    2.315419
     31          1           0       -2.221396   -2.594157    2.412139
     32          6           0       -2.823000    0.650990    1.268886
     33          1           0       -2.558687    1.218330    2.170432
     34          1           0       -2.538392    1.251666    0.396593
     35          1           0       -3.913037    0.545156    1.251967
     36          7           0        2.218835    1.270893   -0.163073
     37          1           0        1.645466    1.794581   -0.822969
     38          6           0        3.658932    1.417072   -0.143762
     39          1           0        3.981937    0.909522    0.776270
     40          6           0        4.025816    2.879516    0.094010
     41          6           0        4.376745    0.701536   -1.313115
     42          1           0        4.337595   -0.358331   -1.045882
     43          1           0        5.438567    0.977186   -1.297720
     44          8           0        4.853588    3.535556   -0.530248
     45          6           0        3.784237    0.855024   -2.738111
     46          1           0        3.734719   -0.130547   -3.214451
     47          1           0        2.749883    1.214987   -2.691986
     48          6           0        4.592919    1.750089   -3.685623
     49          1           0        4.212583    1.687711   -4.704820
     50          1           0        5.635729    1.421550   -3.726767
     51          7           0        4.615657    3.152963   -3.255181
     52          1           0        5.091903    3.296506   -2.363142
     53          7           0        2.906230    4.010420   -4.613906
     54          1           0        2.125723    4.645251   -4.700547
     55          1           0        2.944174    3.250238   -5.290865
     56          7           0        3.577335    5.138485   -2.706627
     57          1           0        3.185178    6.008793   -3.036564
     58          1           0        4.131138    5.162930   -1.858425
     59          6           0        3.699012    4.080361   -3.535927
     60          8           0        3.360648    3.389953    1.131827
     61          1           0        3.691466    4.294721    1.291859
     62          1           0        3.293832    1.541258   -7.112205
 ---------------------------------------------------------------------

 SCF Done:  E(RB3LYP) =  -1447.50543079     A.U. after    1 cycles

 Alpha  occ. eigenvalues --  -19.32572 -19.32141 -19.28245 -19.25980 -19.23352
 Alpha  occ. eigenvalues --  -19.21554 -14.51586 -14.51470 -14.50913 -14.47819
 Alpha  occ. eigenvalues --  -14.45807 -14.41692 -10.48087 -10.45800 -10.43806
 Alpha  occ. eigenvalues --  -10.39731 -10.38431 -10.35753 -10.35367 -10.33248
 Alpha  occ. eigenvalues --  -10.33045 -10.30911 -10.30734 -10.30558 -10.29270
 Alpha  occ. eigenvalues --  -10.27384 -10.27188 -10.25238 -10.24487  -1.24154
 Alpha  occ. eigenvalues --   -1.22212  -1.16539  -1.14910  -1.14811  -1.13527
 Alpha  occ. eigenvalues --   -1.13372  -1.05826  -1.04572  -1.03790  -1.02929
 Alpha  occ. eigenvalues --   -0.99132  -0.91712  -0.90008  -0.89771  -0.87762
 Alpha  occ. eigenvalues --   -0.84491  -0.82164  -0.81575  -0.78947  -0.76089
 Alpha  occ. eigenvalues --   -0.75337  -0.75040  -0.74226  -0.73670  -0.70924
 Alpha  occ. eigenvalues --   -0.70517  -0.69343  -0.68267  -0.67766  -0.65902
 Alpha  occ. eigenvalues --   -0.64948  -0.64799  -0.64527  -0.62585  -0.62333
 Alpha  occ. eigenvalues --   -0.61475  -0.61219  -0.59871  -0.59644  -0.59511
 Alpha  occ. eigenvalues --   -0.58812  -0.58659  -0.57289  -0.57046  -0.56003
 Alpha  occ. eigenvalues --   -0.55471  -0.55098  -0.54145  -0.53922  -0.52690
 Alpha  occ. eigenvalues --   -0.52523  -0.52126  -0.52001  -0.51474  -0.51007
 Alpha  occ. eigenvalues --   -0.50395  -0.50026  -0.49139  -0.48114  -0.47512
 Alpha  occ. eigenvalues --   -0.46786  -0.46572  -0.46081  -0.45916  -0.45543
 Alpha  occ. eigenvalues --   -0.45403  -0.45241  -0.45099  -0.44257  -0.44176
 Alpha  occ. eigenvalues --   -0.42803  -0.42051  -0.40750  -0.40667  -0.40523
 Alpha  occ. eigenvalues --   -0.40119  -0.39457  -0.38620  -0.37655  -0.35631
 Alpha  occ. eigenvalues --   -0.34325  -0.33591
 Alpha virt. eigenvalues --   -0.13330  -0.12329  -0.10968  -0.09494  -0.07689
 Alpha virt. eigenvalues --   -0.07342  -0.05208  -0.04473  -0.03523  -0.02917
 Alpha virt. eigenvalues --   -0.01805  -0.01320  -0.00243   0.00276   0.00568

 Mulliken charges:
               1
     1  N   -0.701887
     2  H    0.319424
     3  H    0.314364
     4  C   -0.083652
     5  H    0.150239
     6  C    0.624697
     7  C   -0.250182
     8  H    0.185860
     9  H    0.158428
    10  O   -0.579911
    11  C   -0.389693
    12  H    0.213437
    13  H    0.187174
    14  C    0.600545
    15  O   -0.432749
    16  O   -0.610626
    17  N   -0.596679
    18  H    0.350156
    19  C   -0.076018
    20  H    0.186301
    21  C    0.631331
    22  C   -0.290319
    23  H    0.168074
    24  H    0.165871
    25  O   -0.499275
    26  C   -0.078102
    27  H    0.109202
    28  C   -0.444104
    29  H    0.153689
    30  H    0.156143
    31  H    0.151483
    32  C   -0.453456
    33  H    0.152220
    34  H    0.136351
    35  H    0.160523
    36  N   -0.631293
    37  H    0.372539
    38  C   -0.048161
    39  H    0.234982
    40  C    0.591670
    41  C   -0.292474
    42  H    0.193018
    43  H    0.161526
    44  O   -0.524824
    45  C   -0.296171
    46  H    0.189576
    47  H    0.159764
    48  C   -0.193436
    49  H    0.158070
    50  H    0.198891
    51  N   -0.594996
    52  H    0.399507
    53  N   -0.787664
    54  H    0.373579
    55  H    0.422401
    56  N   -0.775279
    57  H    0.373428
    58  H    0.389844
    59  C    0.794760
    60  O   -0.515433
    61  H    0.428302
    62  H    0.429015
 Sum of Mulliken charges =   1.00000

 Dipole moment (field-independent basis, Debye):
    X=             10.6615    Y=             14.7503    Z=            -13.1905  Tot=             22.4773
 Quadrupole moment (field-independent basis, Debye-Ang):
   XX=           -113.6296   YY=            -97.0312   ZZ=           -110.0922
   XY=             54.7674   XZ=            -40.8977   YZ=            -42.4508

 Normal termination of Gaussian 16 at Wed Jun  1 02:12:00 2022.
