 Gaussian 16, Revision C.01,
 Gaussian 16:  ES64L-G16RevC.01  3-Jul-2019

 ----------------------------------------------------------------------
 # B3LYP/6-31G* empiricaldispersion=gd3 guess=read geom=check nosymm in
 tegral(ultrafinegrid)
 ----------------------------------------------------------------------

 ------------------------------------------------------
 Candidate Structure: Conf:669 Charge calc in gas phase
 ------------------------------------------------------
 Structure from the checkpoint file:  "conf-669.chk"
 Charge =  1 Multiplicity = 1

                          Input orientation:
 ---------------------------------------------------------------------
 Center     Atomic      Atomic             Coordinates (Angstroms)
 Number     Number       Type             X           Y           Z
 ---------------------------------------------------------------------
      1          7           0       -2.643155    1.218823   -4.479448
      2          1           0       -3.563086    1.338635   -4.058843
      3          1           0       -2.250804    2.157045   -4.552265
      4          6           0       -1.798448    0.410712   -3.617900
      5          1           0       -2.356107   -0.498079   -3.366898
      6          6           0       -1.413532    1.071014   -2.283450
      7          6           0       -0.494044    0.001026   -4.367435
      8          1           0        0.371758    0.035347   -3.697094
      9          1           0       -0.323045    0.733359   -5.163227
     10          8           0       -1.534457    2.303185   -2.111746
     11          6           0       -0.596524   -1.390510   -4.991205
     12          1           0       -1.504458   -1.477195   -5.602028
     13          1           0        0.241441   -1.592505   -5.668646
     14          6           0       -0.621912   -2.492999   -3.953938
     15          8           0       -0.654316   -2.338209   -2.741502
     16          8           0       -0.610522   -3.708710   -4.516951
     17          7           0       -0.919621    0.226453   -1.366069
     18          1           0       -0.767022   -0.734018   -1.683323
     19          6           0       -0.296192    0.619560   -0.121177
     20          1           0       -0.832959    1.487774    0.273350
     21          6           0        1.175739    1.031388   -0.354845
     22          6           0       -0.372218   -0.550341    0.886536
     23          1           0        0.102216   -0.247082    1.828372
     24          1           0        0.231577   -1.379695    0.492271
     25          8           0        1.754235    0.865132   -1.424951
     26          6           0       -1.800006   -1.050191    1.180228
     27          1           0       -2.229183   -1.421010    0.239507
     28          6           0       -1.736128   -2.223284    2.168742
     29          1           0       -1.326498   -1.900751    3.134402
     30          1           0       -2.734926   -2.633845    2.350938
     31          1           0       -1.103505   -3.033751    1.788646
     32          6           0       -2.706468    0.068681    1.711267
     33          1           0       -2.279743    0.522841    2.615588
     34          1           0       -2.863843    0.861402    0.970219
     35          1           0       -3.692741   -0.326915    1.975489
     36          7           0        1.777082    1.602793    0.735088
     37          1           0        1.262808    1.566681    1.610837
     38          6           0        3.223404    1.546541    0.942185
     39          1           0        3.648851    0.848545    0.212980
     40          6           0        3.449070    0.977772    2.344717
     41          6           0        3.935653    2.910560    0.793163
     42          1           0        4.971269    2.783726    1.120323
     43          1           0        3.474372    3.615733    1.497334
     44          8           0        2.566752    0.817170    3.161828
     45          6           0        3.896983    3.456122   -0.654358
     46          1           0        4.916339    3.599692   -1.029628
     47          1           0        3.442886    2.702070   -1.306408
     48          6           0        3.174945    4.804955   -0.808051
     49          1           0        3.167397    5.125142   -1.855139
     50          1           0        3.695805    5.581805   -0.241938
     51          7           0        1.787416    4.808292   -0.323730
     52          1           0        1.637263    5.039832    0.648162
     53          7           0        0.922874    3.664824   -2.165797
     54          1           0        0.092527    3.202038   -2.539720
     55          1           0        1.789890    3.179640   -2.353532
     56          7           0       -0.474894    4.278812   -0.437660
     57          1           0       -1.189574    3.681626   -0.861922
     58          1           0       -0.723688    4.938651    0.284333
     59          6           0        0.756171    4.241065   -0.965333
     60          8           0        4.743263    0.706391    2.563591
     61          1           0        4.829055    0.363990    3.474701
     62          1           0       -0.638409   -4.370810   -3.799540
 ---------------------------------------------------------------------

 SCF Done:  E(RB3LYP) =  -1447.52292984     A.U. after    1 cycles

 Alpha  occ. eigenvalues --  -19.31229 -19.29194 -19.25927 -19.24464 -19.24043
 Alpha  occ. eigenvalues --  -19.24017 -14.51559 -14.50063 -14.49386 -14.47698
 Alpha  occ. eigenvalues --  -14.46457 -14.40522 -10.46882 -10.43846 -10.42279
 Alpha  occ. eigenvalues --  -10.40673 -10.39695 -10.35960 -10.35785 -10.34526
 Alpha  occ. eigenvalues --  -10.31972 -10.31316 -10.31111 -10.29309 -10.29078
 Alpha  occ. eigenvalues --  -10.28514 -10.27983 -10.26033 -10.25273  -1.22331
 Alpha  occ. eigenvalues --   -1.20494  -1.16086  -1.15467  -1.14647  -1.13514
 Alpha  occ. eigenvalues --   -1.11405  -1.05426  -1.04456  -1.03787  -1.03054
 Alpha  occ. eigenvalues --   -0.98178  -0.92568  -0.90819  -0.88635  -0.87919
 Alpha  occ. eigenvalues --   -0.85068  -0.81339  -0.80147  -0.77549  -0.76895
 Alpha  occ. eigenvalues --   -0.75713  -0.74777  -0.73769  -0.72672  -0.71396
 Alpha  occ. eigenvalues --   -0.69888  -0.69151  -0.68301  -0.67741  -0.65875
 Alpha  occ. eigenvalues --   -0.64385  -0.63949  -0.63360  -0.61683  -0.61115
 Alpha  occ. eigenvalues --   -0.60320  -0.59924  -0.59624  -0.59040  -0.58899
 Alpha  occ. eigenvalues --   -0.58372  -0.58000  -0.57433  -0.56462  -0.56007
 Alpha  occ. eigenvalues --   -0.55384  -0.54807  -0.54136  -0.53855  -0.53412
 Alpha  occ. eigenvalues --   -0.52761  -0.51917  -0.51572  -0.51162  -0.50800
 Alpha  occ. eigenvalues --   -0.50092  -0.49714  -0.49065  -0.48214  -0.47732
 Alpha  occ. eigenvalues --   -0.47435  -0.46840  -0.46636  -0.46533  -0.46021
 Alpha  occ. eigenvalues --   -0.45278  -0.45212  -0.43518  -0.43362  -0.42207
 Alpha  occ. eigenvalues --   -0.41849  -0.41716  -0.41477  -0.41294  -0.40418
 Alpha  occ. eigenvalues --   -0.39515  -0.38536  -0.37919  -0.37846  -0.37695
 Alpha  occ. eigenvalues --   -0.36258  -0.33179
 Alpha virt. eigenvalues --   -0.12233  -0.10811  -0.09824  -0.09464  -0.08945
 Alpha virt. eigenvalues --   -0.07007  -0.03947  -0.02984  -0.02557  -0.01926
 Alpha virt. eigenvalues --   -0.01233  -0.00860   0.00319   0.00824   0.01229

 Mulliken charges:
               1
     1  N   -0.689938
     2  H    0.314063
     3  H    0.305311
     4  C   -0.089696
     5  H    0.172620
     6  C    0.579886
     7  C   -0.283088
     8  H    0.178742
     9  H    0.164412
    10  O   -0.599361
    11  C   -0.365941
    12  H    0.215024
    13  H    0.199357
    14  C    0.598407
    15  O   -0.493907
    16  O   -0.541151
    17  N   -0.581075
    18  H    0.411233
    19  C   -0.079223
    20  H    0.168201
    21  C    0.608012
    22  C   -0.305389
    23  H    0.157997
    24  H    0.161725
    25  O   -0.530201
    26  C   -0.068154
    27  H    0.141611
    28  C   -0.448281
    29  H    0.150748
    30  H    0.160575
    31  H    0.151108
    32  C   -0.457411
    33  H    0.142583
    34  H    0.139586
    35  H    0.167063
    36  N   -0.603584
    37  H    0.356449
    38  C   -0.066264
    39  H    0.212823
    40  C    0.588453
    41  C   -0.270720
    42  H    0.195727
    43  H    0.134994
    44  O   -0.460126
    45  C   -0.300483
    46  H    0.183178
    47  H    0.179805
    48  C   -0.184096
    49  H    0.198020
    50  H    0.192571
    51  N   -0.583279
    52  H    0.355146
    53  N   -0.754071
    54  H    0.399125
    55  H    0.381823
    56  N   -0.788992
    57  H    0.419437
    58  H    0.366070
    59  C    0.782587
    60  O   -0.550471
    61  H    0.435483
    62  H    0.424945
 Sum of Mulliken charges =   1.00000

 Dipole moment (field-independent basis, Debye):
    X=              5.4450    Y=             10.5199    Z=             -1.6183  Tot=             11.9556
 Quadrupole moment (field-independent basis, Debye-Ang):
   XX=           -131.5257   YY=            -96.6314   ZZ=           -147.0200
   XY=             24.1647   XZ=              9.5167   YZ=              7.5215

 Normal termination of Gaussian 16 at Wed Jun  1 02:02:59 2022.
