 Gaussian 16, Revision C.01,
 Gaussian 16:  ES64L-G16RevC.01  3-Jul-2019

 ----------------------------------------------------------------------
 # B3LYP/6-31G* empiricaldispersion=gd3 guess=read geom=check nosymm in
 tegral(ultrafinegrid)
 ----------------------------------------------------------------------

 ------------------------------------------------------
 Candidate Structure: Conf:883 Charge calc in gas phase
 ------------------------------------------------------
 Structure from the checkpoint file:  "conf-883.chk"
 Charge =  1 Multiplicity = 1

                          Input orientation:
 ---------------------------------------------------------------------
 Center     Atomic      Atomic             Coordinates (Angstroms)
 Number     Number       Type             X           Y           Z
 ---------------------------------------------------------------------
      1          7           0       -1.518075   -0.042116   -4.660094
      2          1           0       -2.526010   -0.039556   -4.517575
      3          1           0       -1.219771    0.932094   -4.595248
      4          6           0       -0.858322   -0.784752   -3.595104
      5          1           0       -1.423137   -1.705523   -3.402080
      6          6           0       -0.696294    0.032920   -2.303106
      7          6           0        0.581206   -1.156020   -4.030832
      8          1           0        1.086926   -1.680956   -3.209436
      9          1           0        1.122315   -0.218772   -4.197203
     10          8           0       -0.511156    1.250392   -2.348254
     11          6           0        0.610969   -1.985032   -5.314741
     12          1           0        0.111932   -2.950912   -5.191204
     13          1           0        0.051648   -1.442704   -6.088298
     14          6           0        1.983414   -2.277041   -5.866982
     15          8           0        2.293463   -3.229252   -6.532634
     16          8           0        2.920954   -1.291652   -5.572723
     17          7           0       -0.644210   -0.660002   -1.131980
     18          1           0       -0.651810   -1.671647   -1.161928
     19          6           0       -0.071404   -0.030305    0.058027
     20          1           0       -0.653431    0.871394    0.265309
     21          6           0        1.382632    0.341498   -0.278702
     22          6           0       -0.123565   -0.990462    1.251754
     23          1           0        0.387778   -1.918166    0.962298
     24          1           0       -1.176411   -1.237133    1.440953
     25          8           0        2.205288   -0.536518   -0.558933
     26          6           0        0.523008   -0.451712    2.543120
     27          1           0        1.591215   -0.284673    2.338220
     28          6           0       -0.091847    0.879358    3.001386
     29          1           0       -1.177967    0.787694    3.127481
     30          1           0        0.328926    1.185750    3.964960
     31          1           0        0.101123    1.692882    2.292443
     32          6           0        0.417519   -1.511406    3.649072
     33          1           0       -0.631729   -1.704704    3.904922
     34          1           0        0.868756   -2.461281    3.339745
     35          1           0        0.925724   -1.177749    4.560030
     36          7           0        1.680278    1.669523   -0.268343
     37          1           0        0.907377    2.320110   -0.213514
     38          6           0        2.947983    2.142322   -0.784219
     39          1           0        3.465984    1.234759   -1.062823
     40          6           0        3.869565    2.784975    0.238457
     41          6           0        2.787777    3.058288   -2.026779
     42          1           0        3.695048    3.663447   -2.145507
     43          1           0        1.971661    3.762952   -1.834487
     44          8           0        5.082268    2.667037    0.166286
     45          6           0        2.506243    2.250007   -3.308078
     46          1           0        1.930629    1.360253   -3.043740
     47          1           0        1.859739    2.822506   -3.981814
     48          6           0        3.762284    1.872763   -4.118818
     49          1           0        4.171565    2.757074   -4.613413
     50          1           0        3.504684    1.159847   -4.908188
     51          7           0        4.880296    1.335682   -3.311692
     52          1           0        5.654468    1.958673   -3.118933
     53          7           0        3.988037   -0.770646   -2.840743
     54          1           0        3.501921   -1.209184   -2.061849
     55          1           0        3.528594   -0.819666   -3.749501
     56          7           0        5.600267    0.168727   -1.454602
     57          1           0        5.628769   -0.701761   -0.939672
     58          1           0        5.772741    1.021484   -0.917781
     59          6           0        4.813068    0.239406   -2.544049
     60          8           0        3.240466    3.514112    1.161644
     61          1           0        3.911813    3.907334    1.753910
     62          1           0        3.726095   -1.567799   -6.054098
 ---------------------------------------------------------------------

 SCF Done:  E(RB3LYP) =  -1447.50555072     A.U. after    1 cycles

 Alpha  occ. eigenvalues --  -19.32616 -19.31172 -19.27226 -19.24388 -19.24368
 Alpha  occ. eigenvalues --  -19.22762 -14.52117 -14.50858 -14.50174 -14.48729
 Alpha  occ. eigenvalues --  -14.47251 -14.41210 -10.47463 -10.45100 -10.42590
 Alpha  occ. eigenvalues --  -10.41097 -10.39180 -10.36300 -10.36170 -10.34333
 Alpha  occ. eigenvalues --  -10.33082 -10.32245 -10.31254 -10.30316 -10.29905
 Alpha  occ. eigenvalues --  -10.28825 -10.28325 -10.26121 -10.25485  -1.23615
 Alpha  occ. eigenvalues --   -1.20941  -1.16384  -1.16044  -1.14568  -1.14382
 Alpha  occ. eigenvalues --   -1.12123  -1.05739  -1.05290  -1.03812  -1.03526
 Alpha  occ. eigenvalues --   -0.99012  -0.92995  -0.90968  -0.89687  -0.88351
 Alpha  occ. eigenvalues --   -0.85098  -0.82246  -0.81169  -0.78118  -0.77098
 Alpha  occ. eigenvalues --   -0.75972  -0.74354  -0.74069  -0.73145  -0.72464
 Alpha  occ. eigenvalues --   -0.70879  -0.70131  -0.69177  -0.68689  -0.66366
 Alpha  occ. eigenvalues --   -0.65554  -0.64577  -0.64320  -0.63111  -0.61741
 Alpha  occ. eigenvalues --   -0.61491  -0.60819  -0.60489  -0.59716  -0.58996
 Alpha  occ. eigenvalues --   -0.58639  -0.58440  -0.57386  -0.56538  -0.56105
 Alpha  occ. eigenvalues --   -0.55769  -0.55102  -0.54416  -0.54187  -0.53753
 Alpha  occ. eigenvalues --   -0.52700  -0.52250  -0.51965  -0.51942  -0.51389
 Alpha  occ. eigenvalues --   -0.50686  -0.50560  -0.49366  -0.49133  -0.48254
 Alpha  occ. eigenvalues --   -0.47977  -0.47487  -0.47022  -0.46701  -0.46399
 Alpha  occ. eigenvalues --   -0.45907  -0.45372  -0.44741  -0.44590  -0.43171
 Alpha  occ. eigenvalues --   -0.42587  -0.42089  -0.41765  -0.41648  -0.41447
 Alpha  occ. eigenvalues --   -0.41008  -0.38960  -0.38279  -0.37811  -0.36942
 Alpha  occ. eigenvalues --   -0.35879  -0.33671
 Alpha virt. eigenvalues --   -0.13947  -0.12208  -0.10585  -0.09589  -0.08598
 Alpha virt. eigenvalues --   -0.06866  -0.05023  -0.04193  -0.03695  -0.03128
 Alpha virt. eigenvalues --   -0.02514  -0.01339  -0.00281   0.00406   0.00792

 Mulliken charges:
               1
     1  N   -0.702432
     2  H    0.322292
     3  H    0.319308
     4  C   -0.083789
     5  H    0.152157
     6  C    0.607500
     7  C   -0.290760
     8  H    0.139705
     9  H    0.159084
    10  O   -0.546450
    11  C   -0.351777
    12  H    0.191924
    13  H    0.233048
    14  C    0.584656
    15  O   -0.419193
    16  O   -0.611737
    17  N   -0.596202
    18  H    0.341183
    19  C   -0.030135
    20  H    0.174361
    21  C    0.643105
    22  C   -0.293136
    23  H    0.152075
    24  H    0.162823
    25  O   -0.580986
    26  C   -0.087975
    27  H    0.133435
    28  C   -0.451113
    29  H    0.156255
    30  H    0.162242
    31  H    0.129595
    32  C   -0.446422
    33  H    0.154523
    34  H    0.149413
    35  H    0.158188
    36  N   -0.571109
    37  H    0.360089
    38  C   -0.076102
    39  H    0.186709
    40  C    0.612546
    41  C   -0.285967
    42  H    0.161036
    43  H    0.185044
    44  O   -0.484685
    45  C   -0.290900
    46  H    0.186161
    47  H    0.184181
    48  C   -0.185796
    49  H    0.190171
    50  H    0.198083
    51  N   -0.568179
    52  H    0.369829
    53  N   -0.772436
    54  H    0.401725
    55  H    0.415709
    56  N   -0.733262
    57  H    0.376568
    58  H    0.399322
    59  C    0.686399
    60  O   -0.539726
    61  H    0.436743
    62  H    0.423084
 Sum of Mulliken charges =   1.00000

 Dipole moment (field-independent basis, Debye):
    X=             13.3105    Y=              4.4633    Z=             -7.2873  Tot=             15.8175
 Quadrupole moment (field-independent basis, Debye-Ang):
   XX=            -98.0459   YY=           -149.7913   ZZ=           -133.5454
   XY=             25.2435   XZ=            -28.3680   YZ=            -11.4831

 Normal termination of Gaussian 16 at Wed Jun  1 02:03:02 2022.
