 Gaussian 16, Revision C.01,
 Gaussian 16:  ES64L-G16RevC.01  3-Jul-2019

 ----------------------------------------------------------------------
 # B3LYP/6-31G* empiricaldispersion=gd3 guess=read geom=check nosymm in
 tegral(ultrafinegrid)
 ----------------------------------------------------------------------

 ------------------------------------------------------
 Candidate Structure: Conf:684 Charge calc in gas phase
 ------------------------------------------------------
 Structure from the checkpoint file:  "conf-684.chk"
 Charge =  1 Multiplicity = 1

                          Input orientation:
 ---------------------------------------------------------------------
 Center     Atomic      Atomic             Coordinates (Angstroms)
 Number     Number       Type             X           Y           Z
 ---------------------------------------------------------------------
      1          7           0       -2.462987    1.744850   -4.747417
      2          1           0       -2.894995    1.434748   -5.617687
      3          1           0       -3.064218    2.474531   -4.365912
      4          6           0       -2.424209    0.612171   -3.799627
      5          1           0       -3.437996    0.271535   -3.534976
      6          6           0       -1.768476    1.133479   -2.504820
      7          6           0       -1.665737   -0.581825   -4.413595
      8          1           0       -2.185967   -0.909203   -5.320950
      9          1           0       -1.742268   -1.432078   -3.728228
     10          8           0       -1.731965    2.346383   -2.264905
     11          6           0       -0.193562   -0.254663   -4.708317
     12          1           0       -0.074589    0.179117   -5.704456
     13          1           0        0.153133    0.502772   -3.997230
     14          6           0        0.881200   -1.312780   -4.563395
     15          8           0        2.005074   -1.132447   -4.973214
     16          8           0        0.482907   -2.415905   -3.900080
     17          7           0       -1.280611    0.219088   -1.632687
     18          1           0       -1.164051   -0.737074   -1.943396
     19          6           0       -0.367954    0.620603   -0.559861
     20          1           0       -0.684764    1.611060   -0.228310
     21          6           0        1.053779    0.658510   -1.158188
     22          6           0       -0.434158   -0.398166    0.589919
     23          1           0       -0.179075   -1.382190    0.174830
     24          1           0       -1.475757   -0.449512    0.931510
     25          8           0        1.442846   -0.243200   -1.893500
     26          6           0        0.491347   -0.107100    1.786545
     27          1           0        1.523274   -0.032116    1.417841
     28          6           0        0.143439    1.212011    2.490311
     29          1           0       -0.886910    1.193971    2.866097
     30          1           0        0.808444    1.381437    3.343049
     31          1           0        0.238668    2.085239    1.833111
     32          6           0        0.431586   -1.276828    2.779261
     33          1           0       -0.581149   -1.396265    3.183399
     34          1           0        0.717646   -2.220774    2.302068
     35          1           0        1.108824   -1.108214    3.623292
     36          7           0        1.811983    1.745849   -0.824536
     37          1           0        1.446701    2.345496   -0.096853
     38          6           0        3.255527    1.780500   -1.080833
     39          1           0        3.529956    0.777137   -1.426260
     40          6           0        4.067461    2.039681    0.190371
     41          6           0        3.623635    2.816794   -2.163054
     42          1           0        4.698369    3.011872   -2.116788
     43          1           0        3.121656    3.757419   -1.897076
     44          8           0        5.225667    2.379743    0.183729
     45          6           0        3.214268    2.355496   -3.570861
     46          1           0        3.981599    1.689149   -3.985658
     47          1           0        2.315707    1.737972   -3.527211
     48          6           0        3.001550    3.516594   -4.546235
     49          1           0        2.847615    3.151846   -5.567233
     50          1           0        3.874774    4.173739   -4.577805
     51          7           0        1.856076    4.372630   -4.163103
     52          1           0        2.062592    5.170578   -3.578359
     53          7           0        0.209055    2.874634   -4.823243
     54          1           0       -0.781202    2.507457   -4.840278
     55          1           0        0.879786    2.449323   -5.443946
     56          7           0       -0.331844    4.542518   -3.332672
     57          1           0       -1.108447    3.954047   -3.022566
     58          1           0        0.003621    5.192436   -2.635753
     59          6           0        0.584509    3.916435   -4.099330
     60          8           0        3.351607    1.835502    1.320724
     61          1           0        3.953197    1.999218    2.072309
     62          1           0        1.273091   -2.977985   -3.793441
 ---------------------------------------------------------------------

 SCF Done:  E(RB3LYP) =  -1447.51269780     A.U. after    1 cycles

 Alpha  occ. eigenvalues --  -19.30669 -19.28810 -19.24819 -19.24477 -19.23220
 Alpha  occ. eigenvalues --  -19.22344 -14.51180 -14.49592 -14.49518 -14.48143
 Alpha  occ. eigenvalues --  -14.47976 -14.46281 -10.46719 -10.42836 -10.41558
 Alpha  occ. eigenvalues --  -10.41249 -10.40141 -10.35920 -10.35418 -10.35194
 Alpha  occ. eigenvalues --  -10.34382 -10.31129 -10.30535 -10.30387 -10.30206
 Alpha  occ. eigenvalues --  -10.28711 -10.28110 -10.26482 -10.25405  -1.21337
 Alpha  occ. eigenvalues --   -1.19437  -1.16618  -1.15409  -1.15047  -1.12352
 Alpha  occ. eigenvalues --   -1.10386  -1.04967  -1.04603  -1.04222  -1.03314
 Alpha  occ. eigenvalues --   -1.02345  -0.92180  -0.91206  -0.90194  -0.87378
 Alpha  occ. eigenvalues --   -0.85201  -0.82271  -0.80733  -0.77455  -0.77080
 Alpha  occ. eigenvalues --   -0.75921  -0.74578  -0.73607  -0.72525  -0.71086
 Alpha  occ. eigenvalues --   -0.70718  -0.70238  -0.69744  -0.68028  -0.65815
 Alpha  occ. eigenvalues --   -0.64653  -0.63686  -0.63253  -0.62685  -0.61572
 Alpha  occ. eigenvalues --   -0.61015  -0.60105  -0.59835  -0.59202  -0.58958
 Alpha  occ. eigenvalues --   -0.58117  -0.57578  -0.57243  -0.56738  -0.56179
 Alpha  occ. eigenvalues --   -0.55687  -0.55573  -0.54599  -0.54074  -0.53634
 Alpha  occ. eigenvalues --   -0.52595  -0.52411  -0.51812  -0.51427  -0.50891
 Alpha  occ. eigenvalues --   -0.50649  -0.49807  -0.49331  -0.48927  -0.47789
 Alpha  occ. eigenvalues --   -0.47617  -0.47258  -0.47137  -0.46673  -0.46394
 Alpha  occ. eigenvalues --   -0.46095  -0.45630  -0.45248  -0.42572  -0.42296
 Alpha  occ. eigenvalues --   -0.41744  -0.41380  -0.41210  -0.40440  -0.40078
 Alpha  occ. eigenvalues --   -0.39809  -0.39450  -0.38987  -0.38010  -0.36469
 Alpha  occ. eigenvalues --   -0.36238  -0.36043
 Alpha virt. eigenvalues --   -0.11711  -0.11319  -0.09949  -0.09491  -0.07602
 Alpha virt. eigenvalues --   -0.07141  -0.05314  -0.04613  -0.04548  -0.02117
 Alpha virt. eigenvalues --   -0.01753  -0.01327  -0.00052   0.00387   0.00838

 Mulliken charges:
               1
     1  N   -0.765029
     2  H    0.336988
     3  H    0.343039
     4  C   -0.079750
     5  H    0.186802
     6  C    0.633103
     7  C   -0.311289
     8  H    0.174952
     9  H    0.185779
    10  O   -0.566648
    11  C   -0.387484
    12  H    0.172425
    13  H    0.200498
    14  C    0.624752
    15  O   -0.468108
    16  O   -0.570868
    17  N   -0.585641
    18  H    0.358488
    19  C   -0.078445
    20  H    0.176671
    21  C    0.626354
    22  C   -0.272410
    23  H    0.155122
    24  H    0.162107
    25  O   -0.532904
    26  C   -0.100382
    27  H    0.147404
    28  C   -0.443109
    29  H    0.157394
    30  H    0.159126
    31  H    0.115124
    32  C   -0.446089
    33  H    0.152724
    34  H    0.153146
    35  H    0.156246
    36  N   -0.604725
    37  H    0.349902
    38  C   -0.075186
    39  H    0.232531
    40  C    0.586714
    41  C   -0.260585
    42  H    0.201424
    43  H    0.113221
    44  O   -0.434395
    45  C   -0.290936
    46  H    0.189643
    47  H    0.178694
    48  C   -0.195044
    49  H    0.185315
    50  H    0.196443
    51  N   -0.583478
    52  H    0.353561
    53  N   -0.796677
    54  H    0.450570
    55  H    0.371748
    56  N   -0.762605
    57  H    0.409886
    58  H    0.352666
    59  C    0.771943
    60  O   -0.568514
    61  H    0.431439
    62  H    0.426358
 Sum of Mulliken charges =   1.00000

 Dipole moment (field-independent basis, Debye):
    X=              0.0175    Y=             11.1338    Z=            -12.6513  Tot=             16.8527
 Quadrupole moment (field-independent basis, Debye-Ang):
   XX=           -151.8475   YY=           -114.7064   ZZ=            -97.1849
   XY=             16.2866   XZ=             12.7375   YZ=            -35.6194

 Normal termination of Gaussian 16 at Wed Jun  1 02:03:00 2022.
