 Gaussian 16, Revision C.01,
 Gaussian 16:  ES64L-G16RevC.01  3-Jul-2019

 ----------------------------------------------------------------------
 # B3LYP/6-31G* empiricaldispersion=gd3 guess=read geom=check nosymm in
 tegral(ultrafinegrid)
 ----------------------------------------------------------------------

 ------------------------------------------------------
 Candidate Structure: Conf:746 Charge calc in gas phase
 ------------------------------------------------------
 Structure from the checkpoint file:  "conf-746.chk"
 Charge =  1 Multiplicity = 1

                          Input orientation:
 ---------------------------------------------------------------------
 Center     Atomic      Atomic             Coordinates (Angstroms)
 Number     Number       Type             X           Y           Z
 ---------------------------------------------------------------------
      1          7           0       -2.847725   -1.630963    4.372656
      2          1           0       -2.360675   -2.371495    3.866756
      3          1           0       -2.386911   -1.530871    5.276444
      4          6           0       -2.710204   -0.385931    3.607343
      5          1           0       -3.499289    0.311051    3.925574
      6          6           0       -2.878121   -0.739621    2.120866
      7          6           0       -1.329964    0.354244    3.719882
      8          1           0       -0.984659    0.324394    4.761319
      9          1           0       -0.599674   -0.229649    3.154867
     10          8           0       -2.435865   -1.768436    1.604978
     11          6           0       -1.367881    1.821109    3.236904
     12          1           0       -2.085781    2.393349    3.838410
     13          1           0       -1.688649    1.876046    2.186959
     14          6           0       -0.010289    2.621801    3.194679
     15          8           0        1.016380    1.945285    2.810322
     16          8           0       -0.073763    3.846524    3.418576
     17          7           0       -3.447904    0.264082    1.390722
     18          1           0       -3.593319    1.130283    1.904973
     19          6           0       -3.211620    0.405727   -0.029910
     20          1           0       -3.205162   -0.588475   -0.487046
     21          6           0       -1.814835    1.011838   -0.095180
     22          6           0       -4.301056    1.273905   -0.684359
     23          1           0       -4.304132    2.251293   -0.185191
     24          1           0       -5.267512    0.792698   -0.495754
     25          8           0       -1.568587    2.109267    0.365460
     26          6           0       -4.076046    1.462233   -2.157376
     27          6           0       -3.298726    2.428286   -2.755919
     28          1           0       -2.717921    3.213711   -2.289935
     29          6           0       -4.570980    0.618341   -3.216309
     30          6           0       -4.067341    1.137687   -4.444233
     31          6           0       -5.390049   -0.525747   -3.246278
     32          1           0       -5.785441   -0.944716   -2.324203
     33          7           0       -3.297418    2.243889   -4.131279
     34          1           0       -2.801389    2.814376   -4.798957
     35          6           0       -5.177316   -0.576720   -5.677497
     36          1           0       -5.428201   -1.056480   -6.620261
     37          6           0       -4.364246    0.552772   -5.681134
     38          1           0       -3.975709    0.965408   -6.609642
     39          6           0       -5.684588   -1.111561   -4.472907
     40          1           0       -6.317056   -1.994670   -4.509912
     41          7           0       -0.802974    0.243125   -0.631395
     42          1           0       -0.946820   -0.678349   -1.028343
     43          6           0        0.544037    0.616746   -0.290480
     44          1           0        0.529427    1.711676   -0.199726
     45          6           0        1.588085    0.175548   -1.297798
     46          6           0        0.824247   -0.062579    1.098069
     47          1           0        0.186972    0.400077    1.853052
     48          8           0        1.559575   -0.894969   -1.883445
     49          6           0        0.693765   -1.575370    1.075239
     50          1           0       -0.316566   -1.846954    0.762244
     51          1           0        0.855908   -1.954024    2.088365
     52          1           0        1.403325   -2.045890    0.382096
     53          8           0        2.198775    0.237278    1.634054
     54          1           0        2.963792   -0.122783    1.068930
     55          7           0        2.653234    1.060765   -1.443199
     56          1           0        2.694759    1.863336   -0.824509
     57          6           0        3.900920    0.571305   -1.985438
     58          1           0        3.658974   -0.033644   -2.866567
     59          6           0        4.580499   -0.384706   -0.988888
     60          6           0        4.828974    1.736441   -2.389030
     61          1           0        5.808996    1.320238   -2.654761
     62          1           0        4.981159    2.386217   -1.511365
     63          8           0        4.203776   -0.604621    0.158397
     64          6           0        4.256429    2.545406   -3.565176
     65          1           0        4.028159    1.873461   -4.401495
     66          1           0        3.306507    3.007360   -3.266113
     67          6           0        5.222143    3.623061   -4.094672
     68          1           0        6.135326    3.163461   -4.483212
     69          1           0        4.783910    4.172781   -4.935600
     70          7           0        5.676422    4.603051   -3.080714
     71          1           0        6.461455    4.286089   -2.520627
     72          7           0        3.635569    5.760777   -2.919400
     73          1           0        3.146595    6.592601   -2.605933
     74          1           0        3.353505    5.421803   -3.830555
     75          7           0        5.328439    6.151962   -1.368280
     76          1           0        6.323460    6.152104   -1.173223
     77          1           0        4.856039    6.995500   -1.059585
     78          6           0        4.884556    5.513304   -2.474506
     79          8           0        5.651855   -0.962412   -1.514144
     80          1           0        6.046943   -1.568644   -0.848243
     81          1           0        2.297601    1.204199    1.788138
 ---------------------------------------------------------------------

 SCF Done:  E(RB3LYP) =  -2053.91204948     A.U. after    1 cycles

 Alpha  occ. eigenvalues --  -19.34934 -19.34292 -19.30191 -19.24225 -19.19509
 Alpha  occ. eigenvalues --  -19.17327 -19.09745 -19.07653 -14.57746 -14.57684
 Alpha  occ. eigenvalues --  -14.57277 -14.49542 -14.44673 -14.43702 -14.41630
 Alpha  occ. eigenvalues --  -14.34531 -10.54124 -10.47779 -10.41164 -10.41068
 Alpha  occ. eigenvalues --  -10.38768 -10.36345 -10.35838 -10.35724 -10.34663
 Alpha  occ. eigenvalues --  -10.33829 -10.33579 -10.29714 -10.27529 -10.27321
 Alpha  occ. eigenvalues --  -10.27180 -10.26156 -10.25546 -10.25445 -10.24039
 Alpha  occ. eigenvalues --  -10.23827 -10.23556 -10.23481 -10.23408 -10.22878
 Alpha  occ. eigenvalues --  -10.21925 -10.18822  -1.26238  -1.21975  -1.21244
 Alpha  occ. eigenvalues --   -1.17065  -1.16155  -1.12727  -1.11430  -1.10333
 Alpha  occ. eigenvalues --   -1.08855  -1.06299  -1.03157  -1.01543  -1.01170
 Alpha  occ. eigenvalues --   -0.98797  -0.96503  -0.92831  -0.91816  -0.91709
 Alpha  occ. eigenvalues --   -0.88746  -0.88078  -0.86310  -0.86205  -0.83466
 Alpha  occ. eigenvalues --   -0.82365  -0.81061  -0.79530  -0.79372  -0.78410
 Alpha  occ. eigenvalues --   -0.78157  -0.76957  -0.75599  -0.74555  -0.74217
 Alpha  occ. eigenvalues --   -0.73262  -0.71939  -0.70623  -0.70256  -0.69771
 Alpha  occ. eigenvalues --   -0.69441  -0.67405  -0.67199  -0.66532  -0.66242
 Alpha  occ. eigenvalues --   -0.65237  -0.64704  -0.64428  -0.63835  -0.63157
 Alpha  occ. eigenvalues --   -0.63023  -0.62245  -0.61852  -0.60360  -0.60210
 Alpha  occ. eigenvalues --   -0.59924  -0.58966  -0.58006  -0.57542  -0.56926
 Alpha  occ. eigenvalues --   -0.56495  -0.55688  -0.55006  -0.54812  -0.53715
 Alpha  occ. eigenvalues --   -0.53603  -0.52543  -0.52318  -0.52097  -0.51881
 Alpha  occ. eigenvalues --   -0.51423  -0.50867  -0.50387  -0.50238  -0.49580
 Alpha  occ. eigenvalues --   -0.49026  -0.48927  -0.48474  -0.48077  -0.47924
 Alpha  occ. eigenvalues --   -0.47554  -0.47314  -0.47163  -0.46762  -0.46355
 Alpha  occ. eigenvalues --   -0.46270  -0.46046  -0.45061  -0.44596  -0.44317
 Alpha  occ. eigenvalues --   -0.44059  -0.43567  -0.42936  -0.42756  -0.42375
 Alpha  occ. eigenvalues --   -0.41764  -0.40943  -0.40094  -0.39464  -0.39408
 Alpha  occ. eigenvalues --   -0.38546  -0.38417  -0.38225  -0.37568  -0.36812
 Alpha  occ. eigenvalues --   -0.35623  -0.34303  -0.32600  -0.32466  -0.31564
 Alpha  occ. eigenvalues --   -0.30180  -0.27284  -0.26949  -0.25529  -0.24682
 Alpha  occ. eigenvalues --   -0.24213  -0.21626
 Alpha virt. eigenvalues --   -0.18602  -0.14837  -0.13660  -0.10832  -0.10230
 Alpha virt. eigenvalues --   -0.08962  -0.07912  -0.06924  -0.06583  -0.05991
 Alpha virt. eigenvalues --   -0.05696  -0.04743  -0.03248  -0.03043  -0.02405

 Mulliken charges:
               1
     1  N   -0.722015
     2  H    0.310814
     3  H    0.297270
     4  C   -0.046098
     5  H    0.143660
     6  C    0.605748
     7  C   -0.287749
     8  H    0.147378
     9  H    0.131094
    10  O   -0.544745
    11  C   -0.418623
    12  H    0.139002
    13  H    0.180045
    14  C    0.577467
    15  O   -0.679492
    16  O   -0.565150
    17  N   -0.580050
    18  H    0.350462
    19  C   -0.042804
    20  H    0.175584
    21  C    0.636011
    22  C   -0.363282
    23  H    0.166192
    24  H    0.176311
    25  O   -0.505982
    26  C    0.049645
    27  C   -0.001406
    28  H    0.155882
    29  C    0.075704
    30  C    0.313433
    31  C   -0.209683
    32  H    0.134308
    33  N   -0.694798
    34  H    0.320084
    35  C   -0.149599
    36  H    0.133098
    37  C   -0.163700
    38  H    0.121044
    39  C   -0.140147
    40  H    0.134103
    41  N   -0.606059
    42  H    0.360609
    43  C   -0.089214
    44  H    0.202756
    45  C    0.600222
    46  C    0.064979
    47  H    0.267830
    48  O   -0.493800
    49  C   -0.501357
    50  H    0.224698
    51  H    0.189861
    52  H    0.160386
    53  O   -0.631593
    54  H    0.488156
    55  N   -0.617391
    56  H    0.332996
    57  C   -0.044759
    58  H    0.232135
    59  C    0.635553
    60  C   -0.310480
    61  H    0.189083
    62  H    0.140374
    63  O   -0.504369
    64  C   -0.276513
    65  H    0.196914
    66  H    0.170453
    67  C   -0.201348
    68  H    0.213934
    69  H    0.195786
    70  N   -0.572923
    71  H    0.372754
    72  N   -0.725690
    73  H    0.395386
    74  H    0.394226
    75  N   -0.728941
    76  H    0.390630
    77  H    0.393534
    78  C    0.777369
    79  O   -0.535623
    80  H    0.447756
    81  H    0.442664
 Sum of Mulliken charges =   1.00000

 Dipole moment (field-independent basis, Debye):
    X=             31.0814    Y=             20.4801    Z=            -22.0753  Tot=             43.2759
 Quadrupole moment (field-independent basis, Debye-Ang):
   XX=            -76.8760   YY=           -118.4216   ZZ=           -209.6702
   XY=            113.3292   XZ=            -61.2372   YZ=            -97.6938

 Normal termination of Gaussian 16 at Sun May 15 14:54:59 2022.
