 Gaussian 16, Revision C.01,
 Gaussian 16:  ES64L-G16RevC.01  3-Jul-2019

 ----------------------------------------------------------------------
 # B3LYP/6-31G* empiricaldispersion=gd3 guess=read geom=check nosymm in
 tegral(ultrafinegrid)
 ----------------------------------------------------------------------

 ------------------------------------------------------
 Candidate Structure: Conf:796 Charge calc in gas phase
 ------------------------------------------------------
 Structure from the checkpoint file:  "conf-796.chk"
 Charge =  1 Multiplicity = 1

                          Input orientation:
 ---------------------------------------------------------------------
 Center     Atomic      Atomic             Coordinates (Angstroms)
 Number     Number       Type             X           Y           Z
 ---------------------------------------------------------------------
      1          7           0       -2.824118    0.447897    4.464093
      2          1           0       -3.773602    0.090131    4.371874
      3          1           0       -2.219066   -0.370427    4.536818
      4          6           0       -2.450354    1.199270    3.273899
      5          1           0       -3.214392    1.966743    3.093913
      6          6           0       -2.279203    0.320387    2.027159
      7          6           0       -1.086316    1.898154    3.529036
      8          1           0       -1.174652    2.437076    4.476281
      9          1           0       -0.341044    1.113144    3.695133
     10          8           0       -1.637801   -0.744369    2.092582
     11          6           0       -0.665178    2.859947    2.399851
     12          1           0       -1.090066    3.855027    2.552934
     13          1           0       -1.036561    2.516022    1.425848
     14          6           0        0.806738    3.071563    2.122738
     15          8           0        1.664361    2.042650    2.223197
     16          8           0        1.237922    4.146194    1.729005
     17          7           0       -2.732090    0.791037    0.849698
     18          1           0       -3.351742    1.592603    0.816708
     19          6           0       -2.287500    0.236879   -0.431014
     20          1           0       -2.528965   -0.830329   -0.448965
     21          6           0       -0.761251    0.471069   -0.485494
     22          6           0       -2.989165    0.974017   -1.592037
     23          1           0       -2.726199    0.448734   -2.519009
     24          1           0       -2.554348    1.977380   -1.659930
     25          8           0       -0.307571    1.615375   -0.550949
     26          6           0       -4.473448    1.054460   -1.414138
     27          6           0       -5.206942    2.198434   -1.196252
     28          1           0       -4.882076    3.230597   -1.179468
     29          6           0       -5.404521   -0.045978   -1.375368
     30          6           0       -6.691446    0.505530   -1.132880
     31          6           0       -5.277579   -1.437977   -1.527736
     32          1           0       -4.308913   -1.887579   -1.731197
     33          7           0       -6.537115    1.874652   -1.023144
     34          1           0       -7.288773    2.537990   -0.913888
     35          6           0       -7.680888   -1.660417   -1.189359
     36          1           0       -8.551176   -2.306646   -1.123091
     37          6           0       -7.839133   -0.288147   -1.037235
     38          1           0       -8.816099    0.150308   -0.854109
     39          6           0       -6.413517   -2.230777   -1.433513
     40          1           0       -6.330547   -3.306977   -1.553498
     41          7           0        0.026519   -0.627056   -0.373479
     42          1           0       -0.412091   -1.529673   -0.244267
     43          6           0        1.438121   -0.505277   -0.047676
     44          1           0        1.623962    0.565250    0.062366
     45          6           0        2.319548   -1.090624   -1.152584
     46          6           0        1.735409   -1.177033    1.316001
     47          1           0        1.399740   -2.221696    1.270660
     48          8           0        2.215911   -2.244802   -1.538783
     49          6           0        3.209875   -1.135757    1.690095
     50          1           0        3.817531   -1.687125    0.969196
     51          1           0        3.342096   -1.572394    2.683297
     52          1           0        3.564930   -0.099431    1.721999
     53          8           0        1.011955   -0.493974    2.350499
     54          1           0        1.272521    1.119055    2.358647
     55          7           0        3.267512   -0.220029   -1.603374
     56          1           0        3.211042    0.740261   -1.297328
     57          6           0        4.270395   -0.552228   -2.600285
     58          1           0        3.807225   -0.705896   -3.580492
     59          6           0        5.018090   -1.856251   -2.311048
     60          6           0        5.274540    0.618796   -2.689859
     61          1           0        4.703560    1.505769   -2.996264
     62          1           0        5.982970    0.408918   -3.496760
     63          8           0        5.466528   -2.556592   -3.183273
     64          6           0        6.016123    0.891696   -1.362134
     65          1           0        5.432005    0.499378   -0.525106
     66          1           0        6.963827    0.343417   -1.337406
     67          6           0        6.336936    2.373256   -1.119261
     68          1           0        6.904961    2.497499   -0.188107
     69          1           0        6.970707    2.763700   -1.919471
     70          7           0        5.150960    3.252217   -1.094275
     71          1           0        5.121931    4.002524   -1.770337
     72          7           0        4.228570    2.446192    0.897632
     73          1           0        3.420122    2.371784    1.522095
     74          1           0        5.106984    2.055192    1.202002
     75          7           0        3.082825    4.006824   -0.342649
     76          1           0        2.905638    4.479301   -1.217227
     77          1           0        2.398668    4.118952    0.426780
     78          6           0        4.164231    3.245646   -0.176376
     79          8           0        5.219389   -2.079340   -0.988740
     80          1           0        5.703901   -2.925039   -0.925077
     81          1           0        0.048253   -0.715094    2.300896
 ---------------------------------------------------------------------

 SCF Done:  E(RB3LYP) =  -2054.08425270     A.U. after    1 cycles

 Alpha  occ. eigenvalues --  -19.29412 -19.28983 -19.25820 -19.24363 -19.22804
 Alpha  occ. eigenvalues --  -19.22671 -19.22000 -19.21450 -14.52185 -14.50706
 Alpha  occ. eigenvalues --  -14.49842 -14.47018 -14.46807 -14.46719 -14.45333
 Alpha  occ. eigenvalues --  -14.40141 -10.47640 -10.43033 -10.41194 -10.39099
 Alpha  occ. eigenvalues --  -10.39038 -10.38621 -10.36753 -10.34857 -10.34392
 Alpha  occ. eigenvalues --  -10.33547 -10.33260 -10.32228 -10.31230 -10.31183
 Alpha  occ. eigenvalues --  -10.29785 -10.29503 -10.28921 -10.28905 -10.28496
 Alpha  occ. eigenvalues --  -10.27384 -10.26213 -10.25525 -10.25486 -10.25434
 Alpha  occ. eigenvalues --  -10.24981 -10.24633  -1.20286  -1.19650  -1.16054
 Alpha  occ. eigenvalues --   -1.14993  -1.13797  -1.13310  -1.12831  -1.11374
 Alpha  occ. eigenvalues --   -1.10695  -1.05664  -1.05227  -1.03596  -1.03432
 Alpha  occ. eigenvalues --   -1.03162  -1.02809  -0.97918  -0.92268  -0.90747
 Alpha  occ. eigenvalues --   -0.89628  -0.88817  -0.88302  -0.86653  -0.84586
 Alpha  occ. eigenvalues --   -0.81759  -0.80514  -0.80242  -0.80108  -0.78876
 Alpha  occ. eigenvalues --   -0.77762  -0.75236  -0.74618  -0.73355  -0.73195
 Alpha  occ. eigenvalues --   -0.72415  -0.71616  -0.69700  -0.69223  -0.68958
 Alpha  occ. eigenvalues --   -0.68787  -0.68156  -0.67985  -0.66382  -0.65091
 Alpha  occ. eigenvalues --   -0.64601  -0.64177  -0.63724  -0.62840  -0.62363
 Alpha  occ. eigenvalues --   -0.61749  -0.61093  -0.60682  -0.60371  -0.59978
 Alpha  occ. eigenvalues --   -0.59735  -0.59487  -0.58092  -0.57665  -0.57177
 Alpha  occ. eigenvalues --   -0.56566  -0.56384  -0.55613  -0.55509  -0.55181
 Alpha  occ. eigenvalues --   -0.54856  -0.54200  -0.53863  -0.53435  -0.53153
 Alpha  occ. eigenvalues --   -0.51989  -0.51814  -0.51548  -0.51276  -0.50998
 Alpha  occ. eigenvalues --   -0.50593  -0.50228  -0.50151  -0.49819  -0.49642
 Alpha  occ. eigenvalues --   -0.49513  -0.49144  -0.48852  -0.48058  -0.47915
 Alpha  occ. eigenvalues --   -0.47777  -0.47595  -0.46788  -0.46649  -0.46246
 Alpha  occ. eigenvalues --   -0.46114  -0.45951  -0.45459  -0.44930  -0.44709
 Alpha  occ. eigenvalues --   -0.44120  -0.43431  -0.42334  -0.42051  -0.41702
 Alpha  occ. eigenvalues --   -0.40904  -0.40469  -0.40268  -0.40108  -0.39327
 Alpha  occ. eigenvalues --   -0.38355  -0.37790  -0.37544  -0.37300  -0.36653
 Alpha  occ. eigenvalues --   -0.35467  -0.35022  -0.34397  -0.33936  -0.32492
 Alpha  occ. eigenvalues --   -0.29190  -0.27657
 Alpha virt. eigenvalues --   -0.11899  -0.09967  -0.09704  -0.08656  -0.08474
 Alpha virt. eigenvalues --   -0.07931  -0.07825  -0.07687  -0.05630  -0.04322
 Alpha virt. eigenvalues --   -0.03405  -0.02366  -0.01818  -0.01533  -0.01198

 Mulliken charges:
               1
     1  N   -0.691991
     2  H    0.316397
     3  H    0.316796
     4  C   -0.071187
     5  H    0.146302
     6  C    0.607565
     7  C   -0.292961
     8  H    0.194327
     9  H    0.157612
    10  O   -0.585008
    11  C   -0.409244
    12  H    0.196054
    13  H    0.220859
    14  C    0.637049
    15  O   -0.650974
    16  O   -0.500968
    17  N   -0.575024
    18  H    0.343773
    19  C   -0.023084
    20  H    0.175423
    21  C    0.620214
    22  C   -0.396556
    23  H    0.176732
    24  H    0.174837
    25  O   -0.551805
    26  C    0.044403
    27  C   -0.016261
    28  H    0.158247
    29  C    0.094111
    30  C    0.310414
    31  C   -0.208988
    32  H    0.120456
    33  N   -0.685126
    34  H    0.339234
    35  C   -0.148675
    36  H    0.143294
    37  C   -0.158794
    38  H    0.139086
    39  C   -0.138082
    40  H    0.137532
    41  N   -0.577507
    42  H    0.356009
    43  C   -0.104794
    44  H    0.164074
    45  C    0.656944
    46  C    0.116520
    47  H    0.169077
    48  O   -0.513740
    49  C   -0.485316
    50  H    0.200788
    51  H    0.183384
    52  H    0.119711
    53  O   -0.699516
    54  H    0.485187
    55  N   -0.633055
    56  H    0.340256
    57  C   -0.001784
    58  H    0.204509
    59  C    0.612026
    60  C   -0.326574
    61  H    0.148485
    62  H    0.197709
    63  O   -0.444830
    64  C   -0.297469
    65  H    0.176557
    66  H    0.186338
    67  C   -0.175500
    68  H    0.183279
    69  H    0.194765
    70  N   -0.604601
    71  H    0.363597
    72  N   -0.792825
    73  H    0.433202
    74  H    0.374889
    75  N   -0.790602
    76  H    0.365452
    77  H    0.441337
    78  C    0.780798
    79  O   -0.571207
    80  H    0.426078
    81  H    0.472359
 Sum of Mulliken charges =   1.00000

 Dipole moment (field-independent basis, Debye):
    X=              8.2718    Y=             11.6317    Z=             -0.2605  Tot=             14.2754
 Quadrupole moment (field-independent basis, Debye-Ang):
   XX=            -91.8381   YY=           -205.1892   ZZ=           -241.6517
   XY=             27.8443   XZ=             -9.5326   YZ=            -23.0295

 Normal termination of Gaussian 16 at Sun May 15 14:55:03 2022.
