 Gaussian 16, Revision C.01,
 Gaussian 16:  ES64L-G16RevC.01  3-Jul-2019

 ----------------------------------------------------------------------
 # B3LYP/6-31G* empiricaldispersion=gd3 guess=read geom=check nosymm in
 tegral(ultrafinegrid)
 ----------------------------------------------------------------------

 ------------------------------------------------------
 Candidate Structure: Conf:102 Charge calc in gas phase
 ------------------------------------------------------
 Structure from the checkpoint file:  "conf-102.chk"
 Charge =  1 Multiplicity = 1

                          Input orientation:
 ---------------------------------------------------------------------
 Center     Atomic      Atomic             Coordinates (Angstroms)
 Number     Number       Type             X           Y           Z
 ---------------------------------------------------------------------
      1          7           0       -5.855483    1.009095    3.845039
      2          1           0       -6.015040    1.338494    4.796229
      3          1           0       -6.428825    1.585045    3.229513
      4          6           0       -4.439731    1.142551    3.516055
      5          1           0       -4.058776    2.183159    3.577158
      6          6           0       -4.161333    0.601134    2.110246
      7          6           0       -3.582514    0.265847    4.461237
      8          1           0       -3.617357    0.661098    5.482862
      9          1           0       -4.039663   -0.727786    4.480109
     10          8           0       -4.443484   -0.535295    1.765138
     11          6           0       -2.128218    0.163362    3.998176
     12          1           0       -1.705950    1.157131    3.791515
     13          1           0       -2.078747   -0.386579    3.047178
     14          6           0       -1.193468   -0.564962    4.953119
     15          8           0        0.051227   -0.733569    4.502954
     16          8           0       -1.557035   -0.965649    6.040342
     17          7           0       -3.458055    1.448388    1.250030
     18          1           0       -3.120344    2.328715    1.625425
     19          6           0       -2.569857    0.829621    0.291670
     20          1           0       -2.852184   -0.229610    0.270602
     21          6           0       -1.114596    0.981928    0.747121
     22          6           0       -2.738357    1.420935   -1.143448
     23          1           0       -3.770647    1.218043   -1.445495
     24          1           0       -2.087103    0.879056   -1.840649
     25          8           0       -0.743229    1.890641    1.497029
     26          6           0       -2.451920    2.892678   -1.202921
     27          6           0       -3.314200    3.907777   -0.858424
     28          1           0       -4.343008    3.845005   -0.531509
     29          6           0       -1.208977    3.522662   -1.557327
     30          6           0       -1.389854    4.933548   -1.406010
     31          6           0        0.039926    3.045800   -1.988689
     32          1           0        0.200604    1.978217   -2.117186
     33          7           0       -2.683564    5.131967   -0.984001
     34          1           0       -3.099399    6.026221   -0.764427
     35          6           0        0.853456    5.345139   -2.099366
     36          1           0        1.662187    6.040283   -2.320621
     37          6           0       -0.370622    5.851262   -1.673936
     38          1           0       -0.528929    6.920007   -1.556000
     39          6           0        1.056899    3.956457   -2.256359
     40          1           0        2.022742    3.595473   -2.592912
     41          7           0       -0.227118    0.080290    0.239384
     42          1           0       -0.501267   -0.621314   -0.442530
     43          6           0        1.192073    0.376019    0.303240
     44          1           0        1.305068    1.469332    0.302830
     45          6           0        1.827709   -0.223330   -0.976062
     46          6           0        1.893662   -0.157666    1.587841
     47          1           0        1.757855   -1.235805    1.690599
     48          8           0        1.265387   -1.128378   -1.582654
     49          6           0        3.378240    0.200285    1.660113
     50          1           0        3.976632   -0.429190    0.993506
     51          1           0        3.721820    0.040899    2.685544
     52          1           0        3.538255    1.259638    1.412475
     53          8           0        1.261441    0.386847    2.764352
     54          1           0        0.777033    1.234176    2.563745
     55          7           0        3.004519    0.317780   -1.432292
     56          1           0        3.569398    0.853107   -0.784820
     57          6           0        3.675255   -0.338806   -2.549861
     58          1           0        2.911818   -0.560765   -3.298299
     59          6           0        4.309257   -1.700478   -2.213976
     60          6           0        4.761540    0.555308   -3.176022
     61          1           0        5.239117   -0.040510   -3.963823
     62          1           0        5.541610    0.781500   -2.432732
     63          8           0        4.515181   -2.547105   -3.046755
     64          6           0        4.186537    1.854026   -3.756068
     65          1           0        3.350496    1.624612   -4.429604
     66          1           0        3.769811    2.465250   -2.946811
     67          6           0        5.243195    2.640492   -4.550025
     68          1           0        6.128431    2.896037   -3.955017
     69          1           0        5.615528    2.045001   -5.387982
     70          7           0        4.699454    3.880755   -5.140866
     71          1           0        4.205520    3.752155   -6.017879
     72          7           0        4.786850    5.149581   -3.188775
     73          1           0        4.766008    6.064372   -2.755270
     74          1           0        5.422437    4.492172   -2.758180
     75          7           0        3.706507    5.980128   -5.062716
     76          1           0        3.618511    5.987152   -6.071638
     77          1           0        3.684568    6.906448   -4.653777
     78          6           0        4.421554    5.004699   -4.472060
     79          8           0        4.665997   -1.795494   -0.911328
     80          1           0        5.080864   -2.675368   -0.786479
     81          1           0        0.492926   -0.239777    3.610857
 ---------------------------------------------------------------------

 SCF Done:  E(RB3LYP) =  -2053.99196906     A.U. after    2 cycles

 Alpha  occ. eigenvalues --  -19.30476 -19.26407 -19.24292 -19.23676 -19.21585
 Alpha  occ. eigenvalues --  -19.16595 -19.15793 -19.12500 -14.56863 -14.56846
 Alpha  occ. eigenvalues --  -14.56464 -14.48277 -14.46360 -14.45619 -14.41322
 Alpha  occ. eigenvalues --  -14.35796 -10.53151 -10.42523 -10.40748 -10.40316
 Alpha  occ. eigenvalues --  -10.38012 -10.35836 -10.35049 -10.34405 -10.34328
 Alpha  occ. eigenvalues --  -10.33477 -10.33354 -10.31399 -10.30578 -10.30547
 Alpha  occ. eigenvalues --  -10.29957 -10.28123 -10.28016 -10.27821 -10.27750
 Alpha  occ. eigenvalues --  -10.27622 -10.27380 -10.27052 -10.26896 -10.26262
 Alpha  occ. eigenvalues --  -10.22155 -10.21744  -1.21554  -1.20925  -1.15825
 Alpha  occ. eigenvalues --   -1.14256  -1.12750  -1.12184  -1.10790  -1.09757
 Alpha  occ. eigenvalues --   -1.08654  -1.06983  -1.06205  -1.04640  -1.02037
 Alpha  occ. eigenvalues --   -0.99057  -0.98079  -0.95361  -0.92998  -0.92776
 Alpha  occ. eigenvalues --   -0.90352  -0.88597  -0.87835  -0.84771  -0.84005
 Alpha  occ. eigenvalues --   -0.82446  -0.81960  -0.81689  -0.81043  -0.79519
 Alpha  occ. eigenvalues --   -0.78896  -0.75849  -0.74828  -0.74525  -0.73135
 Alpha  occ. eigenvalues --   -0.72783  -0.71350  -0.71165  -0.70332  -0.69627
 Alpha  occ. eigenvalues --   -0.68904  -0.68795  -0.68156  -0.66375  -0.65495
 Alpha  occ. eigenvalues --   -0.64585  -0.63918  -0.63513  -0.63326  -0.63028
 Alpha  occ. eigenvalues --   -0.62284  -0.61774  -0.61446  -0.60667  -0.59215
 Alpha  occ. eigenvalues --   -0.58662  -0.57847  -0.57414  -0.56813  -0.56362
 Alpha  occ. eigenvalues --   -0.55780  -0.55496  -0.55044  -0.54639  -0.53894
 Alpha  occ. eigenvalues --   -0.53683  -0.53038  -0.52655  -0.52440  -0.52120
 Alpha  occ. eigenvalues --   -0.51899  -0.51750  -0.51155  -0.50801  -0.50216
 Alpha  occ. eigenvalues --   -0.49966  -0.49752  -0.49491  -0.49177  -0.49052
 Alpha  occ. eigenvalues --   -0.48834  -0.48422  -0.48215  -0.47769  -0.47641
 Alpha  occ. eigenvalues --   -0.47154  -0.46690  -0.46420  -0.45625  -0.45039
 Alpha  occ. eigenvalues --   -0.44715  -0.44266  -0.43914  -0.43539  -0.42636
 Alpha  occ. eigenvalues --   -0.42232  -0.42162  -0.41521  -0.40768  -0.40449
 Alpha  occ. eigenvalues --   -0.40278  -0.39272  -0.38624  -0.37686  -0.37028
 Alpha  occ. eigenvalues --   -0.36454  -0.36147  -0.35276  -0.34915  -0.32020
 Alpha  occ. eigenvalues --   -0.31835  -0.30998  -0.29840  -0.29715  -0.28611
 Alpha  occ. eigenvalues --   -0.27811  -0.26410
 Alpha virt. eigenvalues --   -0.17134  -0.13290  -0.10380  -0.09982  -0.09779
 Alpha virt. eigenvalues --   -0.09412  -0.08600  -0.07578  -0.07379  -0.06473
 Alpha virt. eigenvalues --   -0.04697  -0.04174  -0.03862  -0.02943  -0.02587

 Mulliken charges:
               1
     1  N   -0.705737
     2  H    0.307642
     3  H    0.297742
     4  C   -0.044745
     5  H    0.096651
     6  C    0.589349
     7  C   -0.251108
     8  H    0.158058
     9  H    0.193748
    10  O   -0.489638
    11  C   -0.419159
    12  H    0.145892
    13  H    0.155730
    14  C    0.615959
    15  O   -0.664575
    16  O   -0.474901
    17  N   -0.591222
    18  H    0.335118
    19  C   -0.084764
    20  H    0.205468
    21  C    0.658220
    22  C   -0.355817
    23  H    0.185460
    24  H    0.147931
    25  O   -0.565000
    26  C    0.060074
    27  C    0.008176
    28  H    0.176196
    29  C    0.087194
    30  C    0.323219
    31  C   -0.218613
    32  H    0.127791
    33  N   -0.688741
    34  H    0.340635
    35  C   -0.143449
    36  H    0.069093
    37  C   -0.154870
    38  H    0.135856
    39  C   -0.153523
    40  H    0.083440
    41  N   -0.606959
    42  H    0.368912
    43  C   -0.105108
    44  H    0.184062
    45  C    0.616335
    46  C    0.179290
    47  H    0.185082
    48  O   -0.506191
    49  C   -0.508768
    50  H    0.180877
    51  H    0.206024
    52  H    0.130717
    53  O   -0.673688
    54  H    0.444882
    55  N   -0.618140
    56  H    0.337004
    57  C   -0.027715
    58  H    0.215563
    59  C    0.599138
    60  C   -0.316153
    61  H    0.195548
    62  H    0.155462
    63  O   -0.435262
    64  C   -0.280985
    65  H    0.175760
    66  H    0.174884
    67  C   -0.192856
    68  H    0.181829
    69  H    0.215064
    70  N   -0.580121
    71  H    0.376197
    72  N   -0.734686
    73  H    0.389169
    74  H    0.390643
    75  N   -0.733560
    76  H    0.388325
    77  H    0.386276
    78  C    0.804913
    79  O   -0.569929
    80  H    0.433289
    81  H    0.476097
 Sum of Mulliken charges =   1.00000

 Dipole moment (field-independent basis, Debye):
    X=             24.2915    Y=             30.4294    Z=            -26.5935  Tot=             47.1512
 Quadrupole moment (field-independent basis, Debye-Ang):
   XX=           -112.7087   YY=            -95.9752   ZZ=           -195.7551
   XY=             64.6454   XZ=            -82.7733   YZ=            -83.3751

 Normal termination of Gaussian 16 at Sun May 15 14:55:36 2022.
