 Gaussian 16, Revision C.01,
 Gaussian 16:  ES64L-G16RevC.01  3-Jul-2019

 ----------------------------------------------------------------------
 # B3LYP/6-31G* empiricaldispersion=gd3 guess=read geom=check nosymm in
 tegral(ultrafinegrid)
 ----------------------------------------------------------------------

 ------------------------------------------------------
 Candidate Structure: Conf:883 Charge calc in gas phase
 ------------------------------------------------------
 Structure from the checkpoint file:  "conf-883.chk"
 Charge =  1 Multiplicity = 1

                          Input orientation:
 ---------------------------------------------------------------------
 Center     Atomic      Atomic             Coordinates (Angstroms)
 Number     Number       Type             X           Y           Z
 ---------------------------------------------------------------------
      1          7           0       -2.088701   -0.256887   -4.021388
      2          1           0       -2.574320   -1.106463   -4.324275
      3          1           0       -2.695861    0.245627   -3.300561
      4          1           0       -1.916976    0.330631   -4.841074
      5          6           0       -0.848912   -0.540055   -3.198516
      6          1           0       -0.512275   -1.558703   -3.404328
      7          6           0       -1.350746   -0.327783   -1.743407
      8          6           0        0.243700    0.507314   -3.441730
      9          1           0        1.011875    0.343303   -2.679001
     10          1           0       -0.175343    1.493884   -3.213863
     11          8           0       -2.405632    0.307952   -1.600547
     12          6           0        0.909382    0.507702   -4.816661
     13          1           0        1.408677   -0.444691   -5.031040
     14          1           0        0.209576    0.676446   -5.647315
     15          6           0        1.949310    1.617526   -4.873691
     16          8           0        2.164765    2.402007   -3.970190
     17          8           0        2.591221    1.626649   -6.045699
     18          7           0       -0.527540   -0.755588   -0.799467
     19          1           0        0.364766   -1.191251   -1.058044
     20          6           0       -0.405849   -0.163157    0.534661
     21          1           0       -0.889948    0.817129    0.515899
     22          6           0        1.127291   -0.001275    0.711404
     23          6           0       -1.002973   -1.052136    1.638298
     24          1           0       -0.762612   -0.596865    2.608316
     25          1           0       -0.482233   -2.018087    1.610486
     26          8           0        1.897742   -0.661639    0.003042
     27          6           0       -2.524680   -1.269119    1.541900
     28          1           0       -2.745637   -1.674456    0.543353
     29          6           0       -2.962097   -2.306261    2.586510
     30          1           0       -2.759627   -1.945629    3.602713
     31          1           0       -4.036686   -2.505230    2.513243
     32          1           0       -2.432562   -3.257242    2.456980
     33          6           0       -3.307746    0.041246    1.710402
     34          1           0       -3.067260    0.518049    2.669596
     35          1           0       -3.099994    0.751115    0.903167
     36          1           0       -4.385809   -0.152360    1.700959
     37          7           0        1.489709    0.847102    1.676483
     38          1           0        0.757733    1.371277    2.135493
     39          6           0        2.861487    1.067308    2.153503
     40          1           0        3.237682    0.111861    2.528627
     41          6           0        2.812998    2.011596    3.369416
     42          6           0        3.877585    1.573108    1.095596
     43          1           0        3.793413    0.926227    0.217701
     44          1           0        4.855686    1.370008    1.544252
     45          8           0        3.532787    1.836296    4.320587
     46          6           0        3.824743    3.064196    0.696903
     47          1           0        3.359573    3.673350    1.472629
     48          1           0        4.853753    3.438079    0.624711
     49          6           0        3.188732    3.386950   -0.657228
     50          1           0        3.809832    2.966110   -1.454379
     51          1           0        3.186981    4.478227   -0.788414
     52          7           0        1.842599    2.856898   -0.923342
     53          1           0        1.720658    2.570361   -1.887035
     54          7           0        0.671445    3.655151    0.933516
     55          1           0       -0.217997    4.084384    1.184002
     56          1           0        1.578036    3.227624    2.390854
     57          7           0       -0.420096    3.244892   -1.164203
     58          1           0       -1.283430    3.539779   -0.720507
     59          1           0       -0.284526    3.734920   -2.044447
     60          6           0        0.706285    3.306105   -0.314085
     61          8           0        1.937009    3.032504    3.309742
     62          1           0        3.249614    2.348983   -6.031666
 ---------------------------------------------------------------------

 SCF Done:  E(RB3LYP) =  -1447.45696722     A.U. after    1 cycles

 Alpha  occ. eigenvalues --  -19.33149 -19.28527 -19.28266 -19.23853 -19.22755
 Alpha  occ. eigenvalues --  -19.19070 -14.62175 -14.50202 -14.46692 -14.46380
 Alpha  occ. eigenvalues --  -14.44931 -14.40649 -10.46553 -10.44970 -10.42793
 Alpha  occ. eigenvalues --  -10.39857 -10.39561 -10.37814 -10.35987 -10.35852
 Alpha  occ. eigenvalues --  -10.35062 -10.31842 -10.30945 -10.28797 -10.28040
 Alpha  occ. eigenvalues --  -10.26803 -10.26364 -10.25680 -10.25247  -1.24437
 Alpha  occ. eigenvalues --   -1.20946  -1.15869  -1.15599  -1.15115  -1.14382
 Alpha  occ. eigenvalues --   -1.08764  -1.07401  -1.07034  -1.02955  -0.99318
 Alpha  occ. eigenvalues --   -0.97203  -0.95675  -0.91928  -0.89732  -0.88025
 Alpha  occ. eigenvalues --   -0.85520  -0.82596  -0.81152  -0.76900  -0.76485
 Alpha  occ. eigenvalues --   -0.76291  -0.75871  -0.75316  -0.73545  -0.72388
 Alpha  occ. eigenvalues --   -0.71193  -0.69092  -0.68198  -0.66808  -0.65947
 Alpha  occ. eigenvalues --   -0.65652  -0.64995  -0.64795  -0.63977  -0.62962
 Alpha  occ. eigenvalues --   -0.62920  -0.62227  -0.61832  -0.60136  -0.58454
 Alpha  occ. eigenvalues --   -0.57469  -0.57294  -0.56884  -0.56762  -0.55870
 Alpha  occ. eigenvalues --   -0.55212  -0.54738  -0.54029  -0.53850  -0.53039
 Alpha  occ. eigenvalues --   -0.52624  -0.52396  -0.51713  -0.51252  -0.50783
 Alpha  occ. eigenvalues --   -0.50170  -0.49506  -0.49246  -0.48450  -0.48168
 Alpha  occ. eigenvalues --   -0.47675  -0.46732  -0.46519  -0.45590  -0.45256
 Alpha  occ. eigenvalues --   -0.44272  -0.43606  -0.43100  -0.42671  -0.42146
 Alpha  occ. eigenvalues --   -0.41876  -0.41593  -0.41346  -0.41180  -0.39947
 Alpha  occ. eigenvalues --   -0.39060  -0.37333  -0.36897  -0.36500  -0.35465
 Alpha  occ. eigenvalues --   -0.33391  -0.32374
 Alpha virt. eigenvalues --   -0.14327  -0.13556  -0.12382  -0.08697  -0.08445
 Alpha virt. eigenvalues --   -0.06994  -0.06154  -0.05947  -0.04999  -0.04282
 Alpha virt. eigenvalues --   -0.02983  -0.02685  -0.01623  -0.00973  -0.00288

 Mulliken charges:
               1
     1  N   -0.754307
     2  H    0.421225
     3  H    0.432209
     4  H    0.411345
     5  C   -0.126924
     6  H    0.217417
     7  C    0.657862
     8  C   -0.313354
     9  H    0.225602
    10  H    0.190729
    11  O   -0.537573
    12  C   -0.380204
    13  H    0.216796
    14  H    0.175357
    15  C    0.609858
    16  O   -0.459306
    17  O   -0.543554
    18  N   -0.577574
    19  H    0.369944
    20  C   -0.105274
    21  H    0.184826
    22  C    0.654584
    23  C   -0.254332
    24  H    0.157193
    25  H    0.158389
    26  O   -0.561411
    27  C   -0.071256
    28  H    0.122094
    29  C   -0.447168
    30  H    0.156127
    31  H    0.156895
    32  H    0.149757
    33  C   -0.462342
    34  H    0.147195
    35  H    0.148031
    36  H    0.159958
    37  N   -0.614282
    38  H    0.344574
    39  C   -0.034705
    40  H    0.196930
    41  C    0.571608
    42  C   -0.288726
    43  H    0.176386
    44  H    0.176950
    45  O   -0.434891
    46  C   -0.286569
    47  H    0.174992
    48  H    0.162005
    49  C   -0.141826
    50  H    0.155512
    51  H    0.160889
    52  N   -0.609661
    53  H    0.367617
    54  N   -0.707737
    55  H    0.299670
    56  H    0.474906
    57  N   -0.777617
    58  H    0.336718
    59  H    0.335532
    60  C    0.624677
    61  O   -0.630694
    62  H    0.438926
 Sum of Mulliken charges =   1.00000

 Dipole moment (field-independent basis, Debye):
    X=             -6.1404    Y=              2.1247    Z=            -21.5891  Tot=             22.5457
 Quadrupole moment (field-independent basis, Debye-Ang):
   XX=           -151.4743   YY=           -149.9763   ZZ=           -101.5324
   XY=              5.8329   XZ=             -5.6119   YZ=            -20.0106

 Normal termination of Gaussian 16 at Wed Jun  1 02:21:22 2022.
