 Gaussian 16, Revision C.01,
 Gaussian 16:  ES64L-G16RevC.01  3-Jul-2019

 ----------------------------------------------------------------------
 # B3LYP/6-31G* empiricaldispersion=gd3 guess=read geom=check nosymm in
 tegral(ultrafinegrid)
 ----------------------------------------------------------------------

 ------------------------------------------------------
 Candidate Structure: Conf:649 Charge calc in gas phase
 ------------------------------------------------------
 Structure from the checkpoint file:  "conf-649.chk"
 Charge =  1 Multiplicity = 1

                          Input orientation:
 ---------------------------------------------------------------------
 Center     Atomic      Atomic             Coordinates (Angstroms)
 Number     Number       Type             X           Y           Z
 ---------------------------------------------------------------------
      1          7           0       -0.247275   -3.304237   -2.402956
      2          1           0        0.374193   -2.431036   -2.406844
      3          1           0        0.094534   -3.896904   -1.636332
      4          1           0       -0.195180   -3.825079   -3.282577
      5          6           0       -1.656548   -2.844374   -2.055267
      6          1           0       -2.016656   -2.287865   -2.925873
      7          6           0       -1.337654   -1.937956   -0.840353
      8          6           0       -2.556863   -4.026319   -1.724595
      9          1           0       -2.140859   -4.558733   -0.863736
     10          1           0       -2.581838   -4.720294   -2.574350
     11          8           0       -0.905590   -2.489582    0.160603
     12          6           0       -3.980098   -3.552747   -1.389512
     13          1           0       -3.951573   -2.914118   -0.496583
     14          1           0       -4.418501   -2.969749   -2.204255
     15          6           0       -4.940878   -4.693262   -1.098565
     16          8           0       -6.076446   -4.755234   -1.500876
     17          8           0       -4.367926   -5.630925   -0.306572
     18          7           0       -1.415653   -0.596077   -1.060796
     19          1           0       -1.747563   -0.342832   -1.983684
     20          6           0       -0.373621    0.316331   -0.562383
     21          1           0       -0.708533    1.320879   -0.838136
     22          6           0        0.930612    0.017395   -1.357217
     23          6           0       -0.209865    0.262744    0.976965
     24          1           0        0.251592   -0.687882    1.252660
     25          1           0       -1.228250    0.241736    1.385416
     26          8           0        1.068952   -1.011854   -2.061251
     27          6           0        0.560843    1.425154    1.640818
     28          1           0        1.611632    1.397746    1.327659
     29          6           0       -0.009813    2.807230    1.289413
     30          1           0       -1.074266    2.870666    1.550321
     31          1           0        0.520509    3.588820    1.842156
     32          1           0        0.088705    3.056290    0.224822
     33          6           0        0.541477    1.211521    3.162951
     34          1           0       -0.482307    1.263448    3.555028
     35          1           0        0.957080    0.234520    3.434758
     36          1           0        1.134385    1.981167    3.667938
     37          7           0        1.878707    0.936493   -1.253527
     38          1           0        1.778874    1.753243   -0.648317
     39          6           0        3.259502    0.818743   -1.725030
     40          1           0        3.536500   -0.236124   -1.777824
     41          6           0        4.113162    1.574213   -0.668132
     42          6           0        3.381586    1.492793   -3.111823
     43          1           0        3.177351    2.562867   -2.975697
     44          1           0        2.571936    1.095584   -3.736314
     45          8           0        5.317263    1.186227   -0.560117
     46          6           0        4.694454    1.298414   -3.892221
     47          1           0        4.899981    0.227216   -4.013520
     48          1           0        4.530864    1.689038   -4.907012
     49          6           0        5.975179    1.929087   -3.321693
     50          1           0        6.787727    1.817203   -4.050398
     51          1           0        6.253878    1.422079   -2.402314
     52          7           0        5.805241    3.363140   -3.033208
     53          1           0        5.374443    3.918308   -3.761311
     54          7           0        6.601630    3.434581   -0.835952
     55          1           0        6.947900    4.010020   -0.080258
     56          1           0        6.162738    2.491005   -0.568114
     57          7           0        6.234897    5.398144   -2.040177
     58          1           0        6.400221    5.958010   -1.217066
     59          1           0        6.359872    5.855631   -2.931350
     60          6           0        6.220868    4.042769   -1.949275
     61          8           0        3.556828    2.534662   -0.099355
     62          1           0       -5.045268   -6.313608   -0.136741
 ---------------------------------------------------------------------

 SCF Done:  E(RB3LYP) =  -1447.47123510     A.U. after    2 cycles

 Alpha  occ. eigenvalues --  -19.28367 -19.24895 -19.23747 -19.22538 -19.16693
 Alpha  occ. eigenvalues --  -19.16317 -14.57830 -14.48490 -14.48377 -14.48242
 Alpha  occ. eigenvalues --  -14.45539 -14.45091 -10.43860 -10.42125 -10.41094
 Alpha  occ. eigenvalues --  -10.39919 -10.39278 -10.34633 -10.34416 -10.32453
 Alpha  occ. eigenvalues --  -10.31384 -10.31058 -10.30297 -10.28300 -10.27696
 Alpha  occ. eigenvalues --  -10.27250 -10.26433 -10.24789 -10.23900  -1.19142
 Alpha  occ. eigenvalues --   -1.17528  -1.14443  -1.12258  -1.12174  -1.10285
 Alpha  occ. eigenvalues --   -1.10082  -1.05087  -1.02788  -1.01946  -1.00977
 Alpha  occ. eigenvalues --   -0.99512  -0.93464  -0.89976  -0.88435  -0.86053
 Alpha  occ. eigenvalues --   -0.84329  -0.82210  -0.77449  -0.77219  -0.75535
 Alpha  occ. eigenvalues --   -0.74252  -0.73709  -0.72875  -0.71067  -0.70428
 Alpha  occ. eigenvalues --   -0.69735  -0.69165  -0.68312  -0.66928  -0.65831
 Alpha  occ. eigenvalues --   -0.65723  -0.64259  -0.62424  -0.61870  -0.61397
 Alpha  occ. eigenvalues --   -0.60064  -0.59483  -0.58729  -0.57528  -0.56897
 Alpha  occ. eigenvalues --   -0.56370  -0.55948  -0.55650  -0.55109  -0.54618
 Alpha  occ. eigenvalues --   -0.53811  -0.53695  -0.52774  -0.52472  -0.51964
 Alpha  occ. eigenvalues --   -0.51652  -0.51149  -0.50750  -0.49708  -0.48979
 Alpha  occ. eigenvalues --   -0.48558  -0.48416  -0.47705  -0.47334  -0.46793
 Alpha  occ. eigenvalues --   -0.46361  -0.46049  -0.45506  -0.45210  -0.44748
 Alpha  occ. eigenvalues --   -0.43999  -0.43101  -0.41920  -0.40994  -0.40452
 Alpha  occ. eigenvalues --   -0.40426  -0.39990  -0.39268  -0.38887  -0.37900
 Alpha  occ. eigenvalues --   -0.36881  -0.36418  -0.36188  -0.36090  -0.32187
 Alpha  occ. eigenvalues --   -0.31061  -0.30669
 Alpha virt. eigenvalues --   -0.12930  -0.08831  -0.08573  -0.08337  -0.07426
 Alpha virt. eigenvalues --   -0.05487  -0.05225  -0.02987  -0.02728  -0.01354
 Alpha virt. eigenvalues --   -0.01117   0.00072   0.00120   0.00493   0.01183

 Mulliken charges:
               1
     1  N   -0.765224
     2  H    0.460206
     3  H    0.413090
     4  H    0.401918
     5  C   -0.106128
     6  H    0.187789
     7  C    0.600149
     8  C   -0.277634
     9  H    0.208846
    10  H    0.166458
    11  O   -0.485403
    12  C   -0.365967
    13  H    0.206247
    14  H    0.185252
    15  C    0.579295
    16  O   -0.432097
    17  O   -0.561332
    18  N   -0.563847
    19  H    0.337553
    20  C   -0.107959
    21  H    0.182853
    22  C    0.641383
    23  C   -0.254497
    24  H    0.180113
    25  H    0.159930
    26  O   -0.616345
    27  C   -0.111879
    28  H    0.163258
    29  C   -0.455847
    30  H    0.146867
    31  H    0.171344
    32  H    0.129950
    33  C   -0.448309
    34  H    0.146273
    35  H    0.151688
    36  H    0.160298
    37  N   -0.592521
    38  H    0.386183
    39  C   -0.045771
    40  H    0.165822
    41  C    0.601622
    42  C   -0.259935
    43  H    0.143674
    44  H    0.148583
    45  O   -0.614546
    46  C   -0.293340
    47  H    0.164436
    48  H    0.142549
    49  C   -0.157305
    50  H    0.168104
    51  H    0.233876
    52  N   -0.604981
    53  H    0.342978
    54  N   -0.758203
    55  H    0.349093
    56  H    0.437764
    57  N   -0.769397
    58  H    0.369970
    59  H    0.363769
    60  C    0.794754
    61  O   -0.573044
    62  H    0.427578
 Sum of Mulliken charges =   1.00000

 Dipole moment (field-independent basis, Debye):
    X=              8.6659    Y=              1.8873    Z=            -14.3481  Tot=             16.8680
 Quadrupole moment (field-independent basis, Debye-Ang):
   XX=            -95.3846   YY=            -63.2715   ZZ=           -122.0111
   XY=             80.2364   XZ=            -38.3350   YZ=             -4.6945

 Normal termination of Gaussian 16 at Wed Jun  1 02:21:23 2022.
