 Gaussian 16, Revision C.01,
 Gaussian 16:  ES64L-G16RevC.01  3-Jul-2019

 ----------------------------------------------------------------------
 # B3LYP/6-31G* empiricaldispersion=gd3 guess=read geom=check nosymm in
 tegral(ultrafinegrid)
 ----------------------------------------------------------------------

 -----------------------------------------------------
 Candidate Structure: Conf:14 Charge calc in gas phase
 -----------------------------------------------------
 Structure from the checkpoint file:  "conf-14.chk"
 Charge =  1 Multiplicity = 1

                          Input orientation:
 ---------------------------------------------------------------------
 Center     Atomic      Atomic             Coordinates (Angstroms)
 Number     Number       Type             X           Y           Z
 ---------------------------------------------------------------------
      1          7           0       -4.288945   -1.032993   -2.996892
      2          1           0       -4.782350   -1.778372   -2.495776
      3          1           0       -4.360975   -0.142650   -2.422637
      4          1           0       -4.711426   -0.920643   -3.922796
      5          6           0       -2.785874   -1.240154   -3.037385
      6          1           0       -2.575819   -2.311212   -2.987091
      7          6           0       -2.318965   -0.457653   -1.779510
      8          6           0       -2.231071   -0.603584   -4.327050
      9          1           0       -2.426170    0.475677   -4.284488
     10          1           0       -2.778048   -1.002562   -5.189840
     11          8           0       -3.062681    0.458633   -1.394283
     12          6           0       -0.727848   -0.862487   -4.535941
     13          1           0       -0.116888   -0.565839   -3.683619
     14          1           0       -0.557161   -1.935053   -4.699563
     15          6           0       -0.172774   -0.122332   -5.739583
     16          8           0        0.861291    0.502301   -5.750517
     17          8           0       -0.978457   -0.255550   -6.820859
     18          7           0       -1.148906   -0.805394   -1.264040
     19          1           0       -0.558627   -1.487268   -1.748983
     20          6           0       -0.311784    0.069426   -0.429911
     21          1           0       -0.757064    1.066899   -0.433401
     22          6           0        1.047937    0.073035   -1.170480
     23          6           0       -0.163169   -0.458898    1.006220
     24          1           0        0.534708    0.206098    1.532014
     25          1           0        0.321590   -1.442956    0.956687
     26          8           0        1.308252   -0.860751   -1.951072
     27          6           0       -1.476657   -0.560489    1.803233
     28          1           0       -2.161709   -1.211644    1.238606
     29          6           0       -1.202376   -1.223768    3.160928
     30          1           0       -0.522959   -0.608496    3.763792
     31          1           0       -2.130150   -1.348337    3.729936
     32          1           0       -0.742737   -2.211973    3.042291
     33          6           0       -2.154502    0.805536    1.987565
     34          1           0       -1.476159    1.512004    2.482947
     35          1           0       -2.473559    1.240557    1.034900
     36          1           0       -3.045851    0.709067    2.617410
     37          7           0        1.858744    1.092602   -0.916494
     38          1           0        1.635312    1.853609   -0.271707
     39          6           0        3.178495    1.266124   -1.524327
     40          1           0        3.712914    0.312551   -1.498944
     41          6           0        3.901769    2.318357   -0.634120
     42          6           0        2.998914    1.728974   -3.000671
     43          1           0        2.664733    2.775447   -2.992922
     44          1           0        2.173566    1.140868   -3.411375
     45          8           0        5.177596    2.312257   -0.693405
     46          6           0        4.200274    1.545616   -3.960402
     47          1           0        4.881884    0.774879   -3.577790
     48          1           0        3.823445    1.167987   -4.917646
     49          6           0        5.008672    2.813177   -4.277668
     50          1           0        4.339685    3.597050   -4.655386
     51          1           0        5.744459    2.593084   -5.062080
     52          7           0        5.688928    3.288157   -3.071496
     53          1           0        5.671110    2.633225   -2.261153
     54          7           0        5.723804    5.564477   -3.588982
     55          1           0        5.859764    6.517895   -3.285763
     56          1           0        5.975651    5.368847   -4.547071
     57          7           0        5.944556    4.812731   -1.378751
     58          1           0        6.094302    5.749334   -1.036024
     59          1           0        5.706946    4.035199   -0.728404
     60          6           0        5.791576    4.558079   -2.680000
     61          8           0        3.180487    3.096930    0.011182
     62          1           0       -0.554059    0.223087   -7.558842
 ---------------------------------------------------------------------

 SCF Done:  E(RB3LYP) =  -1447.47471569     A.U. after    2 cycles

 Alpha  occ. eigenvalues --  -19.30097 -19.26968 -19.24405 -19.20640 -19.15469
 Alpha  occ. eigenvalues --  -19.14916 -14.60997 -14.49232 -14.47257 -14.44564
 Alpha  occ. eigenvalues --  -14.44129 -14.43582 -10.43706 -10.42801 -10.41971
 Alpha  occ. eigenvalues --  -10.41570 -10.37513 -10.34971 -10.33556 -10.33077
 Alpha  occ. eigenvalues --  -10.31908 -10.31093 -10.28661 -10.27471 -10.26956
 Alpha  occ. eigenvalues --  -10.26550 -10.25658 -10.24367 -10.24296  -1.20844
 Alpha  occ. eigenvalues --   -1.19530  -1.14599  -1.12476  -1.11959  -1.10753
 Alpha  occ. eigenvalues --   -1.08547  -1.05933  -1.01029  -1.00074  -0.99003
 Alpha  occ. eigenvalues --   -0.98615  -0.95282  -0.90107  -0.87443  -0.86776
 Alpha  occ. eigenvalues --   -0.84402  -0.80993  -0.79177  -0.75588  -0.75283
 Alpha  occ. eigenvalues --   -0.74917  -0.74367  -0.73385  -0.72497  -0.71359
 Alpha  occ. eigenvalues --   -0.70693  -0.68514  -0.67362  -0.66711  -0.65331
 Alpha  occ. eigenvalues --   -0.64467  -0.64166  -0.63886  -0.61433  -0.59975
 Alpha  occ. eigenvalues --   -0.59431  -0.59270  -0.58713  -0.58342  -0.57324
 Alpha  occ. eigenvalues --   -0.57030  -0.56346  -0.55803  -0.55088  -0.54408
 Alpha  occ. eigenvalues --   -0.53982  -0.53308  -0.52520  -0.52373  -0.51670
 Alpha  occ. eigenvalues --   -0.50862  -0.50678  -0.50207  -0.49833  -0.49104
 Alpha  occ. eigenvalues --   -0.48529  -0.48308  -0.47700  -0.47271  -0.46675
 Alpha  occ. eigenvalues --   -0.46375  -0.45421  -0.45110  -0.44175  -0.43216
 Alpha  occ. eigenvalues --   -0.42525  -0.42209  -0.41689  -0.41435  -0.40974
 Alpha  occ. eigenvalues --   -0.40667  -0.40353  -0.40127  -0.38766  -0.37859
 Alpha  occ. eigenvalues --   -0.37796  -0.34941  -0.34496  -0.33725  -0.30733
 Alpha  occ. eigenvalues --   -0.30033  -0.29265
 Alpha virt. eigenvalues --   -0.12889  -0.11662  -0.09644  -0.07034  -0.06625
 Alpha virt. eigenvalues --   -0.06403  -0.04874  -0.03245  -0.02760  -0.01691
 Alpha virt. eigenvalues --   -0.01308  -0.00952   0.00662   0.00693   0.01217

 Mulliken charges:
               1
     1  N   -0.749977
     2  H    0.419833
     3  H    0.432167
     4  H    0.414068
     5  C   -0.119231
     6  H    0.213256
     7  C    0.644101
     8  C   -0.299814
     9  H    0.191590
    10  H    0.190816
    11  O   -0.535893
    12  C   -0.390857
    13  H    0.231307
    14  H    0.195256
    15  C    0.585105
    16  O   -0.435388
    17  O   -0.563263
    18  N   -0.574774
    19  H    0.367833
    20  C   -0.101148
    21  H    0.193424
    22  C    0.640573
    23  C   -0.257686
    24  H    0.167493
    25  H    0.153728
    26  O   -0.568175
    27  C   -0.069732
    28  H    0.111219
    29  C   -0.445776
    30  H    0.156423
    31  H    0.153370
    32  H    0.147152
    33  C   -0.467776
    34  H    0.152020
    35  H    0.160051
    36  H    0.153805
    37  N   -0.607115
    38  H    0.360922
    39  C   -0.040180
    40  H    0.173352
    41  C    0.594090
    42  C   -0.286062
    43  H    0.141756
    44  H    0.178575
    45  O   -0.637439
    46  C   -0.306752
    47  H    0.168931
    48  H    0.171162
    49  C   -0.148495
    50  H    0.161262
    51  H    0.164900
    52  N   -0.607708
    53  H    0.406071
    54  N   -0.754420
    55  H    0.362347
    56  H    0.369196
    57  N   -0.768344
    58  H    0.349968
    59  H    0.420172
    60  C    0.767393
    61  O   -0.556397
    62  H    0.427717
 Sum of Mulliken charges =   1.00000

 Dipole moment (field-independent basis, Debye):
    X=             -6.3614    Y=              3.6030    Z=            -19.7520  Tot=             21.0616
 Quadrupole moment (field-independent basis, Debye-Ang):
   XX=            -61.6947   YY=           -102.1219   ZZ=            -79.1622
   XY=             82.0620   XZ=              2.7741   YZ=            -26.4323

 Normal termination of Gaussian 16 at Wed Jun  1 02:12:03 2022.
