 Gaussian 16, Revision C.01,
 Gaussian 16:  ES64L-G16RevC.01  3-Jul-2019

 ----------------------------------------------------------------------
 # B3LYP/6-31G* empiricaldispersion=gd3 guess=read geom=check nosymm in
 tegral(ultrafinegrid)
 ----------------------------------------------------------------------

 ------------------------------------------------------
 Candidate Structure: Conf:879 Charge calc in gas phase
 ------------------------------------------------------
 Structure from the checkpoint file:  "conf-879.chk"
 Charge =  1 Multiplicity = 1

                          Input orientation:
 ---------------------------------------------------------------------
 Center     Atomic      Atomic             Coordinates (Angstroms)
 Number     Number       Type             X           Y           Z
 ---------------------------------------------------------------------
      1          7           0       -3.564248   -2.483730   -3.068364
      2          1           0       -3.947025   -1.858245   -2.313423
      3          1           0       -3.743150   -2.018460   -3.963690
      4          1           0       -3.966166   -3.430526   -3.095272
      5          6           0       -2.089491   -2.540645   -2.744552
      6          1           0       -1.989482   -3.369776   -2.037223
      7          6           0       -1.850400   -1.220104   -1.961806
      8          6           0       -1.228370   -2.792953   -3.984148
      9          1           0       -0.208332   -2.995913   -3.642068
     10          1           0       -1.180464   -1.884713   -4.596352
     11          8           0       -2.854140   -0.655406   -1.497718
     12          6           0       -1.701500   -3.970436   -4.871268
     13          1           0       -2.632225   -3.716140   -5.391210
     14          1           0       -0.941143   -4.167123   -5.629671
     15          6           0       -1.909714   -5.253046   -4.089567
     16          8           0       -1.122092   -6.149092   -3.958735
     17          8           0       -3.149375   -5.264401   -3.481381
     18          7           0       -0.595103   -0.828725   -1.828193
     19          1           0        0.206899   -1.309494   -2.247850
     20          6           0       -0.151973    0.335768   -1.058091
     21          1           0       -0.777170    1.192105   -1.326749
     22          6           0        1.306660    0.541412   -1.528494
     23          6           0       -0.256590    0.048113    0.459867
     24          1           0        0.402572   -0.801348    0.681704
     25          1           0       -1.286890   -0.282518    0.645550
     26          8           0        1.887261   -0.382126   -2.118127
     27          6           0        0.061796    1.215028    1.416927
     28          1           0        1.102727    1.528318    1.277172
     29          6           0       -0.839338    2.434963    1.174100
     30          1           0       -1.898795    2.166844    1.278187
     31          1           0       -0.613518    3.223911    1.898139
     32          1           0       -0.704029    2.873831    0.178010
     33          6           0       -0.080122    0.724093    2.865691
     34          1           0       -1.112108    0.415660    3.078599
     35          1           0        0.576291   -0.131020    3.065041
     36          1           0        0.183793    1.519982    3.570007
     37          7           0        1.850169    1.724300   -1.234903
     38          1           0        1.358389    2.410208   -0.662663
     39          6           0        3.282654    2.017468   -1.282266
     40          1           0        3.840677    1.078474   -1.279004
     41          6           0        3.582505    2.849800   -0.006338
     42          6           0        3.597895    2.831792   -2.559784
     43          1           0        3.107958    3.809869   -2.461409
     44          1           0        3.104929    2.317894   -3.393641
     45          8           0        4.782266    2.790060    0.416190
     46          6           0        5.075835    3.012779   -2.950043
     47          1           0        5.560095    2.031176   -3.029012
     48          1           0        5.098556    3.440715   -3.963074
     49          6           0        5.963620    3.869289   -2.033959
     50          1           0        6.948464    3.998448   -2.500047
     51          1           0        6.086987    3.371193   -1.076339
     52          7           0        5.387601    5.204457   -1.797995
     53          1           0        5.050703    5.696601   -2.615469
     54          7           0        5.457469    5.279858    0.538223
     55          1           0        5.408929    5.858858    1.365602
     56          1           0        5.213283    4.230948    0.655797
     57          7           0        4.977555    7.194078   -0.711929
     58          1           0        4.785736    7.710756    0.133512
     59          1           0        5.279607    7.738071   -1.507282
     60          6           0        5.282857    5.868867   -0.633834
     61          8           0        2.653065    3.554746    0.432165
     62          1           0       -3.229663   -6.114348   -3.004733
 ---------------------------------------------------------------------

 SCF Done:  E(RB3LYP) =  -1447.47325271     A.U. after    2 cycles

 Alpha  occ. eigenvalues --  -19.33447 -19.27091 -19.25328 -19.19895 -19.15173
 Alpha  occ. eigenvalues --  -19.14723 -14.59331 -14.48016 -14.47186 -14.46945
 Alpha  occ. eigenvalues --  -14.43792 -14.42787 -10.45251 -10.42574 -10.42456
 Alpha  occ. eigenvalues --  -10.40449 -10.36804 -10.35284 -10.34253 -10.32778
 Alpha  occ. eigenvalues --  -10.32692 -10.29903 -10.28192 -10.26644 -10.26609
 Alpha  occ. eigenvalues --  -10.25762 -10.25460 -10.23685 -10.23262  -1.23436
 Alpha  occ. eigenvalues --   -1.18010  -1.14905  -1.13302  -1.11680  -1.10978
 Alpha  occ. eigenvalues --   -1.08463  -1.04670  -1.00663  -1.00570  -0.98980
 Alpha  occ. eigenvalues --   -0.98164  -0.95445  -0.89568  -0.87577  -0.86794
 Alpha  occ. eigenvalues --   -0.83425  -0.80966  -0.79770  -0.75537  -0.74895
 Alpha  occ. eigenvalues --   -0.74492  -0.74204  -0.73522  -0.72392  -0.71283
 Alpha  occ. eigenvalues --   -0.69318  -0.68528  -0.67198  -0.65863  -0.65043
 Alpha  occ. eigenvalues --   -0.64508  -0.64272  -0.63046  -0.61374  -0.60990
 Alpha  occ. eigenvalues --   -0.60648  -0.59728  -0.59332  -0.58453  -0.57624
 Alpha  occ. eigenvalues --   -0.57329  -0.55845  -0.55292  -0.54732  -0.54502
 Alpha  occ. eigenvalues --   -0.53747  -0.53539  -0.52697  -0.52271  -0.51253
 Alpha  occ. eigenvalues --   -0.51009  -0.50636  -0.50412  -0.49968  -0.49551
 Alpha  occ. eigenvalues --   -0.49410  -0.48733  -0.48097  -0.46848  -0.45548
 Alpha  occ. eigenvalues --   -0.45351  -0.44883  -0.44498  -0.44307  -0.43724
 Alpha  occ. eigenvalues --   -0.43285  -0.42747  -0.41256  -0.40900  -0.40379
 Alpha  occ. eigenvalues --   -0.40027  -0.39865  -0.39384  -0.38768  -0.37702
 Alpha  occ. eigenvalues --   -0.36957  -0.35079  -0.34282  -0.33515  -0.30639
 Alpha  occ. eigenvalues --   -0.29402  -0.28969
 Alpha virt. eigenvalues --   -0.12919  -0.11441  -0.09388  -0.07178  -0.05855
 Alpha virt. eigenvalues --   -0.05517  -0.04107  -0.02905  -0.02402  -0.01752
 Alpha virt. eigenvalues --   -0.01121  -0.00355  -0.00091   0.00115   0.01204

 Mulliken charges:
               1
     1  N   -0.755684
     2  H    0.429917
     3  H    0.405634
     4  H    0.428928
     5  C   -0.124501
     6  H    0.232382
     7  C    0.664427
     8  C   -0.319980
     9  H    0.220644
    10  H    0.194371
    11  O   -0.551193
    12  C   -0.361699
    13  H    0.171487
    14  H    0.229255
    15  C    0.580510
    16  O   -0.396266
    17  O   -0.608489
    18  N   -0.624128
    19  H    0.375730
    20  C   -0.066882
    21  H    0.185856
    22  C    0.617163
    23  C   -0.260072
    24  H    0.148212
    25  H    0.157998
    26  O   -0.560525
    27  C   -0.102960
    28  H    0.166166
    29  C   -0.450523
    30  H    0.143745
    31  H    0.169348
    32  H    0.133119
    33  C   -0.447075
    34  H    0.139531
    35  H    0.147421
    36  H    0.160808
    37  N   -0.611191
    38  H    0.372208
    39  C   -0.048417
    40  H    0.173607
    41  C    0.598113
    42  C   -0.258624
    43  H    0.137175
    44  H    0.153840
    45  O   -0.619190
    46  C   -0.293030
    47  H    0.168398
    48  H    0.137486
    49  C   -0.158099
    50  H    0.164235
    51  H    0.234527
    52  N   -0.603096
    53  H    0.342006
    54  N   -0.758332
    55  H    0.345294
    56  H    0.439907
    57  N   -0.767411
    58  H    0.365695
    59  H    0.360573
    60  C    0.786428
    61  O   -0.573849
    62  H    0.439074
 Sum of Mulliken charges =   1.00000

 Dipole moment (field-independent basis, Debye):
    X=             -2.6827    Y=              3.1387    Z=            -15.4634  Tot=             16.0052
 Quadrupole moment (field-independent basis, Debye-Ang):
   XX=            -82.5476   YY=            -32.5212   ZZ=           -110.3410
   XY=            118.4906   XZ=             20.4916   YZ=             14.0109

 Normal termination of Gaussian 16 at Wed Jun  1 02:21:23 2022.
