 Gaussian 16, Revision C.01,
 Gaussian 16:  ES64L-G16RevC.01  3-Jul-2019

 ----------------------------------------------------------------------
 # B3LYP/6-31G* empiricaldispersion=gd3 guess=read geom=check nosymm in
 tegral(ultrafinegrid)
 ----------------------------------------------------------------------

 ------------------------------------------------------
 Candidate Structure: Conf:217 Charge calc in gas phase
 ------------------------------------------------------
 Structure from the checkpoint file:  "conf-217.chk"
 Charge =  1 Multiplicity = 1

                          Input orientation:
 ---------------------------------------------------------------------
 Center     Atomic      Atomic             Coordinates (Angstroms)
 Number     Number       Type             X           Y           Z
 ---------------------------------------------------------------------
      1          7           0       -3.642128   -1.015395   -3.545119
      2          1           0       -4.194491   -1.802920   -3.191892
      3          1           0       -3.799438   -0.180544   -2.898623
      4          1           0       -3.932551   -0.811439   -4.505273
      5          6           0       -2.148972   -1.219887   -3.381376
      6          1           0       -1.933295   -2.290857   -3.393433
      7          6           0       -1.887463   -0.541941   -2.004881
      8          6           0       -1.417563   -0.458624   -4.508027
      9          1           0       -1.608075    0.611395   -4.372883
     10          1           0       -1.852335   -0.745567   -5.474669
     11          8           0       -2.699820    0.334277   -1.669062
     12          6           0        0.096644   -0.722276   -4.541717
     13          1           0        0.577938   -0.600154   -3.557905
     14          1           0        0.315207   -1.752273   -4.847188
     15          6           0        0.884779    0.185430   -5.454018
     16          8           0        2.074591    0.034452   -5.691578
     17          8           0        0.175426    1.201596   -5.956221
     18          7           0       -0.799132   -0.916842   -1.349829
     19          1           0       -0.137782   -1.552706   -1.799413
     20          6           0       -0.089519   -0.069500   -0.375150
     21          1           0       -0.632732    0.873770   -0.298061
     22          6           0        1.300126    0.140455   -1.023794
     23          6           0        0.002187   -0.759718    0.999879
     24          1           0        0.553874   -1.701077    0.870775
     25          1           0       -1.020098   -1.026596    1.300904
     26          8           0        1.704559   -0.704073   -1.863486
     27          6           0        0.655841    0.076652    2.121482
     28          1           0        1.674214    0.350065    1.820360
     29          6           0       -0.110551    1.377237    2.404054
     30          1           0       -1.150018    1.166113    2.688803
     31          1           0        0.365445    1.924776    3.222617
     32          1           0       -0.122295    2.059115    1.546709
     33          6           0        0.754955   -0.778940    3.392903
     34          1           0       -0.241401   -1.065892    3.754001
     35          1           0        1.327619   -1.697544    3.217063
     36          1           0        1.252427   -0.221481    4.193119
     37          7           0        1.960877    1.210069   -0.635853
     38          1           0        1.693661    1.836015    0.159508
     39          6           0        3.359339    1.515812   -0.913554
     40          1           0        3.967132    0.623426   -0.712541
     41          6           0        3.739001    2.638132    0.144006
     42          6           0        3.570965    1.940560   -2.370883
     43          1           0        3.024905    2.874998   -2.560427
     44          1           0        3.126834    1.164196   -3.009915
     45          8           0        4.871871    3.127302    0.013274
     46          6           0        5.052225    2.126521   -2.720311
     47          1           0        5.434094    3.018492   -2.218690
     48          1           0        5.631774    1.290643   -2.306416
     49          6           0        5.292570    2.212755   -4.228998
     50          1           0        6.346529    2.391719   -4.472789
     51          1           0        4.735057    3.041522   -4.673656
     52          7           0        4.834537    0.997584   -4.947671
     53          1           0        3.900833    1.018521   -5.344380
     54          7           0        6.580843   -0.403136   -4.291853
     55          1           0        6.834544   -1.273826   -3.847090
     56          1           0        7.144687    0.397960   -4.047641
     57          7           0        4.573586   -1.298743   -5.030026
     58          1           0        4.988412   -2.212760   -5.132493
     59          1           0        3.585270   -1.173039   -5.233192
     60          6           0        5.323930   -0.224861   -4.743086
     61          8           0        2.819865    2.873119    0.979647
     62          1           0        0.766072    1.752839   -6.505906
 ---------------------------------------------------------------------

 SCF Done:  E(RB3LYP) =  -1447.43465157     A.U. after    1 cycles

 Alpha  occ. eigenvalues --  -19.34603 -19.29195 -19.27340 -19.20353 -19.10529
 Alpha  occ. eigenvalues --  -19.09382 -14.61497 -14.50705 -14.50040 -14.49836
 Alpha  occ. eigenvalues --  -14.49555 -14.41764 -10.47608 -10.46643 -10.44102
 Alpha  occ. eigenvalues --  -10.42450 -10.36769 -10.36371 -10.34414 -10.33452
 Alpha  occ. eigenvalues --  -10.33012 -10.28441 -10.26802 -10.26371 -10.25976
 Alpha  occ. eigenvalues --  -10.25308 -10.25047 -10.22835 -10.22594  -1.25663
 Alpha  occ. eigenvalues --   -1.20044  -1.16442  -1.15150  -1.15035  -1.11611
 Alpha  occ. eigenvalues --   -1.06142  -1.04220  -1.03700  -1.03471  -0.98792
 Alpha  occ. eigenvalues --   -0.96681  -0.94872  -0.90179  -0.88374  -0.87737
 Alpha  occ. eigenvalues --   -0.83828  -0.81924  -0.80555  -0.77823  -0.76239
 Alpha  occ. eigenvalues --   -0.75191  -0.74764  -0.73996  -0.73653  -0.73514
 Alpha  occ. eigenvalues --   -0.72516  -0.70998  -0.69715  -0.67455  -0.66642
 Alpha  occ. eigenvalues --   -0.65499  -0.65069  -0.63838  -0.63425  -0.62998
 Alpha  occ. eigenvalues --   -0.62404  -0.61664  -0.61394  -0.59725  -0.59555
 Alpha  occ. eigenvalues --   -0.58618  -0.57457  -0.56439  -0.55713  -0.55040
 Alpha  occ. eigenvalues --   -0.54681  -0.53937  -0.53431  -0.53278  -0.52585
 Alpha  occ. eigenvalues --   -0.52252  -0.51658  -0.51170  -0.50688  -0.49741
 Alpha  occ. eigenvalues --   -0.48997  -0.48558  -0.47111  -0.46475  -0.46235
 Alpha  occ. eigenvalues --   -0.44847  -0.44123  -0.43826  -0.43096  -0.42744
 Alpha  occ. eigenvalues --   -0.42573  -0.42169  -0.42002  -0.41461  -0.40833
 Alpha  occ. eigenvalues --   -0.40534  -0.39807  -0.38883  -0.38696  -0.38474
 Alpha  occ. eigenvalues --   -0.37936  -0.37790  -0.34610  -0.32735  -0.25617
 Alpha  occ. eigenvalues --   -0.25429  -0.23621
 Alpha virt. eigenvalues --   -0.13929  -0.13388  -0.12171  -0.11148  -0.07941
 Alpha virt. eigenvalues --   -0.06865  -0.06457  -0.05948  -0.04996  -0.03302
 Alpha virt. eigenvalues --   -0.02712  -0.02531  -0.01227  -0.00506   0.00020

 Mulliken charges:
               1
     1  N   -0.751774
     2  H    0.420688
     3  H    0.435238
     4  H    0.412389
     5  C   -0.119294
     6  H    0.209849
     7  C    0.640263
     8  C   -0.291249
     9  H    0.211512
    10  H    0.175546
    11  O   -0.531549
    12  C   -0.426411
    13  H    0.266150
    14  H    0.193948
    15  C    0.623798
    16  O   -0.496002
    17  O   -0.537701
    18  N   -0.570103
    19  H    0.353902
    20  C   -0.102594
    21  H    0.201004
    22  C    0.618188
    23  C   -0.249832
    24  H    0.141997
    25  H    0.147072
    26  O   -0.601686
    27  C   -0.097825
    28  H    0.166036
    29  C   -0.450281
    30  H    0.132755
    31  H    0.180569
    32  H    0.149401
    33  C   -0.447390
    34  H    0.139540
    35  H    0.140544
    36  H    0.166769
    37  N   -0.610433
    38  H    0.395325
    39  C   -0.064615
    40  H    0.143803
    41  C    0.593790
    42  C   -0.268478
    43  H    0.142477
    44  H    0.108748
    45  O   -0.572702
    46  C   -0.266997
    47  H    0.227253
    48  H    0.128802
    49  C   -0.197237
    50  H    0.173059
    51  H    0.181685
    52  N   -0.591935
    53  H    0.380651
    54  N   -0.744229
    55  H    0.377189
    56  H    0.389040
    57  N   -0.783460
    58  H    0.368279
    59  H    0.404688
    60  C    0.802106
    61  O   -0.605665
    62  H    0.435387
 Sum of Mulliken charges =   1.00000

 Dipole moment (field-independent basis, Debye):
    X=             -2.9069    Y=            -11.9947    Z=            -30.7300  Tot=             33.1158
 Quadrupole moment (field-independent basis, Debye-Ang):
   XX=            -68.8287   YY=           -174.2966   ZZ=            -33.2815
   XY=            -17.3856   XZ=            -36.7360   YZ=              4.7086

 Normal termination of Gaussian 16 at Wed Jun  1 02:11:56 2022.
