 Gaussian 16, Revision C.01,
 Gaussian 16:  ES64L-G16RevC.01  3-Jul-2019

 ----------------------------------------------------------------------
 # B3LYP/6-31G* empiricaldispersion=gd3 guess=read geom=check nosymm in
 tegral(ultrafinegrid)
 ----------------------------------------------------------------------

 ------------------------------------------------------
 Candidate Structure: Conf:497 Charge calc in gas phase
 ------------------------------------------------------
 Structure from the checkpoint file:  "conf-497.chk"
 Charge =  1 Multiplicity = 1

                          Input orientation:
 ---------------------------------------------------------------------
 Center     Atomic      Atomic             Coordinates (Angstroms)
 Number     Number       Type             X           Y           Z
 ---------------------------------------------------------------------
      1          7           0       -4.486135   -1.475112   -2.580098
      2          1           0       -4.873256   -2.381166   -2.305334
      3          1           0       -4.528645   -0.792853   -1.746863
      4          1           0       -5.025385   -1.115217   -3.371529
      5          6           0       -2.989814   -1.500228   -2.832642
      6          1           0       -2.654787   -2.539304   -2.776041
      7          6           0       -2.441701   -0.675338   -1.630253
      8          6           0       -2.633652   -0.872231   -4.182309
      9          1           0       -1.547204   -0.748503   -4.229507
     10          1           0       -3.038761    0.146463   -4.230116
     11          8           0       -3.279836   -0.111112   -0.904509
     12          6           0       -3.095245   -1.694235   -5.388752
     13          1           0       -2.689176   -2.713515   -5.353746
     14          1           0       -4.186412   -1.807031   -5.443222
     15          6           0       -2.632338   -1.049695   -6.687058
     16          8           0       -1.915031   -0.078666   -6.749594
     17          8           0       -3.124136   -1.709752   -7.751440
     18          7           0       -1.128669   -0.643587   -1.501468
     19          1           0       -0.506749   -1.013109   -2.229438
     20          6           0       -0.373940    0.237402   -0.605939
     21          1           0       -0.971477    1.131571   -0.408806
     22          6           0        0.887838    0.597727   -1.427538
     23          6           0        0.017963   -0.461255    0.710762
     24          1           0        0.689596    0.211592    1.259851
     25          1           0        0.610693   -1.348762    0.451236
     26          8           0        1.168910   -0.068913   -2.438611
     27          6           0       -1.153010   -0.860738    1.627732
     28          1           0       -1.847172   -1.484975    1.045481
     29          6           0       -0.620979   -1.705140    2.795383
     30          1           0        0.081713   -1.124757    3.406127
     31          1           0       -1.438725   -2.028564    3.448672
     32          1           0       -0.096355   -2.600494    2.441003
     33          6           0       -1.925166    0.361197    2.145097
     34          1           0       -1.257289    1.039929    2.690502
     35          1           0       -2.402629    0.919128    1.334054
     36          1           0       -2.716704    0.050609    2.836040
     37          7           0        1.606924    1.611126   -0.956681
     38          1           0        1.409413    2.085532   -0.069201
     39          6           0        2.909234    2.009565   -1.472505
     40          1           0        3.550252    1.118346   -1.506723
     41          6           0        3.515916    2.964397   -0.382516
     42          6           0        2.820349    2.616316   -2.906115
     43          1           0        3.122159    3.671025   -2.883932
     44          1           0        1.768453    2.603949   -3.202468
     45          8           0        4.685214    3.413306   -0.646286
     46          6           0        3.628711    1.849008   -3.975049
     47          1           0        3.574089    0.776447   -3.755630
     48          1           0        3.165069    1.990265   -4.959016
     49          6           0        5.097944    2.292066   -4.111961
     50          1           0        5.145274    3.273962   -4.597129
     51          1           0        5.643085    1.587993   -4.749156
     52          7           0        5.749770    2.416929   -2.811195
     53          1           0        5.241803    2.981677   -2.063007
     54          7           0        7.526019    0.902600   -3.055359
     55          1           0        8.222989    0.318844   -2.618084
     56          1           0        7.645868    1.102716   -4.036198
     57          7           0        6.865406    1.674052   -0.953875
     58          1           0        7.777851    1.513262   -0.551476
     59          1           0        6.206250    2.270275   -0.435127
     60          6           0        6.717243    1.680270   -2.295882
     61          8           0        2.835399    3.171525    0.628654
     62          1           0       -2.788518   -1.266808   -8.554766
 ---------------------------------------------------------------------

 SCF Done:  E(RB3LYP) =  -1447.47063552     A.U. after    2 cycles

 Alpha  occ. eigenvalues --  -19.30228 -19.27070 -19.24874 -19.20725 -19.15686
 Alpha  occ. eigenvalues --  -19.14995 -14.60055 -14.48983 -14.47568 -14.45257
 Alpha  occ. eigenvalues --  -14.44587 -14.43134 -10.43535 -10.43344 -10.42533
 Alpha  occ. eigenvalues --  -10.41196 -10.37381 -10.34420 -10.33690 -10.33407
 Alpha  occ. eigenvalues --  -10.33362 -10.31528 -10.28982 -10.27458 -10.26871
 Alpha  occ. eigenvalues --  -10.26518 -10.25879 -10.24357 -10.24119  -1.21279
 Alpha  occ. eigenvalues --   -1.19450  -1.13883  -1.12550  -1.12351  -1.11134
 Alpha  occ. eigenvalues --   -1.08647  -1.05810  -1.01288  -1.00323  -0.99147
 Alpha  occ. eigenvalues --   -0.99064  -0.95300  -0.90239  -0.87880  -0.87088
 Alpha  occ. eigenvalues --   -0.84337  -0.81086  -0.79367  -0.75827  -0.75325
 Alpha  occ. eigenvalues --   -0.75087  -0.74354  -0.73102  -0.72871  -0.70964
 Alpha  occ. eigenvalues --   -0.70297  -0.68486  -0.68021  -0.66615  -0.65171
 Alpha  occ. eigenvalues --   -0.64203  -0.63966  -0.63320  -0.61477  -0.60627
 Alpha  occ. eigenvalues --   -0.60183  -0.59867  -0.59293  -0.58887  -0.58516
 Alpha  occ. eigenvalues --   -0.56992  -0.56402  -0.56008  -0.55371  -0.54173
 Alpha  occ. eigenvalues --   -0.53651  -0.53415  -0.52648  -0.52306  -0.51769
 Alpha  occ. eigenvalues --   -0.51178  -0.50924  -0.50272  -0.50101  -0.49242
 Alpha  occ. eigenvalues --   -0.49047  -0.48396  -0.48222  -0.47233  -0.46492
 Alpha  occ. eigenvalues --   -0.46192  -0.45647  -0.45341  -0.44133  -0.43251
 Alpha  occ. eigenvalues --   -0.42531  -0.42519  -0.42048  -0.41808  -0.41002
 Alpha  occ. eigenvalues --   -0.40794  -0.40332  -0.40135  -0.38570  -0.38483
 Alpha  occ. eigenvalues --   -0.38165  -0.34949  -0.34843  -0.33481  -0.31151
 Alpha  occ. eigenvalues --   -0.30153  -0.29285
 Alpha virt. eigenvalues --   -0.12219  -0.11879  -0.09761  -0.07196  -0.06743
 Alpha virt. eigenvalues --   -0.06162  -0.04483  -0.03789  -0.02190  -0.01554
 Alpha virt. eigenvalues --   -0.01115  -0.00783   0.00060   0.00354   0.01082

 Mulliken charges:
               1
     1  N   -0.762601
     2  H    0.415498
     3  H    0.438054
     4  H    0.410976
     5  C   -0.111847
     6  H    0.216010
     7  C    0.654969
     8  C   -0.305687
     9  H    0.228130
    10  H    0.193159
    11  O   -0.544389
    12  C   -0.377048
    13  H    0.203339
    14  H    0.169051
    15  C    0.597544
    16  O   -0.436775
    17  O   -0.557144
    18  N   -0.588432
    19  H    0.371477
    20  C   -0.091105
    21  H    0.195392
    22  C    0.631971
    23  C   -0.259614
    24  H    0.170837
    25  H    0.146023
    26  O   -0.572321
    27  C   -0.069838
    28  H    0.110445
    29  C   -0.446393
    30  H    0.157315
    31  H    0.153427
    32  H    0.142155
    33  C   -0.460793
    34  H    0.154232
    35  H    0.159161
    36  H    0.152787
    37  N   -0.621615
    38  H    0.367164
    39  C   -0.051153
    40  H    0.157426
    41  C    0.606882
    42  C   -0.293330
    43  H    0.167265
    44  H    0.163314
    45  O   -0.632878
    46  C   -0.271107
    47  H    0.168250
    48  H    0.152258
    49  C   -0.159055
    50  H    0.180467
    51  H    0.145726
    52  N   -0.614223
    53  H    0.428235
    54  N   -0.757803
    55  H    0.365813
    56  H    0.369879
    57  N   -0.778558
    58  H    0.350531
    59  H    0.409737
    60  C    0.761285
    61  O   -0.534381
    62  H    0.431905
 Sum of Mulliken charges =   1.00000

 Dipole moment (field-independent basis, Debye):
    X=             -2.0322    Y=             -8.6403    Z=            -18.7605  Tot=             20.7543
 Quadrupole moment (field-independent basis, Debye-Ang):
   XX=             13.8742   YY=           -173.1253   ZZ=            -89.8207
   XY=             29.4696   XZ=              1.8631   YZ=              7.3358

 Normal termination of Gaussian 16 at Wed Jun  1 02:21:22 2022.
