 Gaussian 16, Revision C.01,
 Gaussian 16:  ES64L-G16RevC.01  3-Jul-2019

 ----------------------------------------------------------------------
 # B3LYP/6-31G* empiricaldispersion=gd3 guess=read geom=check nosymm in
 tegral(ultrafinegrid)
 ----------------------------------------------------------------------

 ------------------------------------------------------
 Candidate Structure: Conf:112 Charge calc in gas phase
 ------------------------------------------------------
 Structure from the checkpoint file:  "conf-112.chk"
 Charge =  1 Multiplicity = 1

                          Input orientation:
 ---------------------------------------------------------------------
 Center     Atomic      Atomic             Coordinates (Angstroms)
 Number     Number       Type             X           Y           Z
 ---------------------------------------------------------------------
      1          7           0       -3.075622   -0.966147   -3.609589
      2          1           0       -3.647946   -1.814997   -3.634164
      3          1           0       -3.455895   -0.316245   -2.838011
      4          1           0       -3.108459   -0.518715   -4.528286
      5          6           0       -1.675902   -1.199084   -3.077623
      6          1           0       -1.445400   -2.264863   -3.149436
      7          6           0       -1.806035   -0.725729   -1.601782
      8          6           0       -0.636316   -0.337957   -3.816409
      9          1           0        0.240780   -0.242351   -3.162152
     10          1           0       -1.027637    0.680544   -3.933905
     11          8           0       -2.781952   -0.006086   -1.336097
     12          6           0       -0.226632   -0.929700   -5.167724
     13          1           0        0.244891   -1.910970   -5.041608
     14          1           0       -1.085833   -1.100491   -5.833974
     15          6           0        0.733222   -0.053951   -5.946935
     16          8           0        0.987207    1.115390   -5.696890
     17          8           0        1.251248   -0.718948   -6.980692
     18          7           0       -0.828385   -1.113348   -0.795540
     19          1           0       -0.015034   -1.528120   -1.252803
     20          6           0       -0.361466   -0.325489    0.362400
     21          1           0       -1.148853    0.381569    0.627848
     22          6           0        0.892338    0.409325   -0.182799
     23          6           0       -0.039237   -1.270128    1.537136
     24          1           0        0.752867   -1.957725    1.207634
     25          1           0       -0.935110   -1.880641    1.716916
     26          8           0        1.460616   -0.054949   -1.200013
     27          6           0        0.384919   -0.594613    2.857774
     28          1           0        1.280388    0.013747    2.690323
     29          6           0       -0.702598    0.336004    3.412413
     30          1           0       -1.631997   -0.215519    3.610176
     31          1           0       -0.363494    0.791414    4.346978
     32          1           0       -0.935579    1.165226    2.734662
     33          6           0        0.740386   -1.680078    3.883977
     34          1           0       -0.129891   -2.308940    4.115434
     35          1           0        1.541388   -2.333434    3.517440
     36          1           0        1.082953   -1.224092    4.818385
     37          7           0        1.269060    1.485185    0.488445
     38          1           0        0.915883    1.705520    1.448316
     39          6           0        2.600207    2.089328    0.441815
     40          1           0        3.339568    1.315203    0.206422
     41          6           0        2.857695    2.640716    1.913234
     42          6           0        2.718170    3.231711   -0.563534
     43          1           0        3.724928    3.644717   -0.436094
     44          1           0        2.009578    4.025793   -0.289937
     45          8           0        3.924547    3.248382    2.054903
     46          6           0        2.466360    2.795637   -2.008325
     47          1           0        3.101551    1.938093   -2.260511
     48          1           0        1.427821    2.455013   -2.111740
     49          6           0        2.721504    3.931606   -2.993699
     50          1           0        3.783083    4.209677   -2.976640
     51          1           0        2.125119    4.814397   -2.727815
     52          7           0        2.355097    3.496410   -4.355526
     53          1           0        1.939733    2.574820   -4.451351
     54          7           0        3.048718    5.439919   -5.414564
     55          1           0        3.004971    6.066633   -6.204550
     56          1           0        3.381118    5.824456   -4.542237
     57          7           0        1.989640    3.760235   -6.625798
     58          1           0        2.272627    4.181063   -7.498646
     59          1           0        1.621472    2.814393   -6.649258
     60          6           0        2.469466    4.228158   -5.455553
     61          8           0        1.910273    2.394033    2.718092
     62          1           0        1.867650   -0.138818   -7.466829
 ---------------------------------------------------------------------

 SCF Done:  E(RB3LYP) =  -1447.42039279     A.U. after    1 cycles

 Alpha  occ. eigenvalues --  -19.35712 -19.31236 -19.27521 -19.19234 -19.09402
 Alpha  occ. eigenvalues --  -19.08089 -14.61271 -14.52633 -14.51965 -14.51620
 Alpha  occ. eigenvalues --  -14.48751 -14.40518 -10.49233 -10.48507 -10.43764
 Alpha  occ. eigenvalues --  -10.42172 -10.36714 -10.35887 -10.35677 -10.34632
 Alpha  occ. eigenvalues --  -10.32151 -10.27611 -10.27159 -10.25774 -10.25018
 Alpha  occ. eigenvalues --  -10.24187 -10.23492 -10.21581 -10.21493  -1.27086
 Alpha  occ. eigenvalues --   -1.19985  -1.18192  -1.17041  -1.14788  -1.10548
 Alpha  occ. eigenvalues --   -1.05989  -1.05678  -1.05429  -1.02451  -0.97548
 Alpha  occ. eigenvalues --   -0.97136  -0.93690  -0.90916  -0.89388  -0.87413
 Alpha  occ. eigenvalues --   -0.83122  -0.82250  -0.81015  -0.78853  -0.76121
 Alpha  occ. eigenvalues --   -0.75483  -0.74778  -0.73944  -0.73806  -0.72896
 Alpha  occ. eigenvalues --   -0.72439  -0.71015  -0.70000  -0.68007  -0.67651
 Alpha  occ. eigenvalues --   -0.65921  -0.65446  -0.64822  -0.64044  -0.63675
 Alpha  occ. eigenvalues --   -0.62431  -0.62242  -0.61657  -0.61114  -0.58937
 Alpha  occ. eigenvalues --   -0.58622  -0.58231  -0.57502  -0.57072  -0.56357
 Alpha  occ. eigenvalues --   -0.55291  -0.54085  -0.53290  -0.53179  -0.52422
 Alpha  occ. eigenvalues --   -0.51619  -0.51389  -0.50607  -0.50188  -0.48524
 Alpha  occ. eigenvalues --   -0.48422  -0.48195  -0.47187  -0.46619  -0.45752
 Alpha  occ. eigenvalues --   -0.44976  -0.44653  -0.43578  -0.43357  -0.42837
 Alpha  occ. eigenvalues --   -0.42489  -0.42180  -0.41409  -0.40978  -0.40652
 Alpha  occ. eigenvalues --   -0.39859  -0.39566  -0.38444  -0.37670  -0.37298
 Alpha  occ. eigenvalues --   -0.37043  -0.36541  -0.33487  -0.31830  -0.24416
 Alpha  occ. eigenvalues --   -0.24262  -0.22320
 Alpha virt. eigenvalues --   -0.15963  -0.13132  -0.12486  -0.12101  -0.08638
 Alpha virt. eigenvalues --   -0.08091  -0.07262  -0.06025  -0.05333  -0.04416
 Alpha virt. eigenvalues --   -0.03361  -0.02923  -0.02199  -0.01509  -0.00868

 Mulliken charges:
               1
     1  N   -0.758261
     2  H    0.418650
     3  H    0.436114
     4  H    0.405425
     5  C   -0.124921
     6  H    0.215050
     7  C    0.641521
     8  C   -0.326445
     9  H    0.258207
    10  H    0.180445
    11  O   -0.530351
    12  C   -0.371702
    13  H    0.221915
    14  H    0.182087
    15  C    0.609944
    16  O   -0.490523
    17  O   -0.522466
    18  N   -0.548608
    19  H    0.350386
    20  C   -0.121358
    21  H    0.199579
    22  C    0.615983
    23  C   -0.252059
    24  H    0.139459
    25  H    0.144934
    26  O   -0.601663
    27  C   -0.101537
    28  H    0.180739
    29  C   -0.446137
    30  H    0.127011
    31  H    0.182306
    32  H    0.138342
    33  C   -0.447969
    34  H    0.133795
    35  H    0.140349
    36  H    0.167948
    37  N   -0.601129
    38  H    0.388339
    39  C   -0.089737
    40  H    0.153602
    41  C    0.599804
    42  C   -0.263412
    43  H    0.177766
    44  H    0.141781
    45  O   -0.567895
    46  C   -0.304295
    47  H    0.167229
    48  H    0.142381
    49  C   -0.145920
    50  H    0.183046
    51  H    0.180940
    52  N   -0.632091
    53  H    0.392768
    54  N   -0.762173
    55  H    0.380412
    56  H    0.397606
    57  N   -0.788482
    58  H    0.369299
    59  H    0.387309
    60  C    0.825685
    61  O   -0.610215
    62  H    0.431192
 Sum of Mulliken charges =   1.00000

 Dipole moment (field-independent basis, Debye):
    X=             -6.3108    Y=              2.4666    Z=            -40.6372  Tot=             41.1983
 Quadrupole moment (field-independent basis, Debye-Ang):
   XX=           -148.4784   YY=           -107.5391   ZZ=             12.8275
   XY=             32.1697   XZ=            -40.5376   YZ=            -87.7309

 Normal termination of Gaussian 16 at Wed Jun  1 02:11:55 2022.
