 Gaussian 16, Revision C.01,
 Gaussian 16:  ES64L-G16RevC.01  3-Jul-2019

 ----------------------------------------------------------------------
 # B3LYP/6-31G* empiricaldispersion=gd3 guess=read geom=check nosymm in
 tegral(ultrafinegrid)
 ----------------------------------------------------------------------

 -----------------------------------------------------
 Candidate Structure: Conf:34 Charge calc in gas phase
 -----------------------------------------------------
 Structure from the checkpoint file:  "conf-34.chk"
 Charge =  1 Multiplicity = 1

                          Input orientation:
 ---------------------------------------------------------------------
 Center     Atomic      Atomic             Coordinates (Angstroms)
 Number     Number       Type             X           Y           Z
 ---------------------------------------------------------------------
      1          7           0       -3.682188   -1.493506   -3.385700
      2          1           0       -4.199257   -2.308251   -3.046193
      3          1           0       -3.855407   -0.657178   -2.729071
      4          1           0       -3.991098   -1.281550   -4.337628
      5          6           0       -2.176620   -1.630091   -3.255735
      6          1           0       -1.953599   -2.656451   -2.952513
      7          6           0       -1.857039   -0.632341   -2.104998
      8          6           0       -1.463053   -1.262210   -4.559139
      9          1           0       -0.392527   -1.171230   -4.348974
     10          1           0       -1.776815   -0.261154   -4.879975
     11          8           0       -2.782105    0.106328   -1.722373
     12          6           0       -1.669841   -2.277853   -5.685988
     13          1           0       -1.290908   -3.268315   -5.405604
     14          1           0       -2.728314   -2.424517   -5.943713
     15          6           0       -0.953709   -1.830463   -6.951435
     16          8           0       -0.343331   -0.792612   -7.060454
     17          8           0       -1.096775   -2.742005   -7.930856
     18          7           0       -0.622862   -0.668208   -1.641024
     19          1           0        0.117967   -1.201255   -2.113290
     20          6           0       -0.021074    0.307862   -0.730869
     21          1           0       -0.537063    1.264831   -0.863805
     22          6           0        1.445890    0.400023   -1.231170
     23          6           0       -0.071401   -0.103232    0.754699
     24          1           0        0.463925    0.679805    1.304615
     25          1           0        0.514068   -1.022560    0.889597
     26          8           0        1.865494   -0.448566   -2.034030
     27          6           0       -1.487207   -0.276236    1.356030
     28          1           0       -2.167714    0.410042    0.834410
     29          6           0       -2.021226   -1.707913    1.184560
     30          1           0       -1.397253   -2.418555    1.740927
     31          1           0       -3.043268   -1.789793    1.571192
     32          1           0       -2.029064   -2.031273    0.138678
     33          6           0       -1.474679    0.097982    2.846372
     34          1           0       -0.768628   -0.532865    3.401128
     35          1           0       -1.177585    1.142462    2.993556
     36          1           0       -2.465310   -0.037232    3.294876
     37          7           0        2.170134    1.390066   -0.716270
     38          1           0        1.795819    2.064655   -0.047776
     39          6           0        3.604228    1.573956   -0.913800
     40          1           0        4.099328    0.600238   -0.914226
     41          6           0        4.110550    2.418528    0.280819
     42          6           0        3.885675    2.299538   -2.258622
     43          1           0        3.120712    3.077405   -2.387081
     44          1           0        3.733918    1.575571   -3.065617
     45          8           0        5.360677    2.304337    0.500005
     46          6           0        5.289130    2.933880   -2.355424
     47          1           0        6.009400    2.323106   -1.805628
     48          1           0        5.609517    2.972501   -3.404262
     49          6           0        5.295694    4.362650   -1.776685
     50          1           0        4.706943    4.430732   -0.861271
     51          1           0        4.836215    5.054473   -2.493034
     52          7           0        6.637566    4.879680   -1.480079
     53          1           0        7.253149    5.039831   -2.266634
     54          7           0        6.652129    4.490027    0.821934
     55          1           0        7.010389    4.781798    1.721522
     56          1           0        6.024563    3.585487    0.789983
     57          7           0        8.349581    5.735797   -0.198859
     58          1           0        8.846009    5.793414    0.678307
     59          1           0        8.493710    6.503422   -0.839789
     60          6           0        7.190133    5.018045   -0.260228
     61          8           0        3.294567    3.183663    0.826442
     62          1           0       -0.618307   -2.409915   -8.715007
 ---------------------------------------------------------------------

 SCF Done:  E(RB3LYP) =  -1447.46602960     A.U. after    3 cycles

 Alpha  occ. eigenvalues --  -19.29751 -19.26609 -19.24402 -19.20101 -19.14968
 Alpha  occ. eigenvalues --  -19.14526 -14.59667 -14.48395 -14.46820 -14.46645
 Alpha  occ. eigenvalues --  -14.43484 -14.42998 -10.42994 -10.42867 -10.42186
 Alpha  occ. eigenvalues --  -10.40692 -10.36978 -10.33923 -10.33195 -10.33141
 Alpha  occ. eigenvalues --  -10.32542 -10.30198 -10.27955 -10.27138 -10.26631
 Alpha  occ. eigenvalues --  -10.25330 -10.25255 -10.25201 -10.24002  -1.20806
 Alpha  occ. eigenvalues --   -1.18983  -1.13475  -1.12074  -1.11871  -1.10616
 Alpha  occ. eigenvalues --   -1.08264  -1.05311  -1.00463  -1.00359  -0.99029
 Alpha  occ. eigenvalues --   -0.97782  -0.94822  -0.89788  -0.87513  -0.86518
 Alpha  occ. eigenvalues --   -0.84088  -0.80595  -0.78921  -0.75712  -0.75181
 Alpha  occ. eigenvalues --   -0.74729  -0.73898  -0.72574  -0.71757  -0.70476
 Alpha  occ. eigenvalues --   -0.69758  -0.68130  -0.67184  -0.65966  -0.64865
 Alpha  occ. eigenvalues --   -0.64594  -0.64089  -0.63167  -0.60973  -0.60735
 Alpha  occ. eigenvalues --   -0.59659  -0.59497  -0.58607  -0.58156  -0.57847
 Alpha  occ. eigenvalues --   -0.56577  -0.55893  -0.54933  -0.54537  -0.53730
 Alpha  occ. eigenvalues --   -0.53071  -0.52849  -0.52258  -0.51580  -0.51208
 Alpha  occ. eigenvalues --   -0.50949  -0.50330  -0.49654  -0.49090  -0.48739
 Alpha  occ. eigenvalues --   -0.48605  -0.48538  -0.48161  -0.46787  -0.46000
 Alpha  occ. eigenvalues --   -0.45498  -0.44696  -0.44564  -0.43783  -0.43414
 Alpha  occ. eigenvalues --   -0.42466  -0.42049  -0.41861  -0.41205  -0.40945
 Alpha  occ. eigenvalues --   -0.40540  -0.39778  -0.39703  -0.38098  -0.37699
 Alpha  occ. eigenvalues --   -0.37400  -0.34868  -0.34311  -0.33258  -0.30596
 Alpha  occ. eigenvalues --   -0.29398  -0.28776
 Alpha virt. eigenvalues --   -0.11773  -0.11543  -0.09309  -0.07037  -0.06387
 Alpha virt. eigenvalues --   -0.05608  -0.04090  -0.03637  -0.01691  -0.01075
 Alpha virt. eigenvalues --   -0.00721  -0.00378   0.00479   0.00629   0.01083

 Mulliken charges:
               1
     1  N   -0.762099
     2  H    0.415563
     3  H    0.436676
     4  H    0.410243
     5  C   -0.111939
     6  H    0.217271
     7  C    0.652505
     8  C   -0.305506
     9  H    0.227269
    10  H    0.194870
    11  O   -0.546436
    12  C   -0.376134
    13  H    0.205613
    14  H    0.166804
    15  C    0.596957
    16  O   -0.437431
    17  O   -0.557185
    18  N   -0.586235
    19  H    0.373700
    20  C   -0.088327
    21  H    0.189170
    22  C    0.633061
    23  C   -0.266466
    24  H    0.169627
    25  H    0.155293
    26  O   -0.565295
    27  C   -0.079275
    28  H    0.148766
    29  C   -0.440696
    30  H    0.155637
    31  H    0.151644
    32  H    0.103396
    33  C   -0.451419
    34  H    0.152681
    35  H    0.154814
    36  H    0.152414
    37  N   -0.611629
    38  H    0.357312
    39  C   -0.019238
    40  H    0.175222
    41  C    0.586198
    42  C   -0.283099
    43  H    0.140006
    44  H    0.165962
    45  O   -0.625452
    46  C   -0.270898
    47  H    0.186445
    48  H    0.133531
    49  C   -0.176460
    50  H    0.217743
    51  H    0.162580
    52  N   -0.596953
    53  H    0.346540
    54  N   -0.765945
    55  H    0.343974
    56  H    0.454277
    57  N   -0.763337
    58  H    0.362698
    59  H    0.360731
    60  C    0.769738
    61  O   -0.570943
    62  H    0.431466
 Sum of Mulliken charges =   1.00000

 Dipole moment (field-independent basis, Debye):
    X=              1.7700    Y=              3.2150    Z=            -15.6077  Tot=             16.0334
 Quadrupole moment (field-independent basis, Debye-Ang):
   XX=             -6.8564   YY=            -85.7743   ZZ=            -93.0314
   XY=            121.9820   XZ=             31.0947   YZ=             19.9246

 Normal termination of Gaussian 16 at Wed Jun  1 02:12:08 2022.
