 Gaussian 16, Revision C.01,
 Gaussian 16:  ES64L-G16RevC.01  3-Jul-2019

 ----------------------------------------------------------------------
 # B3LYP/6-31G* empiricaldispersion=gd3 guess=read geom=check nosymm in
 tegral(ultrafinegrid)
 ----------------------------------------------------------------------

 ------------------------------------------------------
 Candidate Structure: Conf:746 Charge calc in gas phase
 ------------------------------------------------------
 Structure from the checkpoint file:  "conf-746.chk"
 Charge =  1 Multiplicity = 1

                          Input orientation:
 ---------------------------------------------------------------------
 Center     Atomic      Atomic             Coordinates (Angstroms)
 Number     Number       Type             X           Y           Z
 ---------------------------------------------------------------------
      1          7           0       -1.309398    2.933498   -3.417446
      2          1           0       -1.927384    3.336592   -2.713445
      3          1           0        0.243624    3.566579   -2.717352
      4          1           0       -1.670268    3.181184   -4.336953
      5          6           0       -1.291097    1.462056   -3.246211
      6          1           0       -2.274886    1.007243   -3.452458
      7          6           0       -1.036682    1.254571   -1.728767
      8          6           0       -0.280813    0.936406   -4.305660
      9          1           0        0.638733    1.519249   -4.217238
     10          1           0       -0.726592    1.213288   -5.268365
     11          8           0       -1.250832    2.184505   -0.951840
     12          6           0        0.083883   -0.572447   -4.400797
     13          1           0       -0.720989   -1.227555   -4.054216
     14          1           0        0.258257   -0.812471   -5.454707
     15          6           0        1.377551   -0.877399   -3.666985
     16          8           0        2.456469   -0.385034   -3.968191
     17          8           0        1.217132   -1.696566   -2.627462
     18          7           0       -0.598080    0.049457   -1.283510
     19          1           0       -0.382618   -0.699310   -1.925781
     20          6           0        0.037265   -0.068712    0.042722
     21          1           0       -0.472315    0.633550    0.702726
     22          6           0        1.490997    0.391816   -0.219446
     23          6           0       -0.054708   -1.487385    0.599042
     24          1           0        0.411826   -1.480451    1.593257
     25          1           0        0.554049   -2.158265   -0.017531
     26          8           0        2.353956   -0.405184   -0.611638
     27          6           0       -1.489884   -2.037789    0.706272
     28          1           0       -1.907136   -2.089752   -0.310102
     29          6           0       -1.452430   -3.462705    1.276077
     30          1           0       -1.059238   -3.462903    2.300526
     31          1           0       -2.456701   -3.898938    1.305375
     32          1           0       -0.816012   -4.120957    0.672828
     33          6           0       -2.403277   -1.132610    1.545481
     34          1           0       -1.991025   -0.987725    2.552607
     35          1           0       -2.542217   -0.145701    1.089504
     36          1           0       -3.395259   -1.583443    1.656819
     37          7           0        1.678741    1.736023   -0.098916
     38          1           0        0.834345    2.257672    0.120981
     39          6           0        2.675441    2.558332   -0.826428
     40          1           0        2.793851    3.480881   -0.247385
     41          6           0        1.996123    2.917540   -2.167166
     42          6           0        4.023802    1.864234   -1.021668
     43          1           0        3.833041    0.939418   -1.561580
     44          1           0        4.407895    1.564049   -0.042229
     45          8           0        2.356286    2.470513   -3.245296
     46          6           0        5.068238    2.713980   -1.775583
     47          1           0        4.592683    3.508286   -2.361091
     48          1           0        5.755712    3.202953   -1.076040
     49          6           0        5.888161    1.832560   -2.732833
     50          1           0        6.307935    0.972634   -2.203157
     51          1           0        6.745103    2.372068   -3.149385
     52          7           0        5.077929    1.284483   -3.832470
     53          1           0        4.448747    0.523248   -3.590336
     54          7           0        5.332299    3.105699   -5.271872
     55          1           0        5.112431    3.561661   -6.145085
     56          1           0        6.185876    3.391926   -4.818035
     57          7           0        3.725352    1.481057   -5.692751
     58          1           0        3.370195    2.046860   -6.449804
     59          1           0        3.066931    0.829847   -5.254836
     60          6           0        4.704095    1.968355   -4.918509
     61          8           0        0.930680    3.677941   -1.977219
     62          1           0        1.931625   -1.535710   -1.951844
 ---------------------------------------------------------------------

 SCF Done:  E(RB3LYP) =  -1447.51967675     A.U. after    1 cycles

 Alpha  occ. eigenvalues --  -19.30590 -19.27616 -19.26868 -19.24366 -19.23394
 Alpha  occ. eigenvalues --  -19.22289 -14.51515 -14.50156 -14.49389 -14.47264
 Alpha  occ. eigenvalues --  -14.46587 -14.44466 -10.46904 -10.44631 -10.42135
 Alpha  occ. eigenvalues --  -10.40228 -10.39649 -10.35508 -10.34733 -10.34595
 Alpha  occ. eigenvalues --  -10.33189 -10.32045 -10.30989 -10.30234 -10.29045
 Alpha  occ. eigenvalues --  -10.27131 -10.26713 -10.24354 -10.24144  -1.22319
 Alpha  occ. eigenvalues --   -1.19745  -1.15503  -1.15130  -1.14248  -1.13452
 Alpha  occ. eigenvalues --   -1.11114  -1.04924  -1.03817  -1.03560  -1.02760
 Alpha  occ. eigenvalues --   -1.00747  -0.91431  -0.90812  -0.89296  -0.86792
 Alpha  occ. eigenvalues --   -0.83946  -0.81783  -0.80246  -0.77670  -0.76196
 Alpha  occ. eigenvalues --   -0.75310  -0.74052  -0.73490  -0.72586  -0.71048
 Alpha  occ. eigenvalues --   -0.69736  -0.69366  -0.68868  -0.66608  -0.64916
 Alpha  occ. eigenvalues --   -0.64634  -0.63770  -0.63448  -0.62597  -0.61779
 Alpha  occ. eigenvalues --   -0.61368  -0.60584  -0.59614  -0.59478  -0.59244
 Alpha  occ. eigenvalues --   -0.58239  -0.57943  -0.57253  -0.56107  -0.55715
 Alpha  occ. eigenvalues --   -0.55329  -0.54275  -0.53912  -0.53669  -0.53438
 Alpha  occ. eigenvalues --   -0.52498  -0.52155  -0.51251  -0.50960  -0.50056
 Alpha  occ. eigenvalues --   -0.49608  -0.48981  -0.48392  -0.47824  -0.47516
 Alpha  occ. eigenvalues --   -0.46925  -0.46362  -0.46133  -0.46030  -0.45744
 Alpha  occ. eigenvalues --   -0.45222  -0.45101  -0.44127  -0.43471  -0.41937
 Alpha  occ. eigenvalues --   -0.41234  -0.40686  -0.40304  -0.40199  -0.39936
 Alpha  occ. eigenvalues --   -0.39824  -0.39110  -0.38533  -0.37683  -0.36267
 Alpha  occ. eigenvalues --   -0.35419  -0.34281
 Alpha virt. eigenvalues --   -0.12274  -0.11820  -0.10880  -0.08993  -0.07856
 Alpha virt. eigenvalues --   -0.07518  -0.04353  -0.02507  -0.02290  -0.02137
 Alpha virt. eigenvalues --   -0.00372   0.00317   0.00683   0.01156   0.01766

 Mulliken charges:
               1
     1  N   -0.767046
     2  H    0.358830
     3  H    0.455448
     4  H    0.327953
     5  C   -0.085737
     6  H    0.177775
     7  C    0.622910
     8  C   -0.309678
     9  H    0.210127
    10  H    0.158210
    11  O   -0.526272
    12  C   -0.380678
    13  H    0.187830
    14  H    0.197085
    15  C    0.600671
    16  O   -0.485264
    17  O   -0.578058
    18  N   -0.631214
    19  H    0.374158
    20  C   -0.080861
    21  H    0.197981
    22  C    0.635637
    23  C   -0.279841
    24  H    0.158424
    25  H    0.148898
    26  O   -0.568432
    27  C   -0.071400
    28  H    0.123672
    29  C   -0.445446
    30  H    0.150798
    31  H    0.156565
    32  H    0.145297
    33  C   -0.460543
    34  H    0.148181
    35  H    0.154015
    36  H    0.159356
    37  N   -0.602879
    38  H    0.378855
    39  C   -0.044983
    40  H    0.187816
    41  C    0.598968
    42  C   -0.279356
    43  H    0.177340
    44  H    0.174923
    45  O   -0.508523
    46  C   -0.265258
    47  H    0.159016
    48  H    0.169959
    49  C   -0.196632
    50  H    0.201034
    51  H    0.162429
    52  N   -0.586263
    53  H    0.397544
    54  N   -0.761067
    55  H    0.375923
    56  H    0.381430
    57  N   -0.770904
    58  H    0.356901
    59  H    0.418571
    60  C    0.818203
    61  O   -0.584256
    62  H    0.461857
 Sum of Mulliken charges =   1.00000

 Dipole moment (field-independent basis, Debye):
    X=             12.5039    Y=              8.4313    Z=            -18.9099  Tot=             24.1871
 Quadrupole moment (field-independent basis, Debye-Ang):
   XX=            -82.6201   YY=           -140.8927   ZZ=            -63.9726
   XY=             43.9280   XZ=            -54.1734   YZ=            -46.3003

 Normal termination of Gaussian 16 at Wed Jun  1 02:21:19 2022.
