 Gaussian 16, Revision C.01,
 Gaussian 16:  ES64L-G16RevC.01  3-Jul-2019

 ----------------------------------------------------------------------
 # B3LYP/6-31G* empiricaldispersion=gd3 guess=read geom=check nosymm in
 tegral(ultrafinegrid)
 ----------------------------------------------------------------------

 ------------------------------------------------------
 Candidate Structure: Conf:234 Charge calc in gas phase
 ------------------------------------------------------
 Structure from the checkpoint file:  "conf-234.chk"
 Charge =  1 Multiplicity = 1

                          Input orientation:
 ---------------------------------------------------------------------
 Center     Atomic      Atomic             Coordinates (Angstroms)
 Number     Number       Type             X           Y           Z
 ---------------------------------------------------------------------
      1          7           0       -3.081667   -1.716291   -3.760267
      2          1           0       -3.580490   -2.459333   -3.260252
      3          1           0       -3.441962   -0.785225   -3.409962
      4          1           0       -3.241292   -1.828426   -4.765657
      5          6           0       -1.612395   -1.636027   -3.384635
      6          1           0       -1.259497   -2.637667   -3.128027
      7          6           0       -1.640983   -0.658305   -2.180848
      8          6           0       -0.835991   -1.032251   -4.569277
      9          1           0       -1.237360   -0.027973   -4.757755
     10          1           0       -1.016538   -1.635542   -5.467162
     11          8           0       -2.559982    0.176319   -2.174417
     12          6           0        0.681704   -0.953892   -4.321608
     13          1           0        0.937344   -0.435615   -3.398226
     14          1           0        1.099575   -1.966597   -4.253800
     15          6           0        1.399109   -0.226116   -5.443951
     16          8           0        2.165264    0.695564   -5.293788
     17          8           0        1.072698   -0.741126   -6.653453
     18          7           0       -0.674068   -0.788875   -1.282940
     19          1           0        0.114664   -1.410480   -1.484670
     20          6           0       -0.232152    0.274012   -0.366955
     21          1           0       -0.818535    1.172312   -0.579385
     22          6           0        1.258817    0.468657   -0.752305
     23          6           0       -0.346341   -0.113771    1.120341
     24          1           0        0.328482    0.553465    1.671094
     25          1           0        0.059541   -1.127331    1.244013
     26          8           0        1.861115   -0.479444   -1.285095
     27          6           0       -1.745961   -0.019726    1.757474
     28          1           0       -2.102999    1.012276    1.619731
     29          6           0       -2.776350   -0.965569    1.122631
     30          1           0       -2.407991   -1.999902    1.121266
     31          1           0       -3.710374   -0.947956    1.695222
     32          1           0       -3.018091   -0.675580    0.096266
     33          6           0       -1.629377   -0.285400    3.266432
     34          1           0       -1.282343   -1.309106    3.456329
     35          1           0       -0.921876    0.402052    3.743758
     36          1           0       -2.599904   -0.166020    3.759900
     37          7           0        1.793570    1.653744   -0.479341
     38          1           0        1.299695    2.400379    0.016752
     39          6           0        3.201380    1.995006   -0.680661
     40          1           0        3.827788    1.231088   -0.208350
     41          6           0        3.428040    3.359591    0.013102
     42          6           0        3.582350    2.080568   -2.172582
     43          1           0        3.342705    1.121065   -2.640794
     44          1           0        4.668795    2.203899   -2.218949
     45          8           0        4.619845    3.785993   -0.072076
     46          6           0        2.898692    3.199015   -2.984269
     47          1           0        2.949682    2.910769   -4.038651
     48          1           0        1.826700    3.223090   -2.738275
     49          6           0        3.498128    4.625487   -2.848929
     50          1           0        3.631621    5.065450   -3.844467
     51          1           0        4.472482    4.591885   -2.364673
     52          7           0        2.635997    5.545791   -2.085990
     53          1           0        1.648065    5.485336   -2.291289
     54          7           0        4.162618    6.308098   -0.494788
     55          1           0        4.364474    7.037688    0.176857
     56          1           0        4.510526    5.317284   -0.247853
     57          7           0        2.094798    7.351171   -0.741169
     58          1           0        2.049370    7.618975    0.232468
     59          1           0        1.238154    7.464812   -1.264262
     60          6           0        2.975623    6.373003   -1.088715
     61          8           0        2.426196    3.944696    0.484800
     62          1           0        1.580588   -0.247485   -7.326041
 ---------------------------------------------------------------------

 SCF Done:  E(RB3LYP) =  -1447.46654255     A.U. after    2 cycles

 Alpha  occ. eigenvalues --  -19.30149 -19.27200 -19.24523 -19.20907 -19.15319
 Alpha  occ. eigenvalues --  -19.15253 -14.61502 -14.49606 -14.46669 -14.46633
 Alpha  occ. eigenvalues --  -14.43733 -14.42738 -10.43941 -10.42882 -10.41854
 Alpha  occ. eigenvalues --  -10.41850 -10.37796 -10.35231 -10.34071 -10.33128
 Alpha  occ. eigenvalues --  -10.32067 -10.30497 -10.28306 -10.27991 -10.27469
 Alpha  occ. eigenvalues --  -10.26270 -10.25546 -10.24701 -10.24657  -1.20927
 Alpha  occ. eigenvalues --   -1.19801  -1.15040  -1.12746  -1.12071  -1.10557
 Alpha  occ. eigenvalues --   -1.08683  -1.06227  -1.01033  -1.00309  -0.99425
 Alpha  occ. eigenvalues --   -0.97609  -0.95598  -0.90458  -0.87773  -0.86600
 Alpha  occ. eigenvalues --   -0.84730  -0.81043  -0.79475  -0.76347  -0.75572
 Alpha  occ. eigenvalues --   -0.75235  -0.74686  -0.73739  -0.71858  -0.71473
 Alpha  occ. eigenvalues --   -0.71002  -0.68930  -0.67648  -0.66743  -0.64884
 Alpha  occ. eigenvalues --   -0.64564  -0.64442  -0.63701  -0.62117  -0.60078
 Alpha  occ. eigenvalues --   -0.59735  -0.59070  -0.58459  -0.58162  -0.57610
 Alpha  occ. eigenvalues --   -0.57107  -0.56253  -0.55943  -0.55145  -0.54668
 Alpha  occ. eigenvalues --   -0.53694  -0.53457  -0.52849  -0.52209  -0.52079
 Alpha  occ. eigenvalues --   -0.51083  -0.50491  -0.50110  -0.49736  -0.49474
 Alpha  occ. eigenvalues --   -0.49009  -0.48831  -0.47750  -0.46933  -0.46695
 Alpha  occ. eigenvalues --   -0.46277  -0.45441  -0.45196  -0.44745  -0.44012
 Alpha  occ. eigenvalues --   -0.42542  -0.42255  -0.42013  -0.41692  -0.41282
 Alpha  occ. eigenvalues --   -0.40902  -0.40707  -0.39950  -0.38959  -0.37942
 Alpha  occ. eigenvalues --   -0.37357  -0.35131  -0.34585  -0.33753  -0.30766
 Alpha  occ. eigenvalues --   -0.29891  -0.29763
 Alpha virt. eigenvalues --   -0.13440  -0.11954  -0.09812  -0.07278  -0.07245
 Alpha virt. eigenvalues --   -0.06741  -0.05142  -0.03570  -0.03165  -0.01936
 Alpha virt. eigenvalues --   -0.01424  -0.00933   0.00039   0.00396   0.00754

 Mulliken charges:
               1
     1  N   -0.747430
     2  H    0.421483
     3  H    0.430031
     4  H    0.414967
     5  C   -0.119861
     6  H    0.214307
     7  C    0.645802
     8  C   -0.300792
     9  H    0.188359
    10  H    0.192468
    11  O   -0.542693
    12  C   -0.381718
    13  H    0.226372
    14  H    0.197281
    15  C    0.580864
    16  O   -0.432252
    17  O   -0.562225
    18  N   -0.565299
    19  H    0.366965
    20  C   -0.097039
    21  H    0.185243
    22  C    0.632253
    23  C   -0.260704
    24  H    0.170202
    25  H    0.153209
    26  O   -0.561930
    27  C   -0.074145
    28  H    0.133920
    29  C   -0.462612
    30  H    0.133921
    31  H    0.158346
    32  H    0.142344
    33  C   -0.448280
    34  H    0.149588
    35  H    0.155644
    36  H    0.156770
    37  N   -0.608394
    38  H    0.353677
    39  C   -0.040487
    40  H    0.179121
    41  C    0.607475
    42  C   -0.278811
    43  H    0.170909
    44  H    0.171040
    45  O   -0.617610
    46  C   -0.302293
    47  H    0.177012
    48  H    0.121741
    49  C   -0.147471
    50  H    0.167841
    51  H    0.218192
    52  N   -0.586226
    53  H    0.334757
    54  N   -0.753847
    55  H    0.341819
    56  H    0.431691
    57  N   -0.758434
    58  H    0.368030
    59  H    0.351246
    60  C    0.777847
    61  O   -0.600968
    62  H    0.428782
 Sum of Mulliken charges =   1.00000

 Dipole moment (field-independent basis, Debye):
    X=             -9.3655    Y=              2.8140    Z=            -17.0466  Tot=             19.6525
 Quadrupole moment (field-independent basis, Debye-Ang):
   XX=           -152.2433   YY=            -70.8315   ZZ=            -85.8667
   XY=             33.9705   XZ=             26.5876   YZ=             13.8532

 Normal termination of Gaussian 16 at Wed Jun  1 02:12:04 2022.
