 Gaussian 16, Revision C.01,
 Gaussian 16:  ES64L-G16RevC.01  3-Jul-2019

 ----------------------------------------------------------------------
 # B3LYP/6-31G* empiricaldispersion=gd3 guess=read geom=check nosymm in
 tegral(ultrafinegrid)
 ----------------------------------------------------------------------

 ------------------------------------------------------
 Candidate Structure: Conf:962 Charge calc in gas phase
 ------------------------------------------------------
 Structure from the checkpoint file:  "conf-962.chk"
 Charge =  1 Multiplicity = 1

                          Input orientation:
 ---------------------------------------------------------------------
 Center     Atomic      Atomic             Coordinates (Angstroms)
 Number     Number       Type             X           Y           Z
 ---------------------------------------------------------------------
      1          7           0       -3.292707   -0.498968   -3.807823
      2          1           0       -4.198815   -0.746932   -3.399661
      3          1           0       -3.064705    0.505258   -3.534993
      4          1           0       -3.345426   -0.614063   -4.823405
      5          6           0       -2.134293   -1.241870   -3.166457
      6          1           0       -2.494321   -2.180776   -2.748131
      7          6           0       -1.677281   -0.237261   -2.079204
      8          6           0       -1.054158   -1.474182   -4.242942
      9          1           0       -0.839421   -0.511008   -4.722647
     10          1           0       -1.473381   -2.143881   -5.005765
     11          8           0       -1.969762    0.955627   -2.259437
     12          6           0        0.290871   -2.034879   -3.738973
     13          1           0        0.948380   -2.190775   -4.596901
     14          1           0        0.767811   -1.294030   -3.078365
     15          6           0        0.156959   -3.317250   -2.955659
     16          8           0       -0.593333   -3.461085   -1.997906
     17          8           0        0.963439   -4.289197   -3.389650
     18          7           0       -1.000155   -0.734748   -1.052504
     19          1           0       -0.784192   -1.731077   -1.077539
     20          6           0       -0.247403    0.130022   -0.142355
     21          1           0       -0.943385    0.861021    0.277749
     22          6           0        0.851122    0.863922   -0.945695
     23          6           0        0.363284   -0.749060    0.968393
     24          1           0        1.072945   -1.440699    0.491879
     25          1           0       -0.445978   -1.361616    1.390729
     26          8           0        1.336606    0.372745   -1.974582
     27          6           0        1.068847   -0.003501    2.119622
     28          1           0        1.866285    0.624801    1.705348
     29          6           0        0.111403    0.908616    2.900319
     30          1           0       -0.710481    0.327763    3.339207
     31          1           0        0.645426    1.413124    3.710849
     32          1           0       -0.327711    1.697801    2.279912
     33          6           0        1.719876   -1.028827    3.059763
     34          1           0        0.964121   -1.681034    3.516295
     35          1           0        2.436586   -1.665507    2.527092
     36          1           0        2.256046   -0.523024    3.869463
     37          7           0        1.245183    2.023005   -0.411863
     38          1           0        0.936239    2.328221    0.514214
     39          6           0        2.463781    2.716416   -0.799765
     40          1           0        3.244509    1.960581   -0.959595
     41          6           0        2.900429    3.546260    0.459321
     42          6           0        2.287298    3.528599   -2.118160
     43          1           0        2.394606    4.602112   -1.917240
     44          1           0        1.256539    3.378759   -2.450528
     45          8           0        3.957152    4.252491    0.305847
     46          6           0        3.232129    3.098087   -3.262010
     47          1           0        3.367462    2.011092   -3.213815
     48          1           0        2.762654    3.313760   -4.229900
     49          6           0        4.601057    3.805977   -3.271990
     50          1           0        4.478392    4.843037   -3.606416
     51          1           0        5.272070    3.310892   -3.981900
     52          7           0        5.199867    3.840478   -1.941581
     53          1           0        4.582600    4.162164   -1.130682
     54          7           0        7.269956    2.817188   -2.361368
     55          1           0        8.084860    2.348875   -1.994390
     56          1           0        7.346578    3.204942   -3.288997
     57          7           0        6.459157    3.077581   -0.187303
     58          1           0        7.386301    3.064587    0.213556
     59          1           0        5.688167    3.429048    0.396338
     60          6           0        6.309454    3.266162   -1.516462
     61          8           0        2.221081    3.419250    1.485693
     62          1           0        0.849949   -5.061288   -2.800338
 ---------------------------------------------------------------------

 SCF Done:  E(RB3LYP) =  -1447.48521990     A.U. after    2 cycles

 Alpha  occ. eigenvalues --  -19.31542 -19.26271 -19.25888 -19.19868 -19.15879
 Alpha  occ. eigenvalues --  -19.15108 -14.59937 -14.48032 -14.47718 -14.45397
 Alpha  occ. eigenvalues --  -14.44718 -14.42494 -10.44446 -10.42668 -10.42344
 Alpha  occ. eigenvalues --  -10.40138 -10.36598 -10.34675 -10.33472 -10.32751
 Alpha  occ. eigenvalues --  -10.31747 -10.31470 -10.28809 -10.27501 -10.26790
 Alpha  occ. eigenvalues --  -10.25960 -10.25875 -10.23731 -10.23551  -1.22685
 Alpha  occ. eigenvalues --   -1.18499  -1.13549  -1.13520  -1.11367  -1.11242
 Alpha  occ. eigenvalues --   -1.08714  -1.05011  -1.01336  -1.00212  -0.99215
 Alpha  occ. eigenvalues --   -0.98899  -0.94501  -0.89557  -0.87142  -0.86939
 Alpha  occ. eigenvalues --   -0.83671  -0.81193  -0.79328  -0.76007  -0.74632
 Alpha  occ. eigenvalues --   -0.73983  -0.73576  -0.73351  -0.72712  -0.70864
 Alpha  occ. eigenvalues --   -0.70041  -0.68352  -0.68137  -0.65603  -0.64743
 Alpha  occ. eigenvalues --   -0.64118  -0.63665  -0.63311  -0.61727  -0.60690
 Alpha  occ. eigenvalues --   -0.60335  -0.59433  -0.59270  -0.59087  -0.58478
 Alpha  occ. eigenvalues --   -0.57091  -0.56449  -0.56153  -0.54365  -0.54210
 Alpha  occ. eigenvalues --   -0.53692  -0.52796  -0.52366  -0.51774  -0.51456
 Alpha  occ. eigenvalues --   -0.50578  -0.50451  -0.50217  -0.49982  -0.49539
 Alpha  occ. eigenvalues --   -0.49128  -0.48089  -0.47791  -0.47121  -0.45891
 Alpha  occ. eigenvalues --   -0.45690  -0.44877  -0.44657  -0.43826  -0.43461
 Alpha  occ. eigenvalues --   -0.42905  -0.42660  -0.42204  -0.40852  -0.40789
 Alpha  occ. eigenvalues --   -0.39966  -0.39689  -0.39603  -0.39332  -0.38359
 Alpha  occ. eigenvalues --   -0.38312  -0.35028  -0.33930  -0.33043  -0.31318
 Alpha  occ. eigenvalues --   -0.30247  -0.29289
 Alpha virt. eigenvalues --   -0.12168  -0.11403  -0.10230  -0.07362  -0.06037
 Alpha virt. eigenvalues --   -0.05849  -0.03914  -0.03323  -0.02311  -0.00996
 Alpha virt. eigenvalues --   -0.00859  -0.00084   0.00357   0.01557   0.02132

 Mulliken charges:
               1
     1  N   -0.754507
     2  H    0.417591
     3  H    0.430504
     4  H    0.410357
     5  C   -0.119531
     6  H    0.231492
     7  C    0.654657
     8  C   -0.302008
     9  H    0.189706
    10  H    0.177415
    11  O   -0.548558
    12  C   -0.407195
    13  H    0.199204
    14  H    0.272378
    15  C    0.603675
    16  O   -0.492785
    17  O   -0.533352
    18  N   -0.616847
    19  H    0.392598
    20  C   -0.055113
    21  H    0.188736
    22  C    0.629927
    23  C   -0.294051
    24  H    0.145453
    25  H    0.152998
    26  O   -0.562335
    27  C   -0.095940
    28  H    0.156296
    29  C   -0.448851
    30  H    0.138366
    31  H    0.177681
    32  H    0.144317
    33  C   -0.446710
    34  H    0.144161
    35  H    0.139877
    36  H    0.162999
    37  N   -0.611172
    38  H    0.378673
    39  C   -0.056661
    40  H    0.156848
    41  C    0.607588
    42  C   -0.293264
    43  H    0.165936
    44  H    0.166655
    45  O   -0.632457
    46  C   -0.273827
    47  H    0.167214
    48  H    0.145833
    49  C   -0.156627
    50  H    0.179339
    51  H    0.145364
    52  N   -0.615240
    53  H    0.430941
    54  N   -0.757241
    55  H    0.365340
    56  H    0.369207
    57  N   -0.777855
    58  H    0.350319
    59  H    0.409209
    60  C    0.759408
    61  O   -0.537128
    62  H    0.430995
 Sum of Mulliken charges =   1.00000

 Dipole moment (field-independent basis, Debye):
    X=              3.6532    Y=             -3.8460    Z=            -19.1997  Tot=             19.9190
 Quadrupole moment (field-independent basis, Debye-Ang):
   XX=            -19.3790   YY=           -153.7840   ZZ=            -97.6786
   XY=             41.4550   XZ=              3.6682   YZ=             -8.5213

 Normal termination of Gaussian 16 at Wed Jun  1 02:21:28 2022.
