 Gaussian 16, Revision C.01,
 Gaussian 16:  ES64L-G16RevC.01  3-Jul-2019

 ----------------------------------------------------------------------
 # B3LYP/6-31G* empiricaldispersion=gd3 guess=read geom=check nosymm in
 tegral(ultrafinegrid)
 ----------------------------------------------------------------------

 ------------------------------------------------------
 Candidate Structure: Conf:535 Charge calc in gas phase
 ------------------------------------------------------
 Structure from the checkpoint file:  "conf-535.chk"
 Charge =  1 Multiplicity = 1

                          Input orientation:
 ---------------------------------------------------------------------
 Center     Atomic      Atomic             Coordinates (Angstroms)
 Number     Number       Type             X           Y           Z
 ---------------------------------------------------------------------
      1          7           0       -0.074798   -2.445343   -3.106497
      2          1           0        0.404978   -1.498660   -2.967368
      3          1           0        0.421113   -3.114458   -2.504676
      4          1           0       -0.022397   -2.761839   -4.078061
      5          6           0       -1.502641   -2.298423   -2.589218
      6          1           0       -2.013745   -1.651258   -3.308486
      7          6           0       -1.218155   -1.603056   -1.237682
      8          6           0       -2.199197   -3.644624   -2.444537
      9          1           0       -3.196092   -3.454005   -2.034005
     10          1           0       -1.660770   -4.233710   -1.692968
     11          8           0       -0.620456   -2.249157   -0.389114
     12          6           0       -2.334780   -4.420498   -3.765636
     13          1           0       -2.892900   -3.821010   -4.496886
     14          1           0       -1.364406   -4.677974   -4.201391
     15          6           0       -3.069819   -5.739921   -3.583271
     16          8           0       -2.638959   -6.819776   -3.903976
     17          8           0       -4.279536   -5.541655   -3.011293
     18          7           0       -1.507029   -0.275034   -1.172048
     19          1           0       -1.920097    0.112048   -2.011309
     20          6           0       -0.564724    0.645192   -0.519336
     21          1           0       -1.005534    1.641600   -0.628640
     22          6           0        0.758524    0.632337   -1.341463
     23          6           0       -0.343868    0.369569    0.982525
     24          1           0        0.207057    1.224059    1.397665
     25          1           0        0.295066   -0.509225    1.094341
     26          8           0        0.886300   -0.062261   -2.378600
     27          6           0       -1.636278    0.172786    1.794469
     28          1           0       -2.146217   -0.712349    1.392101
     29          6           0       -1.276745   -0.112722    3.259559
     30          1           0       -0.763321    0.744866    3.712837
     31          1           0       -2.177719   -0.311124    3.850020
     32          1           0       -0.617915   -0.984104    3.346184
     33          6           0       -2.586441    1.373242    1.686015
     34          1           0       -2.092946    2.296011    2.018898
     35          1           0       -2.944216    1.528279    0.661125
     36          1           0       -3.469086    1.226115    2.317467
     37          7           0        1.722150    1.425477   -0.898241
     38          1           0        1.643335    1.961424   -0.032097
     39          6           0        3.077321    1.504990   -1.439537
     40          1           0        3.387368    0.516657   -1.784832
     41          6           0        3.995344    1.969489   -0.281654
     42          6           0        3.141096    2.512571   -2.619882
     43          1           0        2.557211    3.396936   -2.331637
     44          1           0        2.609627    2.064128   -3.465885
     45          8           0        5.213493    1.659772   -0.428895
     46          6           0        4.581605    2.903474   -3.028700
     47          1           0        5.275705    2.159989   -2.633215
     48          1           0        4.676424    2.888206   -4.120437
     49          6           0        5.045871    4.313829   -2.586396
     50          1           0        4.702600    5.057281   -3.314107
     51          1           0        6.137393    4.358357   -2.562915
     52          7           0        4.567354    4.807518   -1.284653
     53          1           0        3.616200    5.146455   -1.253156
     54          7           0        6.278345    4.006246    0.067691
     55          1           0        6.790220    4.159693    0.928652
     56          1           0        6.079384    2.983569   -0.155328
     57          7           0        4.827124    5.655506    0.860127
     58          1           0        4.849178    5.309311    1.810962
     59          1           0        4.093547    6.323207    0.664228
     60          6           0        5.216038    4.794729   -0.112379
     61          8           0        3.463361    2.680114    0.604040
     62          1           0       -4.705157   -6.416153   -2.922107
 ---------------------------------------------------------------------

 SCF Done:  E(RB3LYP) =  -1447.46691424     A.U. after    2 cycles

 Alpha  occ. eigenvalues --  -19.29229 -19.25447 -19.24146 -19.23520 -19.16673
 Alpha  occ. eigenvalues --  -19.16644 -14.58264 -14.48949 -14.48224 -14.47719
 Alpha  occ. eigenvalues --  -14.46160 -14.44407 -10.43216 -10.42598 -10.42060
 Alpha  occ. eigenvalues --  -10.40432 -10.39860 -10.35205 -10.34624 -10.32984
 Alpha  occ. eigenvalues --  -10.32386 -10.32365 -10.30430 -10.28036 -10.27873
 Alpha  occ. eigenvalues --  -10.27162 -10.26965 -10.25380 -10.24523  -1.20049
 Alpha  occ. eigenvalues --   -1.18069  -1.14901  -1.12646  -1.12028  -1.11257
 Alpha  occ. eigenvalues --   -1.09990  -1.05589  -1.03046  -1.01754  -1.01205
 Alpha  occ. eigenvalues --   -0.99109  -0.93972  -0.90656  -0.88232  -0.87061
 Alpha  occ. eigenvalues --   -0.84888  -0.82319  -0.77831  -0.77110  -0.76096
 Alpha  occ. eigenvalues --   -0.74813  -0.73705  -0.73542  -0.71237  -0.70888
 Alpha  occ. eigenvalues --   -0.70122  -0.68861  -0.68723  -0.67184  -0.66296
 Alpha  occ. eigenvalues --   -0.65196  -0.63993  -0.63340  -0.63173  -0.60677
 Alpha  occ. eigenvalues --   -0.59863  -0.59094  -0.58856  -0.58311  -0.57694
 Alpha  occ. eigenvalues --   -0.57082  -0.56854  -0.55969  -0.55462  -0.54864
 Alpha  occ. eigenvalues --   -0.54238  -0.54091  -0.53452  -0.52809  -0.51956
 Alpha  occ. eigenvalues --   -0.51905  -0.51010  -0.50775  -0.50115  -0.49511
 Alpha  occ. eigenvalues --   -0.49330  -0.48366  -0.48225  -0.47861  -0.47622
 Alpha  occ. eigenvalues --   -0.46991  -0.46550  -0.45883  -0.45373  -0.44620
 Alpha  occ. eigenvalues --   -0.43746  -0.43021  -0.42451  -0.41766  -0.41365
 Alpha  occ. eigenvalues --   -0.40990  -0.40526  -0.39766  -0.38835  -0.38636
 Alpha  occ. eigenvalues --   -0.37492  -0.36959  -0.36810  -0.36538  -0.32365
 Alpha  occ. eigenvalues --   -0.31184  -0.30645
 Alpha virt. eigenvalues --   -0.13389  -0.09537  -0.09324  -0.09111  -0.08582
 Alpha virt. eigenvalues --   -0.05761  -0.04636  -0.03549  -0.02686  -0.01396
 Alpha virt. eigenvalues --   -0.00795  -0.00684  -0.00598   0.00735   0.00977

 Mulliken charges:
               1
     1  N   -0.765420
     2  H    0.461905
     3  H    0.413762
     4  H    0.405574
     5  C   -0.109424
     6  H    0.189964
     7  C    0.607361
     8  C   -0.286100
     9  H    0.214700
    10  H    0.200169
    11  O   -0.492408
    12  C   -0.369923
    13  H    0.189383
    14  H    0.165067
    15  C    0.580135
    16  O   -0.426029
    17  O   -0.558468
    18  N   -0.557184
    19  H    0.339719
    20  C   -0.106098
    21  H    0.186554
    22  C    0.654914
    23  C   -0.268092
    24  H    0.150206
    25  H    0.182071
    26  O   -0.621222
    27  C   -0.071747
    28  H    0.142309
    29  C   -0.449242
    30  H    0.147741
    31  H    0.156652
    32  H    0.155840
    33  C   -0.453989
    34  H    0.144389
    35  H    0.131727
    36  H    0.163879
    37  N   -0.594731
    38  H    0.364969
    39  C   -0.033922
    40  H    0.171394
    41  C    0.597962
    42  C   -0.271840
    43  H    0.115921
    44  H    0.160710
    45  O   -0.601392
    46  C   -0.293918
    47  H    0.205854
    48  H    0.152016
    49  C   -0.152177
    50  H    0.168934
    51  H    0.198835
    52  N   -0.574218
    53  H    0.346567
    54  N   -0.738374
    55  H    0.346763
    56  H    0.423618
    57  N   -0.742195
    58  H    0.375095
    59  H    0.355076
    60  C    0.748023
    61  O   -0.608679
    62  H    0.431034
 Sum of Mulliken charges =   1.00000

 Dipole moment (field-independent basis, Debye):
    X=              1.1970    Y=              5.6372    Z=            -10.3688  Tot=             11.8626
 Quadrupole moment (field-independent basis, Debye-Ang):
   XX=           -120.9508   YY=            -87.8662   ZZ=           -126.0628
   XY=             62.9387   XZ=              9.1651   YZ=             18.8350

 Normal termination of Gaussian 16 at Wed Jun  1 02:21:23 2022.
