 Gaussian 16, Revision C.01,
 Gaussian 16:  ES64L-G16RevC.01  3-Jul-2019

 ----------------------------------------------------------------------
 # B3LYP/6-31G* empiricaldispersion=gd3 guess=read geom=check nosymm in
 tegral(ultrafinegrid)
 ----------------------------------------------------------------------

 ------------------------------------------------------
 Candidate Structure: Conf:197 Charge calc in gas phase
 ------------------------------------------------------
 Structure from the checkpoint file:  "conf-197.chk"
 Charge =  1 Multiplicity = 1

                          Input orientation:
 ---------------------------------------------------------------------
 Center     Atomic      Atomic             Coordinates (Angstroms)
 Number     Number       Type             X           Y           Z
 ---------------------------------------------------------------------
      1          7           0       -4.357078   -2.418430   -2.837494
      2          1           0       -4.810568   -3.112128   -2.237729
      3          1           0       -4.498901   -1.435120   -2.425017
      4          1           0       -4.763666   -2.482640   -3.774626
      5          6           0       -2.842409   -2.503833   -2.830332
      6          1           0       -2.554958   -3.394498   -2.265606
      7          6           0       -2.442029   -1.207564   -2.064993
      8          6           0       -2.275236   -2.545382   -4.252982
      9          1           0       -1.187783   -2.439394   -4.191570
     10          1           0       -2.636071   -1.666091   -4.804138
     11          8           0       -3.352223   -0.400528   -1.805559
     12          6           0       -2.616150   -3.842114   -5.007825
     13          1           0       -2.186122   -4.700003   -4.476160
     14          1           0       -3.694573   -4.006121   -5.100145
     15          6           0       -2.066840   -3.829612   -6.426423
     16          8           0       -2.733349   -3.943903   -7.425126
     17          8           0       -0.726004   -3.660683   -6.416207
     18          7           0       -1.160971   -1.086436   -1.772701
     19          1           0       -0.457133   -1.723028   -2.165050
     20          6           0       -0.502133    0.112128   -1.247909
     21          1           0       -1.067838    0.992381   -1.566558
     22          6           0        0.891059    0.085543   -1.928766
     23          6           0       -0.361546    0.076710    0.287030
     24          1           0        0.259309    0.930204    0.588556
     25          1           0        0.207575   -0.825838    0.546711
     26          8           0        1.251153   -0.933687   -2.539171
     27          6           0       -1.680966    0.112331    1.080440
     28          1           0       -2.315424   -0.715555    0.730856
     29          6           0       -1.384741   -0.113524    2.570689
     30          1           0       -0.748604    0.687883    2.966506
     31          1           0       -2.310426   -0.122100    3.156506
     32          1           0       -0.867622   -1.065319    2.740394
     33          6           0       -2.447643    1.425578    0.869225
     34          1           0       -1.830261    2.285697    1.158236
     35          1           0       -2.762506    1.555101   -0.170656
     36          1           0       -3.351989    1.445776    1.487382
     37          7           0        1.627763    1.181985   -1.766733
     38          1           0        1.315372    1.989270   -1.223751
     39          6           0        3.035647    1.310709   -2.139486
     40          1           0        3.542914    0.359305   -1.955884
     41          6           0        3.603183    2.414782   -1.198862
     42          6           0        3.135725    1.668902   -3.648437
     43          1           0        2.741019    2.684728   -3.786124
     44          1           0        2.440041    0.992053   -4.155123
     45          8           0        4.866465    2.402120   -1.018516
     46          6           0        4.519145    1.523216   -4.330421
     47          1           0        5.151805    0.826300   -3.765789
     48          1           0        4.381152    1.067722   -5.317809
     49          6           0        5.299491    2.827817   -4.564136
     50          1           0        4.666161    3.551919   -5.092196
     51          1           0        6.173418    2.622906   -5.195629
     52          7           0        5.730727    3.391070   -3.284149
     53          1           0        5.629034    2.752961   -2.467887
     54          7           0        5.643882    5.652241   -3.862457
     55          1           0        5.646429    6.619171   -3.571518
     56          1           0        6.060254    5.465480   -4.763280
     57          7           0        5.581186    4.961633   -1.622095
     58          1           0        5.547478    5.915704   -1.296315
     59          1           0        5.290587    4.182817   -0.998085
     60          6           0        5.654925    4.672389   -2.923506
     61          8           0        2.788597    3.238836   -0.747607
     62          1           0       -0.422608   -3.663856   -7.344554
 ---------------------------------------------------------------------

 SCF Done:  E(RB3LYP) =  -1447.47149068     A.U. after    1 cycles

 Alpha  occ. eigenvalues --  -19.30078 -19.27092 -19.24424 -19.20731 -19.15756
 Alpha  occ. eigenvalues --  -19.15316 -14.60115 -14.49000 -14.47541 -14.44870
 Alpha  occ. eigenvalues --  -14.44507 -14.43430 -10.43587 -10.42948 -10.42306
 Alpha  occ. eigenvalues --  -10.41271 -10.37552 -10.34933 -10.33550 -10.33419
 Alpha  occ. eigenvalues --  -10.33375 -10.31571 -10.29004 -10.27477 -10.27240
 Alpha  occ. eigenvalues --  -10.26915 -10.26361 -10.24330 -10.24289  -1.20929
 Alpha  occ. eigenvalues --   -1.19463  -1.13955  -1.12463  -1.12159  -1.11097
 Alpha  occ. eigenvalues --   -1.08912  -1.05854  -1.01277  -1.00320  -0.99238
 Alpha  occ. eigenvalues --   -0.98954  -0.95430  -0.90274  -0.87821  -0.87285
 Alpha  occ. eigenvalues --   -0.84404  -0.81270  -0.78933  -0.75737  -0.75381
 Alpha  occ. eigenvalues --   -0.75098  -0.74363  -0.72954  -0.72785  -0.71782
 Alpha  occ. eigenvalues --   -0.70370  -0.68779  -0.67476  -0.66649  -0.65450
 Alpha  occ. eigenvalues --   -0.64840  -0.64332  -0.63485  -0.60978  -0.60125
 Alpha  occ. eigenvalues --   -0.59696  -0.59582  -0.58910  -0.58787  -0.57633
 Alpha  occ. eigenvalues --   -0.56879  -0.56274  -0.56201  -0.55344  -0.54604
 Alpha  occ. eigenvalues --   -0.54040  -0.53821  -0.52531  -0.52217  -0.51785
 Alpha  occ. eigenvalues --   -0.50919  -0.50904  -0.50806  -0.49968  -0.49389
 Alpha  occ. eigenvalues --   -0.49086  -0.48657  -0.48037  -0.47617  -0.46778
 Alpha  occ. eigenvalues --   -0.46574  -0.45554  -0.45356  -0.44205  -0.43643
 Alpha  occ. eigenvalues --   -0.43044  -0.42263  -0.42038  -0.41825  -0.41277
 Alpha  occ. eigenvalues --   -0.40902  -0.40412  -0.40189  -0.38503  -0.38119
 Alpha  occ. eigenvalues --   -0.37875  -0.35073  -0.34825  -0.33899  -0.31071
 Alpha  occ. eigenvalues --   -0.30198  -0.29668
 Alpha virt. eigenvalues --   -0.12581  -0.11561  -0.09412  -0.06960  -0.06857
 Alpha virt. eigenvalues --   -0.06178  -0.04351  -0.03495  -0.02447  -0.01640
 Alpha virt. eigenvalues --   -0.01405  -0.01186   0.00442   0.00860   0.01205

 Mulliken charges:
               1
     1  N   -0.762741
     2  H    0.416940
     3  H    0.437257
     4  H    0.414214
     5  C   -0.108023
     6  H    0.219648
     7  C    0.652640
     8  C   -0.321352
     9  H    0.234288
    10  H    0.186384
    11  O   -0.544939
    12  C   -0.357941
    13  H    0.199706
    14  H    0.165213
    15  C    0.576994
    16  O   -0.424898
    17  O   -0.554201
    18  N   -0.589243
    19  H    0.374176
    20  C   -0.091463
    21  H    0.191778
    22  C    0.635043
    23  C   -0.259399
    24  H    0.169809
    25  H    0.150461
    26  O   -0.568774
    27  C   -0.070107
    28  H    0.111041
    29  C   -0.446649
    30  H    0.157455
    31  H    0.152896
    32  H    0.145108
    33  C   -0.460110
    34  H    0.151030
    35  H    0.157405
    36  H    0.153237
    37  N   -0.611082
    38  H    0.362205
    39  C   -0.044790
    40  H    0.172881
    41  C    0.593684
    42  C   -0.270479
    43  H    0.145315
    44  H    0.163352
    45  O   -0.637163
    46  C   -0.304971
    47  H    0.174296
    48  H    0.158411
    49  C   -0.147480
    50  H    0.161370
    51  H    0.168278
    52  N   -0.606779
    53  H    0.407019
    54  N   -0.754541
    55  H    0.363753
    56  H    0.369991
    57  N   -0.763163
    58  H    0.351124
    59  H    0.417613
    60  C    0.766697
    61  O   -0.560235
    62  H    0.431807
 Sum of Mulliken charges =   1.00000

 Dipole moment (field-independent basis, Debye):
    X=             -3.5286    Y=             -0.3097    Z=            -17.9983  Tot=             18.3435
 Quadrupole moment (field-independent basis, Debye-Ang):
   XX=            -62.8982   YY=            -76.4087   ZZ=            -99.4920
   XY=             98.1760   XZ=            -22.8098   YZ=            -15.7593

 Normal termination of Gaussian 16 at Wed Jun  1 02:11:54 2022.
