 Gaussian 16, Revision C.01,
 Gaussian 16:  ES64L-G16RevC.01  3-Jul-2019

 ----------------------------------------------------------------------
 # B3LYP/6-31G* empiricaldispersion=gd3 guess=read geom=check nosymm in
 tegral(ultrafinegrid)
 ----------------------------------------------------------------------

 ------------------------------------------------------
 Candidate Structure: Conf:364 Charge calc in gas phase
 ------------------------------------------------------
 Structure from the checkpoint file:  "conf-364.chk"
 Charge =  1 Multiplicity = 1

                          Input orientation:
 ---------------------------------------------------------------------
 Center     Atomic      Atomic             Coordinates (Angstroms)
 Number     Number       Type             X           Y           Z
 ---------------------------------------------------------------------
      1          7           0       -3.819116   -0.878290   -3.953739
      2          1           0       -4.568426   -1.538102   -3.730009
      3          1           0       -3.868187   -0.024193   -3.288865
      4          1           0       -3.925458   -0.580412   -4.926661
      5          6           0       -2.433170   -1.390801   -3.619070
      6          1           0       -2.532918   -2.415616   -3.251429
      7          6           0       -2.001655   -0.427631   -2.466536
      8          6           0       -1.474029   -1.319364   -4.810702
      9          1           0       -0.476330   -1.572682   -4.442674
     10          1           0       -1.402984   -0.281807   -5.161280
     11          8           0       -2.780584    0.501963   -2.193842
     12          6           0       -1.811394   -2.262095   -5.968576
     13          1           0       -1.939566   -3.293798   -5.614076
     14          1           0       -2.744265   -2.000474   -6.482590
     15          6           0       -0.699395   -2.280574   -7.006808
     16          8           0        0.408572   -1.806591   -6.847019
     17          8           0       -1.093349   -2.904390   -8.120519
     18          7           0       -0.832433   -0.674212   -1.907884
     19          1           0       -0.230141   -1.415646   -2.257963
     20          6           0       -0.140804    0.177651   -0.932397
     21          1           0       -0.582883    1.174875   -0.978852
     22          6           0        1.330372    0.215390   -1.373263
     23          6           0       -0.234745   -0.404716    0.495466
     24          1           0        0.446683    0.166506    1.140480
     25          1           0        0.162405   -1.428873    0.460282
     26          8           0        1.750316   -0.690668   -2.154231
     27          6           0       -1.650060   -0.408382    1.100431
     28          1           0       -2.318143   -0.967635    0.424916
     29          6           0       -1.616759   -1.141634    2.449857
     30          1           0       -0.958219   -0.620842    3.154865
     31          1           0       -2.616795   -1.187221    2.894996
     32          1           0       -1.246012   -2.167913    2.342448
     33          6           0       -2.209677    1.012444    1.265189
     34          1           0       -1.530196    1.626149    1.868900
     35          1           0       -2.364541    1.511255    0.302177
     36          1           0       -3.178812    0.986916    1.775637
     37          7           0        2.064335    1.160814   -0.819397
     38          1           0        1.675441    1.615543    0.053184
     39          6           0        3.487525    1.025064   -0.467257
     40          1           0        3.848670    0.029619   -0.743277
     41          6           0        3.483963    1.131822    1.134629
     42          6           0        4.383419    2.136057   -1.016581
     43          1           0        5.355842    1.989710   -0.532828
     44          1           0        3.998876    3.096205   -0.649819
     45          8           0        4.557757    0.866145    1.671431
     46          6           0        4.565824    2.241877   -2.537725
     47          1           0        3.617118    2.500401   -3.026856
     48          1           0        5.253826    3.072653   -2.738999
     49          6           0        5.139421    0.982592   -3.218710
     50          1           0        5.839752    0.462706   -2.557481
     51          1           0        5.694160    1.258255   -4.118795
     52          7           0        4.081574    0.027136   -3.590819
     53          1           0        3.468205   -0.290748   -2.830388
     54          7           0        4.199657    0.222029   -5.921079
     55          1           0        3.738342    0.185498   -6.817231
     56          1           0        5.205163    0.297988   -5.918660
     57          7           0        2.261651   -0.532825   -4.888305
     58          1           0        1.888226   -0.964676   -5.725273
     59          1           0        1.772030   -0.670057   -4.002022
     60          6           0        3.528117   -0.098492   -4.795227
     61          8           0        2.365977    1.516167    1.601829
     62          1           0       -0.345347   -2.924985   -8.749121
 ---------------------------------------------------------------------

 SCF Done:  E(RB3LYP) =  -1447.44128476     A.U. after    1 cycles

 Alpha  occ. eigenvalues --  -19.34400 -19.29660 -19.28881 -19.23430 -19.12039
 Alpha  occ. eigenvalues --  -19.10625 -14.61888 -14.51200 -14.50168 -14.48196
 Alpha  occ. eigenvalues --  -14.48145 -14.43315 -10.47938 -10.45541 -10.45461
 Alpha  occ. eigenvalues --  -10.43503 -10.38905 -10.37629 -10.36974 -10.34385
 Alpha  occ. eigenvalues --  -10.33014 -10.29558 -10.27491 -10.27172 -10.26827
 Alpha  occ. eigenvalues --  -10.26755 -10.24806 -10.24009 -10.23777  -1.25744
 Alpha  occ. eigenvalues --   -1.21370  -1.16921  -1.15698  -1.14336  -1.13554
 Alpha  occ. eigenvalues --   -1.07868  -1.05116  -1.03269  -1.02143  -1.00503
 Alpha  occ. eigenvalues --   -0.98134  -0.96245  -0.91845  -0.89270  -0.87790
 Alpha  occ. eigenvalues --   -0.85116  -0.82440  -0.81503  -0.77467  -0.76518
 Alpha  occ. eigenvalues --   -0.75823  -0.75195  -0.74727  -0.74576  -0.74497
 Alpha  occ. eigenvalues --   -0.72116  -0.71307  -0.69822  -0.68105  -0.66799
 Alpha  occ. eigenvalues --   -0.65988  -0.65352  -0.64551  -0.63682  -0.63349
 Alpha  occ. eigenvalues --   -0.62848  -0.62706  -0.62465  -0.60921  -0.59860
 Alpha  occ. eigenvalues --   -0.59260  -0.58319  -0.57795  -0.56229  -0.55952
 Alpha  occ. eigenvalues --   -0.55151  -0.54364  -0.54114  -0.53763  -0.53142
 Alpha  occ. eigenvalues --   -0.52881  -0.52652  -0.52309  -0.51936  -0.50505
 Alpha  occ. eigenvalues --   -0.50234  -0.48922  -0.48153  -0.47448  -0.46933
 Alpha  occ. eigenvalues --   -0.46605  -0.45027  -0.44991  -0.44102  -0.43792
 Alpha  occ. eigenvalues --   -0.43602  -0.43123  -0.41981  -0.41557  -0.41173
 Alpha  occ. eigenvalues --   -0.40885  -0.40757  -0.40269  -0.39806  -0.39670
 Alpha  occ. eigenvalues --   -0.38850  -0.37503  -0.37057  -0.35451  -0.26973
 Alpha  occ. eigenvalues --   -0.26809  -0.24443
 Alpha virt. eigenvalues --   -0.14833  -0.13995  -0.13034  -0.09991  -0.08803
 Alpha virt. eigenvalues --   -0.08731  -0.07144  -0.05932  -0.05596  -0.04918
 Alpha virt. eigenvalues --   -0.03212  -0.02749  -0.01524  -0.01278  -0.00700

 Mulliken charges:
               1
     1  N   -0.765044
     2  H    0.419960
     3  H    0.443759
     4  H    0.410701
     5  C   -0.112005
     6  H    0.223418
     7  C    0.659017
     8  C   -0.308096
     9  H    0.202311
    10  H    0.194136
    11  O   -0.537892
    12  C   -0.377872
    13  H    0.214499
    14  H    0.185621
    15  C    0.612234
    16  O   -0.472230
    17  O   -0.537899
    18  N   -0.577542
    19  H    0.358090
    20  C   -0.100787
    21  H    0.204912
    22  C    0.611567
    23  C   -0.285849
    24  H    0.227592
    25  H    0.139913
    26  O   -0.630410
    27  C   -0.069654
    28  H    0.093291
    29  C   -0.447818
    30  H    0.176305
    31  H    0.149622
    32  H    0.141709
    33  C   -0.466388
    34  H    0.173537
    35  H    0.146503
    36  H    0.152659
    37  N   -0.559216
    38  H    0.373419
    39  C   -0.137141
    40  H    0.144053
    41  C    0.611161
    42  C   -0.266929
    43  H    0.186605
    44  H    0.160273
    45  O   -0.539908
    46  C   -0.272304
    47  H    0.142047
    48  H    0.164155
    49  C   -0.170822
    50  H    0.201242
    51  H    0.149523
    52  N   -0.617551
    53  H    0.413622
    54  N   -0.754828
    55  H    0.370922
    56  H    0.379806
    57  N   -0.834534
    58  H    0.388112
    59  H    0.401118
    60  C    0.781917
    61  O   -0.605166
    62  H    0.438552
 Sum of Mulliken charges =   1.00000

 Dipole moment (field-independent basis, Debye):
    X=             -9.6371    Y=             -8.3360    Z=            -36.1204  Tot=             38.3021
 Quadrupole moment (field-independent basis, Debye-Ang):
   XX=           -104.1116   YY=           -157.3475   ZZ=              0.0741
   XY=             18.8703   XZ=            -18.6876   YZ=             27.5256

 Normal termination of Gaussian 16 at Wed Jun  1 02:21:17 2022.
