 Gaussian 16, Revision C.01,
 Gaussian 16:  ES64L-G16RevC.01  3-Jul-2019

 ----------------------------------------------------------------------
 # B3LYP/6-31G* empiricaldispersion=gd3 guess=read geom=check nosymm in
 tegral(ultrafinegrid)
 ----------------------------------------------------------------------

 ------------------------------------------------------
 Candidate Structure: Conf:472 Charge calc in gas phase
 ------------------------------------------------------
 Structure from the checkpoint file:  "conf-472.chk"
 Charge =  1 Multiplicity = 1

                          Input orientation:
 ---------------------------------------------------------------------
 Center     Atomic      Atomic             Coordinates (Angstroms)
 Number     Number       Type             X           Y           Z
 ---------------------------------------------------------------------
      1          7           0       -3.128812   -2.584221   -2.874344
      2          1           0       -3.037926   -3.600745   -2.940653
      3          1           0       -3.451857   -2.299859   -1.887180
      4          1           0       -3.810698   -2.271646   -3.570694
      5          6           0       -1.807785   -1.840382   -2.959796
      6          1           0       -1.015035   -2.588015   -3.055304
      7          6           0       -1.728369   -1.155133   -1.562419
      8          6           0       -1.778464   -0.854876   -4.127793
      9          1           0       -0.864385   -0.258434   -4.053594
     10          1           0       -2.600485   -0.135404   -4.022969
     11          8           0       -2.687921   -1.325699   -0.789394
     12          6           0       -1.816210   -1.522132   -5.505712
     13          1           0       -1.021416   -2.273504   -5.604422
     14          1           0       -2.758379   -2.048632   -5.705304
     15          6           0       -1.613987   -0.488375   -6.604971
     16          8           0       -1.293924    0.660913   -6.407793
     17          8           0       -1.826929   -1.029406   -7.816842
     18          7           0       -0.647124   -0.440116   -1.311480
     19          1           0        0.118604   -0.323362   -1.978589
     20          6           0       -0.394533    0.275387   -0.056730
     21          1           0       -1.310149    0.798395    0.232520
     22          6           0        0.724630    1.271392   -0.414655
     23          6           0        0.032897   -0.716839    1.053173
     24          1           0        0.950174   -1.216260    0.715071
     25          1           0       -0.752951   -1.481226    1.108348
     26          8           0        1.433260    1.062156   -1.408870
     27          6           0        0.249361   -0.129713    2.462788
     28          1           0        1.058743    0.609101    2.426071
     29          6           0       -1.007777    0.562849    3.010237
     30          1           0       -1.852336   -0.136758    3.052868
     31          1           0       -0.824799    0.939252    4.021082
     32          1           0       -1.324136    1.423082    2.406712
     33          6           0        0.696292   -1.254054    3.409509
     34          1           0       -0.083544   -2.020406    3.506535
     35          1           0        1.608708   -1.743311    3.049141
     36          1           0        0.901405   -0.856719    4.408775
     37          7           0        0.868069    2.316109    0.412093
     38          1           0        0.333131    2.370842    1.275488
     39          6           0        2.055538    3.162619    0.420678
     40          1           0        2.860029    2.604833   -0.058369
     41          6           0        2.422887    3.407589    1.900000
     42          6           0        1.820009    4.499418   -0.316268
     43          1           0        2.570127    5.223925    0.015376
     44          1           0        0.851711    4.893860    0.013242
     45          8           0        3.637014    3.864231    2.138100
     46          6           0        1.836216    4.386581   -1.849599
     47          1           0        1.097573    3.644520   -2.176177
     48          1           0        1.526165    5.352296   -2.270572
     49          6           0        3.196776    3.991728   -2.456908
     50          1           0        3.118625    3.971354   -3.548170
     51          1           0        3.462068    2.973867   -2.159257
     52          7           0        4.292984    4.899687   -2.114573
     53          1           0        4.325261    5.773214   -2.624683
     54          7           0        5.086913    3.849594   -0.125756
     55          1           0        4.245892    3.855039    1.314225
     56          1           0        4.974133    2.986890   -0.655181
     57          7           0        5.320389    6.122989   -0.430165
     58          1           0        5.796449    6.112362    0.462397
     59          1           0        4.760382    6.943889   -0.616873
     60          6           0        4.890807    4.898776   -0.875912
     61          8           0        1.597277    3.211903    2.775405
     62          1           0       -1.663751   -0.336020   -8.485461
 ---------------------------------------------------------------------

 SCF Done:  E(RB3LYP) =  -1447.46760433     A.U. after    1 cycles

 Alpha  occ. eigenvalues --  -19.30892 -19.28021 -19.25555 -19.23636 -19.22734
 Alpha  occ. eigenvalues --  -19.19887 -14.60877 -14.50364 -14.45911 -14.44132
 Alpha  occ. eigenvalues --  -14.43374 -14.37719 -10.44595 -10.44044 -10.42162
 Alpha  occ. eigenvalues --  -10.39608 -10.38383 -10.37843 -10.35352 -10.34950
 Alpha  occ. eigenvalues --  -10.34420 -10.31968 -10.30826 -10.28557 -10.27722
 Alpha  occ. eigenvalues --  -10.27261 -10.27181 -10.25133 -10.24595  -1.21959
 Alpha  occ. eigenvalues --   -1.20436  -1.15500  -1.14870  -1.14295  -1.13233
 Alpha  occ. eigenvalues --   -1.07569  -1.07050  -1.06828  -1.02621  -0.97707
 Alpha  occ. eigenvalues --   -0.96211  -0.93043  -0.91263  -0.88793  -0.88229
 Alpha  occ. eigenvalues --   -0.84977  -0.82111  -0.80213  -0.76912  -0.76230
 Alpha  occ. eigenvalues --   -0.75762  -0.75343  -0.73619  -0.71856  -0.71722
 Alpha  occ. eigenvalues --   -0.69788  -0.68992  -0.67547  -0.66593  -0.66213
 Alpha  occ. eigenvalues --   -0.65321  -0.64336  -0.64246  -0.62353  -0.62108
 Alpha  occ. eigenvalues --   -0.60534  -0.60374  -0.60141  -0.59255  -0.57974
 Alpha  occ. eigenvalues --   -0.57770  -0.57175  -0.56570  -0.55989  -0.54920
 Alpha  occ. eigenvalues --   -0.54291  -0.53763  -0.53329  -0.52555  -0.52023
 Alpha  occ. eigenvalues --   -0.51948  -0.51787  -0.51404  -0.50999  -0.50306
 Alpha  occ. eigenvalues --   -0.49907  -0.49826  -0.48690  -0.48429  -0.47018
 Alpha  occ. eigenvalues --   -0.46769  -0.46557  -0.45914  -0.44823  -0.44435
 Alpha  occ. eigenvalues --   -0.44190  -0.43184  -0.43084  -0.42888  -0.42278
 Alpha  occ. eigenvalues --   -0.42046  -0.40979  -0.40567  -0.39273  -0.39013
 Alpha  occ. eigenvalues --   -0.36929  -0.36885  -0.36637  -0.35314  -0.34404
 Alpha  occ. eigenvalues --   -0.33521  -0.31540
 Alpha virt. eigenvalues --   -0.13333  -0.12523  -0.10444  -0.08399  -0.07472
 Alpha virt. eigenvalues --   -0.05675  -0.05396  -0.04484  -0.03081  -0.02419
 Alpha virt. eigenvalues --   -0.01875  -0.01766  -0.00724  -0.00405   0.00446

 Mulliken charges:
               1
     1  N   -0.763082
     2  H    0.417284
     3  H    0.439695
     4  H    0.412436
     5  C   -0.110316
     6  H    0.220733
     7  C    0.662411
     8  C   -0.302942
     9  H    0.221617
    10  H    0.191470
    11  O   -0.546842
    12  C   -0.378688
    13  H    0.203640
    14  H    0.172319
    15  C    0.599538
    16  O   -0.438533
    17  O   -0.555063
    18  N   -0.610616
    19  H    0.374304
    20  C   -0.068185
    21  H    0.194433
    22  C    0.623575
    23  C   -0.260147
    24  H    0.150013
    25  H    0.160903
    26  O   -0.559688
    27  C   -0.103909
    28  H    0.157053
    29  C   -0.453994
    30  H    0.148951
    31  H    0.180396
    32  H    0.130386
    33  C   -0.447764
    34  H    0.143450
    35  H    0.147961
    36  H    0.168918
    37  N   -0.606820
    38  H    0.375696
    39  C   -0.083486
    40  H    0.172202
    41  C    0.609599
    42  C   -0.270865
    43  H    0.156058
    44  H    0.161887
    45  O   -0.595277
    46  C   -0.260443
    47  H    0.156875
    48  H    0.142465
    49  C   -0.167871
    50  H    0.167312
    51  H    0.175452
    52  N   -0.578860
    53  H    0.330807
    54  N   -0.742189
    55  H    0.466668
    56  H    0.301085
    57  N   -0.738150
    58  H    0.362950
    59  H    0.336154
    60  C    0.655948
    61  O   -0.482647
    62  H    0.433728
 Sum of Mulliken charges =   1.00000

 Dipole moment (field-independent basis, Debye):
    X=             -6.7656    Y=             -2.8552    Z=            -17.5134  Tot=             18.9906
 Quadrupole moment (field-independent basis, Debye-Ang):
   XX=           -133.8345   YY=            -93.3615   ZZ=           -107.6556
   XY=             50.8834   XZ=             24.7862   YZ=             10.9281

 Normal termination of Gaussian 16 at Wed Jun  1 02:21:15 2022.
