 Gaussian 16, Revision C.01,
 Gaussian 16:  ES64L-G16RevC.01  3-Jul-2019

 ----------------------------------------------------------------------
 # B3LYP/6-31G* empiricaldispersion=gd3 guess=read geom=check nosymm in
 tegral(ultrafinegrid)
 ----------------------------------------------------------------------

 ------------------------------------------------------
 Candidate Structure: Conf:950 Charge calc in gas phase
 ------------------------------------------------------
 Structure from the checkpoint file:  "conf-950.chk"
 Charge =  1 Multiplicity = 1

                          Input orientation:
 ---------------------------------------------------------------------
 Center     Atomic      Atomic             Coordinates (Angstroms)
 Number     Number       Type             X           Y           Z
 ---------------------------------------------------------------------
      1          7           0       -3.636233   -0.920511   -3.311411
      2          1           0       -3.757139   -1.935681   -3.244538
      3          1           0       -4.028951   -0.475281   -2.418076
      4          1           0       -4.119988   -0.585919   -4.149211
      5          6           0       -2.185644   -0.490874   -3.223789
      6          1           0       -1.554205   -1.346661   -3.475677
      7          6           0       -2.064871   -0.103338   -1.718726
      8          6           0       -1.939381    0.684451   -4.186062
      9          1           0       -2.582817    1.524246   -3.896577
     10          1           0       -2.235401    0.377179   -5.195375
     11          8           0       -3.130002    0.115183   -1.116556
     12          6           0       -0.470659    1.137070   -4.218653
     13          1           0       -0.141187    1.545973   -3.257809
     14          1           0        0.190068    0.283434   -4.428076
     15          6           0       -0.146934    2.173965   -5.279954
     16          8           0        0.880243    2.828154   -5.291181
     17          8           0       -1.088313    2.279567   -6.226698
     18          7           0       -0.843802   -0.034836   -1.223244
     19          1           0       -0.028332   -0.141001   -1.821490
     20          6           0       -0.481591    0.370872    0.139555
     21          1           0       -1.315420    0.935424    0.562461
     22          6           0        0.765646    1.264209    0.005842
     23          6           0       -0.153034   -0.865459    1.007734
     24          1           0        0.287189   -0.516173    1.951214
     25          1           0        0.638148   -1.428219    0.491844
     26          8           0        1.366556    1.296329   -1.101767
     27          6           0       -1.347202   -1.790234    1.303075
     28          1           0       -1.784804   -2.118827    0.345292
     29          6           0       -0.843371   -3.036888    2.046135
     30          1           0       -0.393723   -2.756507    3.005785
     31          1           0       -1.666384   -3.730816    2.250279
     32          1           0       -0.082988   -3.572935    1.465728
     33          6           0       -2.439992   -1.077109    2.113166
     34          1           0       -2.023373   -0.666328    3.040682
     35          1           0       -2.905981   -0.260939    1.550354
     36          1           0       -3.236187   -1.778542    2.386689
     37          7           0        1.139239    1.878228    1.118236
     38          1           0        0.687924    1.557864    2.020489
     39          6           0        2.546595    2.034948    1.542620
     40          1           0        3.189043    1.486537    0.845486
     41          6           0        2.585290    1.303998    2.969255
     42          6           0        3.054562    3.467659    1.691971
     43          1           0        3.998710    3.376968    2.237320
     44          1           0        2.372899    4.034392    2.341498
     45          8           0        3.698744    1.242679    3.489059
     46          6           0        3.290940    4.223785    0.376693
     47          1           0        3.954793    5.082072    0.545091
     48          1           0        3.803205    3.566419   -0.338609
     49          6           0        1.985415    4.733584   -0.240697
     50          1           0        1.530200    5.496639    0.397267
     51          1           0        1.250199    3.932592   -0.336598
     52          7           0        2.163582    5.346334   -1.569466
     53          1           0        2.510215    6.296907   -1.593385
     54          7           0        2.132882    3.330592   -2.744350
     55          1           0        1.945900    2.891150   -3.640695
     56          1           0        2.051275    2.721459   -1.915953
     57          7           0        2.389466    5.327305   -3.880590
     58          1           0        2.308745    4.812199   -4.747487
     59          1           0        2.150790    6.307714   -3.925459
     60          6           0        2.222825    4.654388   -2.713706
     61          8           0        1.442314    0.910187    3.367127
     62          1           0       -0.788901    2.936619   -6.885713
 ---------------------------------------------------------------------

 SCF Done:  E(RB3LYP) =  -1447.44167323     A.U. after    2 cycles

 Alpha  occ. eigenvalues --  -19.35335 -19.29896 -19.28238 -19.22596 -19.11564
 Alpha  occ. eigenvalues --  -19.10090 -14.61977 -14.50891 -14.50154 -14.50112
 Alpha  occ. eigenvalues --  -14.48123 -14.42180 -10.48389 -10.46050 -10.45042
 Alpha  occ. eigenvalues --  -10.43296 -10.38194 -10.37536 -10.36463 -10.33933
 Alpha  occ. eigenvalues --  -10.32978 -10.29018 -10.27033 -10.26728 -10.26691
 Alpha  occ. eigenvalues --  -10.26500 -10.24381 -10.23905 -10.23706  -1.26385
 Alpha  occ. eigenvalues --   -1.20901  -1.17295  -1.15639  -1.14608  -1.13113
 Alpha  occ. eigenvalues --   -1.07426  -1.04552  -1.04094  -1.02274  -0.99616
 Alpha  occ. eigenvalues --   -0.97922  -0.95665  -0.91221  -0.89100  -0.88034
 Alpha  occ. eigenvalues --   -0.84943  -0.82074  -0.81304  -0.77402  -0.77072
 Alpha  occ. eigenvalues --   -0.75922  -0.75233  -0.74818  -0.74309  -0.74068
 Alpha  occ. eigenvalues --   -0.72053  -0.71868  -0.69467  -0.68023  -0.66811
 Alpha  occ. eigenvalues --   -0.66228  -0.65321  -0.64142  -0.63865  -0.62987
 Alpha  occ. eigenvalues --   -0.62797  -0.62599  -0.61505  -0.60662  -0.60105
 Alpha  occ. eigenvalues --   -0.58370  -0.57986  -0.57573  -0.56453  -0.55969
 Alpha  occ. eigenvalues --   -0.55371  -0.55011  -0.54369  -0.53923  -0.53100
 Alpha  occ. eigenvalues --   -0.52786  -0.52502  -0.51962  -0.51095  -0.50916
 Alpha  occ. eigenvalues --   -0.49185  -0.48786  -0.47917  -0.47272  -0.46564
 Alpha  occ. eigenvalues --   -0.45867  -0.45452  -0.44844  -0.43871  -0.43756
 Alpha  occ. eigenvalues --   -0.42983  -0.42826  -0.42195  -0.41182  -0.41050
 Alpha  occ. eigenvalues --   -0.40662  -0.40389  -0.39999  -0.39632  -0.39237
 Alpha  occ. eigenvalues --   -0.38384  -0.38013  -0.36442  -0.34341  -0.26523
 Alpha  occ. eigenvalues --   -0.26331  -0.23990
 Alpha virt. eigenvalues --   -0.14874  -0.13867  -0.12904  -0.10266  -0.08504
 Alpha virt. eigenvalues --   -0.08106  -0.07472  -0.06034  -0.05527  -0.03744
 Alpha virt. eigenvalues --   -0.03378  -0.02156  -0.01773  -0.00937  -0.00461

 Mulliken charges:
               1
     1  N   -0.758118
     2  H    0.422801
     3  H    0.438702
     4  H    0.413613
     5  C   -0.118789
     6  H    0.216735
     7  C    0.653315
     8  C   -0.289369
     9  H    0.196176
    10  H    0.195831
    11  O   -0.537862
    12  C   -0.416452
    13  H    0.224088
    14  H    0.210907
    15  C    0.622005
    16  O   -0.482024
    17  O   -0.543503
    18  N   -0.571850
    19  H    0.360854
    20  C   -0.106617
    21  H    0.203779
    22  C    0.612931
    23  C   -0.288931
    24  H    0.231155
    25  H    0.135604
    26  O   -0.622046
    27  C   -0.066477
    28  H    0.082625
    29  C   -0.447954
    30  H    0.179408
    31  H    0.147372
    32  H    0.140580
    33  C   -0.466612
    34  H    0.175889
    35  H    0.147193
    36  H    0.150043
    37  N   -0.585899
    38  H    0.371880
    39  C   -0.107116
    40  H    0.151815
    41  C    0.605016
    42  C   -0.269830
    43  H    0.199264
    44  H    0.143177
    45  O   -0.541108
    46  C   -0.271540
    47  H    0.148361
    48  H    0.148828
    49  C   -0.180155
    50  H    0.183768
    51  H    0.188338
    52  N   -0.594685
    53  H    0.357185
    54  N   -0.817320
    55  H    0.383602
    56  H    0.436759
    57  N   -0.768570
    58  H    0.380936
    59  H    0.364760
    60  C    0.796310
    61  O   -0.608092
    62  H    0.439315
 Sum of Mulliken charges =   1.00000

 Dipole moment (field-independent basis, Debye):
    X=            -11.7658    Y=              9.8909    Z=            -31.1041  Tot=             34.6948
 Quadrupole moment (field-independent basis, Debye-Ang):
   XX=           -145.4247   YY=            -74.2626   ZZ=            -98.3813
   XY=             37.1704   XZ=              8.6557   YZ=            -42.5085

 Normal termination of Gaussian 16 at Wed Jun  1 02:21:29 2022.
