 Gaussian 16, Revision C.01,
 Gaussian 16:  ES64L-G16RevC.01  3-Jul-2019

 ----------------------------------------------------------------------
 # B3LYP/6-31G* empiricaldispersion=gd3 guess=read geom=check nosymm in
 tegral(ultrafinegrid)
 ----------------------------------------------------------------------

 ------------------------------------------------------
 Candidate Structure: Conf:242 Charge calc in gas phase
 ------------------------------------------------------
 Structure from the checkpoint file:  "conf-242.chk"
 Charge =  1 Multiplicity = 1

                          Input orientation:
 ---------------------------------------------------------------------
 Center     Atomic      Atomic             Coordinates (Angstroms)
 Number     Number       Type             X           Y           Z
 ---------------------------------------------------------------------
      1          7           0       -4.612611    0.374953   -3.622425
      2          1           0       -5.525120    0.416558   -3.161400
      3          1           0       -4.044641    1.246021   -3.344737
      4          1           0       -4.754389    0.326969   -4.633810
      5          6           0       -3.710708   -0.716945   -3.078577
      6          1           0       -4.317315   -1.396921   -2.479765
      7          6           0       -2.732108    0.090432   -2.182855
      8          6           0       -2.946954   -1.464821   -4.202449
      9          1           0       -1.877885   -1.426629   -3.967391
     10          1           0       -3.056662   -0.920411   -5.149010
     11          8           0       -2.734748    1.325010   -2.308159
     12          6           0       -3.391438   -2.916157   -4.402493
     13          1           0       -4.464179   -3.003447   -4.623500
     14          1           0       -2.874344   -3.354530   -5.262768
     15          6           0       -3.101471   -3.779909   -3.190599
     16          8           0       -2.746223   -3.361395   -2.101063
     17          8           0       -3.304901   -5.075759   -3.444119
     18          7           0       -1.966844   -0.626555   -1.367158
     19          1           0       -2.027724   -1.638006   -1.481758
     20          6           0       -0.695901   -0.101224   -0.874321
     21          1           0       -0.868970    0.925025   -0.539950
     22          6           0        0.296420   -0.067386   -2.073575
     23          6           0       -0.184199   -0.972148    0.284549
     24          1           0        0.768299   -0.556522    0.633979
     25          1           0        0.048977   -1.971455   -0.110324
     26          8           0       -0.029031   -0.500467   -3.185641
     27          6           0       -1.147131   -1.100678    1.480567
     28          1           0       -2.079995   -1.557968    1.118889
     29          6           0       -0.537165   -2.037531    2.533126
     30          1           0        0.393921   -1.618706    2.935010
     31          1           0       -1.225686   -2.184961    3.372353
     32          1           0       -0.305630   -3.021796    2.109274
     33          6           0       -1.491804    0.262987    2.095611
     34          1           0       -0.582345    0.786924    2.416693
     35          1           0       -2.025927    0.912859    1.392904
     36          1           0       -2.130886    0.139075    2.976648
     37          7           0        1.494267    0.450521   -1.786840
     38          1           0        1.743188    0.792461   -0.859392
     39          6           0        2.632917    0.486508   -2.695502
     40          1           0        2.656058   -0.431765   -3.286672
     41          6           0        3.905082    0.575107   -1.819925
     42          6           0        2.538244    1.711635   -3.647854
     43          1           0        2.157145    2.560475   -3.064135
     44          1           0        1.777832    1.486573   -4.402658
     45          8           0        4.965709    0.177458   -2.407793
     46          6           0        3.871919    2.102715   -4.318685
     47          1           0        4.466530    1.205946   -4.509555
     48          1           0        3.677150    2.590779   -5.282291
     49          6           0        4.682620    3.063166   -3.425896
     50          1           0        4.639745    2.771241   -2.376017
     51          1           0        4.255962    4.071849   -3.484542
     52          7           0        6.098849    3.173391   -3.797183
     53          1           0        6.309950    3.602919   -4.688295
     54          7           0        6.984970    1.723613   -2.196157
     55          1           0        7.786419    1.493512   -1.623752
     56          1           0        6.112454    1.043336   -2.157496
     57          7           0        8.382641    3.053032   -3.523255
     58          1           0        9.195644    2.613628   -3.116635
     59          1           0        8.505014    4.009547   -3.825271
     60          6           0        7.141535    2.625998   -3.144019
     61          8           0        3.797556    1.109432   -0.701600
     62          1           0       -3.110422   -5.580591   -2.630213
 ---------------------------------------------------------------------

 SCF Done:  E(RB3LYP) =  -1447.47835912     A.U. after    2 cycles

 Alpha  occ. eigenvalues --  -19.31287 -19.26521 -19.25619 -19.18891 -19.14782
 Alpha  occ. eigenvalues --  -19.14253 -14.58937 -14.46940 -14.46629 -14.46445
 Alpha  occ. eigenvalues --  -14.43229 -14.42057 -10.44553 -10.41957 -10.41799
 Alpha  occ. eigenvalues --  -10.39533 -10.35915 -10.32766 -10.32709 -10.32269
 Alpha  occ. eigenvalues --  -10.32026 -10.29993 -10.27535 -10.26862 -10.26375
 Alpha  occ. eigenvalues --  -10.25164 -10.24977 -10.24225 -10.23822  -1.22641
 Alpha  occ. eigenvalues --   -1.18021  -1.13676  -1.12629  -1.10514  -1.10389
 Alpha  occ. eigenvalues --   -1.07987  -1.04311  -1.00172  -0.99936  -0.98345
 Alpha  occ. eigenvalues --   -0.97530  -0.93881  -0.89388  -0.86884  -0.86219
 Alpha  occ. eigenvalues --   -0.83162  -0.80196  -0.78886  -0.75179  -0.74859
 Alpha  occ. eigenvalues --   -0.73243  -0.72935  -0.72477  -0.71447  -0.70043
 Alpha  occ. eigenvalues --   -0.69784  -0.67885  -0.66710  -0.65389  -0.64644
 Alpha  occ. eigenvalues --   -0.64171  -0.63522  -0.62255  -0.61295  -0.60713
 Alpha  occ. eigenvalues --   -0.59834  -0.59470  -0.59023  -0.58338  -0.56875
 Alpha  occ. eigenvalues --   -0.56350  -0.55531  -0.54444  -0.53660  -0.53618
 Alpha  occ. eigenvalues --   -0.53303  -0.52500  -0.52030  -0.51151  -0.50694
 Alpha  occ. eigenvalues --   -0.50338  -0.49816  -0.49512  -0.48782  -0.48653
 Alpha  occ. eigenvalues --   -0.48152  -0.47405  -0.47057  -0.46122  -0.45447
 Alpha  occ. eigenvalues --   -0.45087  -0.44509  -0.44427  -0.43830  -0.43533
 Alpha  occ. eigenvalues --   -0.43058  -0.42189  -0.40787  -0.40521  -0.40286
 Alpha  occ. eigenvalues --   -0.39944  -0.39811  -0.39647  -0.39282  -0.37460
 Alpha  occ. eigenvalues --   -0.37225  -0.34608  -0.32915  -0.32511  -0.30355
 Alpha  occ. eigenvalues --   -0.29129  -0.28447
 Alpha virt. eigenvalues --   -0.11343  -0.10745  -0.10130  -0.06863  -0.06437
 Alpha virt. eigenvalues --   -0.04664  -0.03483  -0.03125  -0.02570  -0.00808
 Alpha virt. eigenvalues --   -0.00195   0.00328   0.00640   0.00983   0.01638

 Mulliken charges:
               1
     1  N   -0.762928
     2  H    0.412082
     3  H    0.433719
     4  H    0.406287
     5  C   -0.108491
     6  H    0.217930
     7  C    0.637493
     8  C   -0.332617
     9  H    0.270647
    10  H    0.162664
    11  O   -0.541470
    12  C   -0.365679
    13  H    0.187870
    14  H    0.221514
    15  C    0.604160
    16  O   -0.479079
    17  O   -0.537723
    18  N   -0.588818
    19  H    0.399187
    20  C   -0.094617
    21  H    0.197949
    22  C    0.638431
    23  C   -0.295260
    24  H    0.170060
    25  H    0.150522
    26  O   -0.560605
    27  C   -0.069063
    28  H    0.123587
    29  C   -0.446010
    30  H    0.155197
    31  H    0.153378
    32  H    0.145817
    33  C   -0.455398
    34  H    0.153551
    35  H    0.141915
    36  H    0.156825
    37  N   -0.609307
    38  H    0.355467
    39  C   -0.014188
    40  H    0.169138
    41  C    0.584102
    42  C   -0.280984
    43  H    0.141713
    44  H    0.159205
    45  O   -0.628050
    46  C   -0.270407
    47  H    0.184938
    48  H    0.130068
    49  C   -0.176934
    50  H    0.218981
    51  H    0.161687
    52  N   -0.596726
    53  H    0.345574
    54  N   -0.765598
    55  H    0.342635
    56  H    0.455574
    57  N   -0.762939
    58  H    0.361465
    59  H    0.359705
    60  C    0.767042
    61  O   -0.569855
    62  H    0.434666
 Sum of Mulliken charges =   1.00000

 Dipole moment (field-independent basis, Debye):
    X=             -3.9645    Y=              2.6298    Z=            -18.1464  Tot=             18.7597
 Quadrupole moment (field-independent basis, Debye-Ang):
   XX=             33.9471   YY=           -122.0770   ZZ=            -92.1041
   XY=             71.1585   XZ=              8.8192   YZ=            -22.1132

 Normal termination of Gaussian 16 at Wed Jun  1 02:12:04 2022.
