 Gaussian 16, Revision C.01,
 Gaussian 16:  ES64L-G16RevC.01  3-Jul-2019

 ----------------------------------------------------------------------
 # B3LYP/6-31G* empiricaldispersion=gd3 guess=read geom=check nosymm in
 tegral(ultrafinegrid)
 ----------------------------------------------------------------------

 ------------------------------------------------------
 Candidate Structure: Conf:448 Charge calc in gas phase
 ------------------------------------------------------
 Structure from the checkpoint file:  "conf-448.chk"
 Charge =  1 Multiplicity = 1

                          Input orientation:
 ---------------------------------------------------------------------
 Center     Atomic      Atomic             Coordinates (Angstroms)
 Number     Number       Type             X           Y           Z
 ---------------------------------------------------------------------
      1          7           0       -3.028609   -2.591964   -2.818787
      2          1           0       -3.335793   -3.378035   -2.238881
      3          1           0       -3.366056   -1.681559   -2.369539
      4          1           0       -3.409309   -2.709852   -3.761701
      5          6           0       -1.525673   -2.383132   -2.795712
      6          1           0       -1.052095   -3.301849   -2.441012
      7          6           0       -1.382325   -1.217703   -1.776201
      8          6           0       -1.035949   -2.010064   -4.206373
      9          1           0       -1.485541   -1.057101   -4.506101
     10          1           0       -1.393831   -2.778147   -4.905587
     11          8           0       -2.408731   -0.565513   -1.515559
     12          6           0        0.496338   -1.923136   -4.320547
     13          1           0        0.898954   -1.117143   -3.696039
     14          1           0        0.975000   -2.854418   -4.004761
     15          6           0        0.954702   -1.654151   -5.744289
     16          8           0        1.863110   -2.220852   -6.297297
     17          8           0        0.220078   -0.667171   -6.317228
     18          7           0       -0.172104   -1.000373   -1.296240
     19          1           0        0.649030   -1.522368   -1.614767
     20          6           0        0.225734    0.158326   -0.493221
     21          1           0       -0.391199    1.010537   -0.791056
     22          6           0        1.703231    0.383332   -0.897312
     23          6           0        0.027731   -0.145289    1.011241
     24          1           0        0.662857   -1.003386    1.267168
     25          1           0       -1.014750   -0.473218    1.123432
     26          8           0        2.298957   -0.499645   -1.535105
     27          6           0        0.287830    1.005566    2.005043
     28          1           0        1.343746    1.296571    1.957982
     29          6           0       -0.564385    2.247222    1.701687
     30          1           0       -1.634017    2.000662    1.709143
     31          1           0       -0.388269    3.021498    2.454734
     32          1           0       -0.334224    2.695921    0.727281
     33          6           0        0.014310    0.503409    3.431027
     34          1           0       -1.039288    0.220920    3.554570
     35          1           0        0.629449   -0.371086    3.672910
     36          1           0        0.239857    1.284421    4.164560
     37          7           0        2.248873    1.537014   -0.508881
     38          1           0        1.755840    2.176873    0.114247
     39          6           0        3.686438    1.800851   -0.490311
     40          1           0        4.221586    0.857976   -0.352971
     41          6           0        3.972194    2.756570    0.700822
     42          6           0        4.190436    2.477201   -1.785284
     43          1           0        4.055118    1.784929   -2.622685
     44          1           0        5.266997    2.623657   -1.649798
     45          8           0        5.173923    2.958922    0.952141
     46          6           0        3.485394    3.825742   -2.075988
     47          1           0        2.848660    3.744513   -2.964724
     48          1           0        2.807554    4.065029   -1.251154
     49          6           0        4.418403    5.022364   -2.342064
     50          1           0        3.824664    5.919389   -2.561377
     51          1           0        5.025764    4.829669   -3.230329
     52          7           0        5.388425    5.335647   -1.274367
     53          1           0        6.369212    5.334731   -1.522147
     54          7           0        3.879971    5.794592    0.472612
     55          1           0        3.535998    5.099949    1.170542
     56          1           0        3.179179    5.961545   -0.238388
     57          7           0        6.151284    5.528692    0.900316
     58          1           0        5.858714    5.678115    1.859635
     59          1           0        6.752099    4.712729    0.829070
     60          6           0        5.119076    5.523184    0.020941
     61          8           0        2.954927    3.338132    1.205943
     62          1           0        0.579622   -0.530751   -7.214987
 ---------------------------------------------------------------------

 SCF Done:  E(RB3LYP) =  -1447.46298863     A.U. after    2 cycles

 Alpha  occ. eigenvalues --  -19.29624 -19.26952 -19.23744 -19.21189 -19.16235
 Alpha  occ. eigenvalues --  -19.15047 -14.60454 -14.49264 -14.48543 -14.45513
 Alpha  occ. eigenvalues --  -14.45234 -14.43793 -10.43629 -10.42920 -10.42293
 Alpha  occ. eigenvalues --  -10.41365 -10.37981 -10.34865 -10.33850 -10.33485
 Alpha  occ. eigenvalues --  -10.33433 -10.32149 -10.28998 -10.27938 -10.27789
 Alpha  occ. eigenvalues --  -10.26518 -10.26425 -10.24759 -10.24132  -1.20344
 Alpha  occ. eigenvalues --   -1.19461  -1.14211  -1.12862  -1.11757  -1.11511
 Alpha  occ. eigenvalues --   -1.08922  -1.06031  -1.01525  -1.01212  -0.99806
 Alpha  occ. eigenvalues --   -0.98765  -0.95183  -0.90097  -0.88143  -0.87413
 Alpha  occ. eigenvalues --   -0.84498  -0.82300  -0.79064  -0.76585  -0.75665
 Alpha  occ. eigenvalues --   -0.75127  -0.74252  -0.73033  -0.72721  -0.71164
 Alpha  occ. eigenvalues --   -0.70750  -0.69338  -0.67645  -0.66619  -0.65485
 Alpha  occ. eigenvalues --   -0.64346  -0.63615  -0.63493  -0.61779  -0.61112
 Alpha  occ. eigenvalues --   -0.60078  -0.58653  -0.58413  -0.58355  -0.57260
 Alpha  occ. eigenvalues --   -0.57127  -0.56390  -0.56240  -0.55624  -0.55053
 Alpha  occ. eigenvalues --   -0.54657  -0.53743  -0.52910  -0.52489  -0.52047
 Alpha  occ. eigenvalues --   -0.51057  -0.50763  -0.50160  -0.49995  -0.49566
 Alpha  occ. eigenvalues --   -0.49127  -0.48803  -0.48138  -0.47765  -0.46664
 Alpha  occ. eigenvalues --   -0.46102  -0.45434  -0.45124  -0.44514  -0.44289
 Alpha  occ. eigenvalues --   -0.43269  -0.42749  -0.42162  -0.41690  -0.41680
 Alpha  occ. eigenvalues --   -0.41444  -0.40393  -0.39932  -0.38578  -0.38232
 Alpha  occ. eigenvalues --   -0.37239  -0.37031  -0.35432  -0.34397  -0.31343
 Alpha  occ. eigenvalues --   -0.30764  -0.29051
 Alpha virt. eigenvalues --   -0.12410  -0.11584  -0.09911  -0.08890  -0.07011
 Alpha virt. eigenvalues --   -0.06878  -0.04795  -0.03393  -0.02232  -0.01691
 Alpha virt. eigenvalues --   -0.01280  -0.01208  -0.00656   0.00829   0.00994

 Mulliken charges:
               1
     1  N   -0.758083
     2  H    0.418103
     3  H    0.434379
     4  H    0.413457
     5  C   -0.111421
     6  H    0.216352
     7  C    0.647409
     8  C   -0.301488
     9  H    0.205782
    10  H    0.177896
    11  O   -0.545634
    12  C   -0.378459
    13  H    0.218562
    14  H    0.195621
    15  C    0.576241
    16  O   -0.425117
    17  O   -0.567098
    18  N   -0.595553
    19  H    0.377428
    20  C   -0.089583
    21  H    0.192273
    22  C    0.620882
    23  C   -0.250352
    24  H    0.150837
    25  H    0.151796
    26  O   -0.558796
    27  C   -0.104248
    28  H    0.165998
    29  C   -0.451723
    30  H    0.146087
    31  H    0.170614
    32  H    0.129890
    33  C   -0.448367
    34  H    0.141753
    35  H    0.149341
    36  H    0.163175
    37  N   -0.614076
    38  H    0.382102
    39  C   -0.067700
    40  H    0.180245
    41  C    0.597840
    42  C   -0.266413
    43  H    0.160215
    44  H    0.159702
    45  O   -0.593678
    46  C   -0.288267
    47  H    0.156529
    48  H    0.153358
    49  C   -0.167768
    50  H    0.175100
    51  H    0.180893
    52  N   -0.561887
    53  H    0.362767
    54  N   -0.728571
    55  H    0.400784
    56  H    0.347759
    57  N   -0.699526
    58  H    0.368833
    59  H    0.377853
    60  C    0.705722
    61  O   -0.627506
    62  H    0.427737
 Sum of Mulliken charges =   1.00000

 Dipole moment (field-independent basis, Debye):
    X=             -2.2288    Y=              0.9430    Z=            -13.4085  Tot=             13.6252
 Quadrupole moment (field-independent basis, Debye-Ang):
   XX=           -103.2628   YY=            -86.9202   ZZ=           -120.4732
   XY=             84.9999   XZ=             17.7211   YZ=              5.1513

 Normal termination of Gaussian 16 at Wed Jun  1 02:21:25 2022.
