 Gaussian 16, Revision C.01,
 Gaussian 16:  ES64L-G16RevC.01  3-Jul-2019

 ----------------------------------------------------------------------
 # B3LYP/6-31G* empiricaldispersion=gd3 guess=read geom=check nosymm in
 tegral(ultrafinegrid)
 ----------------------------------------------------------------------

 ------------------------------------------------------
 Candidate Structure: Conf:126 Charge calc in gas phase
 ------------------------------------------------------
 Structure from the checkpoint file:  "conf-126.chk"
 Charge =  1 Multiplicity = 1

                          Input orientation:
 ---------------------------------------------------------------------
 Center     Atomic      Atomic             Coordinates (Angstroms)
 Number     Number       Type             X           Y           Z
 ---------------------------------------------------------------------
      1          7           0       -4.202589   -1.666828   -2.777775
      2          1           0       -4.522741   -2.607145   -2.533145
      3          1           0       -4.345130   -1.005845   -1.940958
      4          1           0       -4.733027   -1.343585   -3.591280
      5          6           0       -2.699864   -1.561966   -2.957820
      6          1           0       -2.279999   -2.569614   -2.900985
      7          6           0       -2.277290   -0.714695   -1.720860
      8          6           0       -2.338397   -0.887787   -4.285249
      9          1           0       -1.261932   -0.690889   -4.287891
     10          1           0       -2.827579    0.095046   -4.328526
     11          8           0       -3.190496   -0.233711   -1.026693
     12          6           0       -2.701477   -1.734360   -5.517744
     13          1           0       -2.148905   -2.681648   -5.487886
     14          1           0       -3.769993   -1.966391   -5.570963
     15          6           0       -2.358762   -1.017344   -6.814962
     16          8           0       -3.150649   -0.746996   -7.683596
     17          8           0       -1.042727   -0.712745   -6.857101
     18          7           0       -0.978002   -0.581007   -1.533462
     19          1           0       -0.298419   -0.876562   -2.244288
     20          6           0       -0.329289    0.318437   -0.576325
     21          1           0       -0.991727    1.168046   -0.387257
     22          6           0        0.948901    0.779954   -1.323541
     23          6           0        0.036459   -0.395670    0.740281
     24          1           0        0.635824    0.297540    1.344478
     25          1           0        0.697051   -1.236012    0.488505
     26          8           0        1.283747    0.203078   -2.370505
     27          6           0       -1.151825   -0.895640    1.582502
     28          1           0       -1.773540   -1.545528    0.948991
     29          6           0       -0.626201   -1.738131    2.754494
     30          1           0        0.005996   -1.132691    3.415823
     31          1           0       -1.453508   -2.131514    3.355294
     32          1           0       -0.027323   -2.587537    2.405229
     33          6           0       -2.027696    0.258775    2.089749
     34          1           0       -1.434079    0.961746    2.688024
     35          1           0       -2.498298    0.808973    1.269290
     36          1           0       -2.831821   -0.121792    2.729228
     37          7           0        1.627081    1.766046   -0.741348
     38          1           0        1.343821    2.191795    0.143337
     39          6           0        2.956234    2.223059   -1.144029
     40          1           0        3.545064    1.363001   -1.475384
     41          6           0        3.578921    2.838849    0.144003
     42          6           0        2.817614    3.237782   -2.312960
     43          1           0        2.344680    4.148675   -1.921504
     44          1           0        2.100455    2.786819   -3.006590
     45          8           0        4.853122    2.902453    0.174992
     46          6           0        4.096222    3.587369   -3.115010
     47          1           0        4.845519    2.792939   -3.004533
     48          1           0        3.848044    3.616938   -4.182239
     49          6           0        4.751644    4.939864   -2.788346
     50          1           0        4.005462    5.741827   -2.854536
     51          1           0        5.538462    5.151853   -3.523537
     52          7           0        5.323387    4.908209   -1.441615
     53          1           0        5.378459    3.962087   -1.010755
     54          7           0        5.015520    7.156547   -0.889627
     55          1           0        4.998145    7.878548   -0.183943
     56          1           0        5.311260    7.450595   -1.809287
     57          7           0        5.311743    5.522360    0.766162
     58          1           0        5.266634    6.212796    1.500178
     59          1           0        5.161761    4.516406    0.980667
     60          6           0        5.219611    5.866624   -0.520611
     61          8           0        2.785130    3.258561    1.004176
     62          1           0       -0.873109   -0.260191   -7.705813
 ---------------------------------------------------------------------

 SCF Done:  E(RB3LYP) =  -1447.47148661     A.U. after    1 cycles

 Alpha  occ. eigenvalues --  -19.30076 -19.27095 -19.24422 -19.20725 -19.15756
 Alpha  occ. eigenvalues --  -19.15312 -14.60106 -14.49003 -14.47540 -14.44871
 Alpha  occ. eigenvalues --  -14.44504 -14.43423 -10.43588 -10.42946 -10.42306
 Alpha  occ. eigenvalues --  -10.41271 -10.37546 -10.34934 -10.33547 -10.33417
 Alpha  occ. eigenvalues --  -10.33374 -10.31569 -10.29001 -10.27475 -10.27238
 Alpha  occ. eigenvalues --  -10.26918 -10.26359 -10.24331 -10.24289  -1.20927
 Alpha  occ. eigenvalues --   -1.19465  -1.13949  -1.12458  -1.12158  -1.11095
 Alpha  occ. eigenvalues --   -1.08910  -1.05856  -1.01275  -1.00317  -0.99235
 Alpha  occ. eigenvalues --   -0.98953  -0.95428  -0.90274  -0.87821  -0.87282
 Alpha  occ. eigenvalues --   -0.84403  -0.81268  -0.78935  -0.75733  -0.75379
 Alpha  occ. eigenvalues --   -0.75098  -0.74367  -0.72943  -0.72783  -0.71779
 Alpha  occ. eigenvalues --   -0.70368  -0.68778  -0.67476  -0.66647  -0.65445
 Alpha  occ. eigenvalues --   -0.64841  -0.64334  -0.63484  -0.60976  -0.60123
 Alpha  occ. eigenvalues --   -0.59699  -0.59583  -0.58910  -0.58786  -0.57628
 Alpha  occ. eigenvalues --   -0.56879  -0.56274  -0.56203  -0.55341  -0.54606
 Alpha  occ. eigenvalues --   -0.54039  -0.53817  -0.52531  -0.52212  -0.51784
 Alpha  occ. eigenvalues --   -0.50915  -0.50902  -0.50805  -0.49964  -0.49388
 Alpha  occ. eigenvalues --   -0.49085  -0.48656  -0.48036  -0.47615  -0.46774
 Alpha  occ. eigenvalues --   -0.46576  -0.45553  -0.45355  -0.44204  -0.43639
 Alpha  occ. eigenvalues --   -0.43041  -0.42262  -0.42036  -0.41829  -0.41273
 Alpha  occ. eigenvalues --   -0.40896  -0.40410  -0.40191  -0.38506  -0.38117
 Alpha  occ. eigenvalues --   -0.37874  -0.35068  -0.34822  -0.33897  -0.31069
 Alpha  occ. eigenvalues --   -0.30198  -0.29664
 Alpha virt. eigenvalues --   -0.12581  -0.11557  -0.09412  -0.06957  -0.06853
 Alpha virt. eigenvalues --   -0.06174  -0.04346  -0.03494  -0.02449  -0.01633
 Alpha virt. eigenvalues --   -0.01395  -0.01193   0.00441   0.00848   0.01203

 Mulliken charges:
               1
     1  N   -0.762854
     2  H    0.416905
     3  H    0.437354
     4  H    0.414186
     5  C   -0.107889
     6  H    0.219766
     7  C    0.652769
     8  C   -0.321472
     9  H    0.234249
    10  H    0.186358
    11  O   -0.545049
    12  C   -0.357891
    13  H    0.199622
    14  H    0.165258
    15  C    0.576981
    16  O   -0.424883
    17  O   -0.554212
    18  N   -0.589231
    19  H    0.374218
    20  C   -0.091607
    21  H    0.191788
    22  C    0.634950
    23  C   -0.259323
    24  H    0.169890
    25  H    0.150463
    26  O   -0.568716
    27  C   -0.070135
    28  H    0.110820
    29  C   -0.446621
    30  H    0.157491
    31  H    0.152884
    32  H    0.145117
    33  C   -0.460140
    34  H    0.151099
    35  H    0.157486
    36  H    0.153180
    37  N   -0.610995
    38  H    0.362202
    39  C   -0.044987
    40  H    0.172831
    41  C    0.593737
    42  C   -0.270421
    43  H    0.145375
    44  H    0.163343
    45  O   -0.637156
    46  C   -0.304976
    47  H    0.174241
    48  H    0.158439
    49  C   -0.147476
    50  H    0.161389
    51  H    0.168242
    52  N   -0.606825
    53  H    0.407016
    54  N   -0.754546
    55  H    0.363763
    56  H    0.370014
    57  N   -0.763372
    58  H    0.351122
    59  H    0.417714
    60  C    0.766783
    61  O   -0.560090
    62  H    0.431822
 Sum of Mulliken charges =   1.00000

 Dipole moment (field-independent basis, Debye):
    X=             -4.3292    Y=              6.0918    Z=            -13.6081  Tot=             15.5253
 Quadrupole moment (field-independent basis, Debye-Ang):
   XX=            -85.7342   YY=            -48.1627   ZZ=           -124.4168
   XY=             99.2909   XZ=             14.6115   YZ=              0.9581

 Normal termination of Gaussian 16 at Wed Jun  1 02:11:54 2022.
