 Gaussian 16, Revision C.01,
 Gaussian 16:  ES64L-G16RevC.01  3-Jul-2019

 ----------------------------------------------------------------------
 # B3LYP/6-31G* empiricaldispersion=gd3 guess=read geom=check nosymm in
 tegral(ultrafinegrid)
 ----------------------------------------------------------------------

 ------------------------------------------------------
 Candidate Structure: Conf:315 Charge calc in gas phase
 ------------------------------------------------------
 Structure from the checkpoint file:  "conf-315.chk"
 Charge =  1 Multiplicity = 1

                          Input orientation:
 ---------------------------------------------------------------------
 Center     Atomic      Atomic             Coordinates (Angstroms)
 Number     Number       Type             X           Y           Z
 ---------------------------------------------------------------------
      1          7           0       -3.798922   -1.246147   -3.114520
      2          1           0       -4.328090   -2.099007   -2.920495
      3          1           0       -3.850822   -0.566643   -2.270720
      4          1           0       -4.184078   -0.804282   -3.952965
      5          6           0       -2.297538   -1.453502   -3.184049
      6          1           0       -2.099866   -2.515232   -3.011538
      7          6           0       -1.801574   -0.610922   -1.969578
      8          6           0       -1.718406   -0.993759   -4.522092
      9          1           0       -0.626934   -1.014910   -4.450372
     10          1           0       -1.973940    0.059648   -4.691999
     11          8           0       -2.667070    0.021263   -1.332159
     12          6           0       -2.154842   -1.853600   -5.711490
     13          1           0       -1.888052   -2.907467   -5.559588
     14          1           0       -3.240525   -1.839208   -5.877261
     15          6           0       -1.486440   -1.379268   -6.992998
     16          8           0       -0.669235   -0.490152   -7.048798
     17          8           0       -1.924683   -2.084558   -8.052174
     18          7           0       -0.509035   -0.632987   -1.723922
     19          1           0        0.171687   -1.162431   -2.280952
     20          6           0        0.165560    0.094750   -0.644782
     21          1           0       -0.207915    1.122305   -0.630398
     22          6           0        1.653854    0.047182   -1.060808
     23          6           0       -0.095620   -0.595098    0.715908
     24          1           0        0.311204   -1.613055    0.653724
     25          1           0       -1.185020   -0.686001    0.820048
     26          8           0        2.020590   -0.798912   -1.891328
     27          6           0        0.460487    0.111068    1.969484
     28          1           0        1.551724    0.179793    1.896040
     29          6           0       -0.092375    1.534322    2.134823
     30          1           0       -1.188623    1.525203    2.195604
     31          1           0        0.298648    1.988161    3.050382
     32          1           0        0.190593    2.200098    1.310752
     33          6           0        0.132975   -0.738269    3.206844
     34          1           0       -0.952175   -0.825171    3.350535
     35          1           0        0.544388   -1.750834    3.118951
     36          1           0        0.554789   -0.282482    4.108667
     37          7           0        2.449318    0.931956   -0.461171
     38          1           0        2.115524    1.522901    0.303753
     39          6           0        3.907907    0.862840   -0.433445
     40          1           0        4.210060   -0.174794   -0.596317
     41          6           0        4.334302    1.291633    1.009457
     42          6           0        4.502951    1.771880   -1.537817
     43          1           0        3.917038    2.698292   -1.554532
     44          1           0        4.341801    1.281386   -2.506601
     45          8           0        5.503705    0.920931    1.340029
     46          6           0        5.979153    2.162473   -1.368539
     47          1           0        6.272997    2.808501   -2.206794
     48          1           0        6.086220    2.759857   -0.457338
     49          6           0        6.945881    0.974117   -1.285689
     50          1           0        6.993005    0.425991   -2.231578
     51          1           0        6.627387    0.284669   -0.503274
     52          7           0        8.322757    1.401406   -0.976090
     53          1           0        8.853694    1.794352   -1.742962
     54          7           0        7.997304    1.638025    1.326177
     55          1           0        8.421544    1.743532    2.237691
     56          1           0        6.951032    1.416233    1.318597
     57          7           0       10.044481    2.181673    0.351502
     58          1           0       10.418138    2.397635    1.264692
     59          1           0       10.725020    1.868589   -0.326853
     60          6           0        8.761807    1.727676    0.253499
     61          8           0        3.500683    1.926718    1.676811
     62          1           0       -1.457433   -1.750527   -8.842239
 ---------------------------------------------------------------------

 SCF Done:  E(RB3LYP) =  -1447.46612452     A.U. after    3 cycles

 Alpha  occ. eigenvalues --  -19.29709 -19.26240 -19.24349 -19.19503 -19.14035
 Alpha  occ. eigenvalues --  -19.13808 -14.59117 -14.48195 -14.47916 -14.47627
 Alpha  occ. eigenvalues --  -14.45352 -14.42177 -10.43513 -10.42808 -10.42672
 Alpha  occ. eigenvalues --  -10.40458 -10.36354 -10.33802 -10.33101 -10.32441
 Alpha  occ. eigenvalues --  -10.32130 -10.30552 -10.27606 -10.26378 -10.26076
 Alpha  occ. eigenvalues --  -10.25303 -10.24938 -10.23015 -10.22859  -1.20755
 Alpha  occ. eigenvalues --   -1.18631  -1.12955  -1.12021  -1.11950  -1.11269
 Alpha  occ. eigenvalues --   -1.07342  -1.04901  -1.01525  -1.00130  -0.99276
 Alpha  occ. eigenvalues --   -0.98109  -0.94612  -0.89112  -0.87084  -0.86696
 Alpha  occ. eigenvalues --   -0.83101  -0.80683  -0.78709  -0.75741  -0.74537
 Alpha  occ. eigenvalues --   -0.73848  -0.73648  -0.72871  -0.71869  -0.70373
 Alpha  occ. eigenvalues --   -0.69369  -0.69155  -0.67451  -0.65956  -0.65281
 Alpha  occ. eigenvalues --   -0.64060  -0.63485  -0.62359  -0.61197  -0.60810
 Alpha  occ. eigenvalues --   -0.60107  -0.59187  -0.58649  -0.58135  -0.57904
 Alpha  occ. eigenvalues --   -0.56104  -0.55442  -0.55214  -0.53883  -0.53843
 Alpha  occ. eigenvalues --   -0.53370  -0.52853  -0.52534  -0.51595  -0.51378
 Alpha  occ. eigenvalues --   -0.50302  -0.50000  -0.49227  -0.48719  -0.48618
 Alpha  occ. eigenvalues --   -0.48357  -0.48210  -0.47562  -0.46239  -0.45341
 Alpha  occ. eigenvalues --   -0.44399  -0.44208  -0.44027  -0.43093  -0.42901
 Alpha  occ. eigenvalues --   -0.42753  -0.42002  -0.41251  -0.41206  -0.40311
 Alpha  occ. eigenvalues --   -0.39852  -0.38928  -0.38420  -0.38302  -0.38031
 Alpha  occ. eigenvalues --   -0.36944  -0.35851  -0.33922  -0.32829  -0.29870
 Alpha  occ. eigenvalues --   -0.28257  -0.28099
 Alpha virt. eigenvalues --   -0.11502  -0.11072  -0.09151  -0.07920  -0.06038
 Alpha virt. eigenvalues --   -0.05182  -0.04735  -0.03731  -0.01654  -0.00812
 Alpha virt. eigenvalues --   -0.00735  -0.00145   0.00051   0.00441   0.00880

 Mulliken charges:
               1
     1  N   -0.765668
     2  H    0.413317
     3  H    0.439045
     4  H    0.408767
     5  C   -0.108165
     6  H    0.216955
     7  C    0.661827
     8  C   -0.301321
     9  H    0.223358
    10  H    0.191797
    11  O   -0.554211
    12  C   -0.376332
    13  H    0.203096
    14  H    0.168237
    15  C    0.597033
    16  O   -0.437221
    17  O   -0.557775
    18  N   -0.609467
    19  H    0.374196
    20  C   -0.068883
    21  H    0.189595
    22  C    0.616175
    23  C   -0.258848
    24  H    0.145931
    25  H    0.154199
    26  O   -0.564586
    27  C   -0.102012
    28  H    0.168584
    29  C   -0.450026
    30  H    0.139720
    31  H    0.174300
    32  H    0.136322
    33  C   -0.447195
    34  H    0.137606
    35  H    0.143717
    36  H    0.163381
    37  N   -0.613285
    38  H    0.375599
    39  C   -0.059536
    40  H    0.167136
    41  C    0.595248
    42  C   -0.269745
    43  H    0.154845
    44  H    0.152474
    45  O   -0.632757
    46  C   -0.273470
    47  H    0.135827
    48  H    0.166473
    49  C   -0.175993
    50  H    0.166109
    51  H    0.217231
    52  N   -0.594898
    53  H    0.348811
    54  N   -0.777831
    55  H    0.354138
    56  H    0.466767
    57  N   -0.765295
    58  H    0.365544
    59  H    0.365072
    60  C    0.786819
    61  O   -0.552028
    62  H    0.431300
 Sum of Mulliken charges =   1.00000

 Dipole moment (field-independent basis, Debye):
    X=              7.3095    Y=             -2.9622    Z=            -15.3101  Tot=             17.2221
 Quadrupole moment (field-independent basis, Debye-Ang):
   XX=             94.6460   YY=           -156.1635   ZZ=           -101.3542
   XY=             61.9299   XZ=             39.8090   YZ=             20.8727

 Normal termination of Gaussian 16 at Wed Jun  1 02:12:10 2022.
