 Gaussian 16, Revision C.01,
 Gaussian 16:  ES64L-G16RevC.01  3-Jul-2019

 ----------------------------------------------------------------------
 # B3LYP/6-31G* empiricaldispersion=gd3 guess=read geom=check nosymm in
 tegral(ultrafinegrid)
 ----------------------------------------------------------------------

 ------------------------------------------------------
 Candidate Structure: Conf:351 Charge calc in gas phase
 ------------------------------------------------------
 Structure from the checkpoint file:  "conf-351.chk"
 Charge =  1 Multiplicity = 1

                          Input orientation:
 ---------------------------------------------------------------------
 Center     Atomic      Atomic             Coordinates (Angstroms)
 Number     Number       Type             X           Y           Z
 ---------------------------------------------------------------------
      1          7           0       -3.252131   -1.964922   -3.865616
      2          1           0       -3.866063   -1.610699   -3.096978
      3          1           0       -3.282068   -1.266739   -4.614302
      4          1           0       -3.500487   -2.897720   -4.246627
      5          6           0       -1.889710   -2.057598   -3.226569
      6          1           0       -1.895411   -3.026819   -2.719135
      7          6           0       -1.917062   -0.959829   -2.129352
      8          6           0       -0.750441   -2.010182   -4.250393
      9          1           0        0.161371   -2.327812   -3.734410
     10          1           0       -0.580131   -0.977144   -4.574624
     11          8           0       -3.034147   -0.552169   -1.779322
     12          6           0       -0.948114   -2.890000   -5.512393
     13          1           0       -1.672764   -2.420278   -6.188797
     14          1           0       -0.002336   -2.961464   -6.052903
     15          6           0       -1.485923   -4.276809   -5.212562
     16          8           0       -2.602458   -4.483455   -4.752526
     17          8           0       -0.624110   -5.249819   -5.494274
     18          7           0       -0.744659   -0.604579   -1.626396
     19          1           0        0.146446   -0.859308   -2.059339
     20          6           0       -0.525600    0.348831   -0.537627
     21          1           0       -1.290357    1.128845   -0.584309
     22          6           0        0.881316    0.930360   -0.800660
     23          6           0       -0.524043   -0.342392    0.847143
     24          1           0       -0.146356    0.375300    1.587858
     25          1           0        0.216628   -1.152915    0.801128
     26          8           0        1.631129    0.369204   -1.616363
     27          6           0       -1.877434   -0.899048    1.324955
     28          1           0       -2.256252   -1.606429    0.572263
     29          6           0       -1.666151   -1.668420    2.637905
     30          1           0       -1.284362   -1.001014    3.419887
     31          1           0       -2.608012   -2.100048    2.995094
     32          1           0       -0.944366   -2.484959    2.515081
     33          6           0       -2.922511    0.210681    1.506317
     34          1           0       -2.554028    0.977591    2.199042
     35          1           0       -3.177269    0.689014    0.555270
     36          1           0       -3.850160   -0.198170    1.922736
     37          7           0        1.202931    1.982753   -0.034486
     38          1           0        0.589655    2.184130    0.783479
     39          6           0        2.556476    2.162971    0.504005
     40          1           0        3.120523    1.233435    0.365998
     41          6           0        2.363391    2.451272    2.060203
     42          6           0        3.336136    3.316881   -0.111494
     43          1           0        4.302811    3.329089    0.404377
     44          1           0        2.831062    4.254950    0.159659
     45          8           0        3.402981    2.765041    2.656548
     46          6           0        3.505935    3.241656   -1.630324
     47          1           0        3.819994    2.236858   -1.933598
     48          1           0        2.527158    3.377058   -2.115589
     49          6           0        4.547258    4.250184   -2.163537
     50          1           0        4.379788    4.517354   -3.212574
     51          1           0        5.550586    3.824947   -2.096270
     52          7           0        4.626552    5.510560   -1.385542
     53          1           0        5.311484    5.527461   -0.640320
     54          7           0        2.521236    6.273784   -1.992264
     55          1           0        1.855843    7.029979   -2.063715
     56          1           0        2.204857    5.345977   -2.238974
     57          7           0        3.875156    7.576884   -0.636823
     58          1           0        3.091067    8.102098   -0.274938
     59          1           0        4.775127    7.769760   -0.218999
     60          6           0        3.671572    6.434478   -1.321306
     61          8           0        1.164365    2.359217    2.454900
     62          1           0       -1.043637   -6.108860   -5.285229
 ---------------------------------------------------------------------

 SCF Done:  E(RB3LYP) =  -1447.42518225     A.U. after    3 cycles

 Alpha  occ. eigenvalues --  -19.33415 -19.28407 -19.24187 -19.19171 -19.10067
 Alpha  occ. eigenvalues --  -19.08903 -14.58066 -14.52123 -14.52064 -14.51809
 Alpha  occ. eigenvalues --  -14.47038 -14.39862 -10.48293 -10.46549 -10.41492
 Alpha  occ. eigenvalues --  -10.39515 -10.35339 -10.35113 -10.34776 -10.34588
 Alpha  occ. eigenvalues --  -10.31255 -10.28168 -10.27862 -10.25485 -10.25150
 Alpha  occ. eigenvalues --  -10.24646 -10.24622 -10.22162 -10.22152  -1.24671
 Alpha  occ. eigenvalues --   -1.16928  -1.16823  -1.15607  -1.12182  -1.10393
 Alpha  occ. eigenvalues --   -1.05867  -1.05098  -1.03691  -1.03037  -0.97432
 Alpha  occ. eigenvalues --   -0.95039  -0.94273  -0.89238  -0.88675  -0.86565
 Alpha  occ. eigenvalues --   -0.83213  -0.81743  -0.79712  -0.78850  -0.74910
 Alpha  occ. eigenvalues --   -0.74179  -0.73956  -0.73464  -0.73061  -0.72704
 Alpha  occ. eigenvalues --   -0.71055  -0.70565  -0.68472  -0.66887  -0.65621
 Alpha  occ. eigenvalues --   -0.64967  -0.64440  -0.64314  -0.62543  -0.62157
 Alpha  occ. eigenvalues --   -0.61285  -0.61018  -0.59719  -0.59205  -0.58268
 Alpha  occ. eigenvalues --   -0.57717  -0.57065  -0.56229  -0.55847  -0.54810
 Alpha  occ. eigenvalues --   -0.53771  -0.53364  -0.52671  -0.51978  -0.51298
 Alpha  occ. eigenvalues --   -0.50940  -0.50807  -0.49964  -0.49664  -0.49024
 Alpha  occ. eigenvalues --   -0.47997  -0.47360  -0.46262  -0.45957  -0.45534
 Alpha  occ. eigenvalues --   -0.44926  -0.44163  -0.43376  -0.43162  -0.42431
 Alpha  occ. eigenvalues --   -0.42184  -0.41717  -0.41542  -0.40937  -0.40080
 Alpha  occ. eigenvalues --   -0.39287  -0.39060  -0.38539  -0.38138  -0.37855
 Alpha  occ. eigenvalues --   -0.37439  -0.36013  -0.33048  -0.31966  -0.25154
 Alpha  occ. eigenvalues --   -0.24884  -0.23051
 Alpha virt. eigenvalues --   -0.13705  -0.12785  -0.10663  -0.08500  -0.08297
 Alpha virt. eigenvalues --   -0.04971  -0.04350  -0.04128  -0.03946  -0.03249
 Alpha virt. eigenvalues --   -0.03056  -0.01471  -0.01029  -0.00220   0.00291

 Mulliken charges:
               1
     1  N   -0.754772
     2  H    0.426441
     3  H    0.397713
     4  H    0.433448
     5  C   -0.125171
     6  H    0.237293
     7  C    0.659727
     8  C   -0.320451
     9  H    0.213706
    10  H    0.193735
    11  O   -0.546723
    12  C   -0.374861
    13  H    0.183874
    14  H    0.222413
    15  C    0.608695
    16  O   -0.489026
    17  O   -0.522355
    18  N   -0.608401
    19  H    0.365272
    20  C   -0.082529
    21  H    0.183144
    22  C    0.591868
    23  C   -0.281696
    24  H    0.209104
    25  H    0.136237
    26  O   -0.569634
    27  C   -0.067799
    28  H    0.105123
    29  C   -0.447634
    30  H    0.169290
    31  H    0.145094
    32  H    0.138092
    33  C   -0.460860
    34  H    0.161653
    35  H    0.149770
    36  H    0.146134
    37  N   -0.605014
    38  H    0.359475
    39  C   -0.091436
    40  H    0.156432
    41  C    0.592077
    42  C   -0.260089
    43  H    0.164673
    44  H    0.115046
    45  O   -0.574045
    46  C   -0.307647
    47  H    0.194114
    48  H    0.139040
    49  C   -0.178058
    50  H    0.185789
    51  H    0.197793
    52  N   -0.572932
    53  H    0.375128
    54  N   -0.748878
    55  H    0.380343
    56  H    0.396370
    57  N   -0.755167
    58  H    0.384620
    59  H    0.385390
    60  C    0.807375
    61  O   -0.606670
    62  H    0.440359
 Sum of Mulliken charges =   1.00000

 Dipole moment (field-independent basis, Debye):
    X=              0.8104    Y=              9.0455    Z=            -26.7235  Tot=             28.2245
 Quadrupole moment (field-independent basis, Debye-Ang):
   XX=           -109.8806   YY=             22.6667   ZZ=           -110.9782
   XY=             89.7673   XZ=              3.1823   YZ=             -0.0454

 Normal termination of Gaussian 16 at Wed Jun  1 02:21:40 2022.
