 Gaussian 16, Revision C.01,
 Gaussian 16:  ES64L-G16RevC.01  3-Jul-2019

 ----------------------------------------------------------------------
 # B3LYP/6-31G* empiricaldispersion=gd3 guess=read geom=check nosymm in
 tegral(ultrafinegrid)
 ----------------------------------------------------------------------

 ------------------------------------------------------
 Candidate Structure: Conf:966 Charge calc in gas phase
 ------------------------------------------------------
 Structure from the checkpoint file:  "conf-966.chk"
 Charge =  1 Multiplicity = 1

                          Input orientation:
 ---------------------------------------------------------------------
 Center     Atomic      Atomic             Coordinates (Angstroms)
 Number     Number       Type             X           Y           Z
 ---------------------------------------------------------------------
      1          7           0       -4.380321   -1.802092   -2.972703
      2          1           0       -4.576989   -1.237457   -2.108794
      3          1           0       -4.563533   -1.193446   -3.776538
      4          1           0       -4.939152   -2.661457   -3.066689
      5          6           0       -2.912710   -2.136551   -2.839488
      6          1           0       -2.887755   -3.055495   -2.245728
      7          6           0       -2.365204   -0.985273   -1.950623
      8          6           0       -2.240017   -2.361995   -4.196175
      9          1           0       -1.245696   -2.778908   -4.006400
     10          1           0       -2.086241   -1.401523   -4.702115
     11          8           0       -3.201261   -0.331952   -1.308046
     12          6           0       -3.005276   -3.313461   -5.147947
     13          1           0       -3.922822   -2.840899   -5.516788
     14          1           0       -2.373177   -3.528952   -6.011663
     15          6           0       -3.359789   -4.637489   -4.499269
     16          8           0       -2.736044   -5.660304   -4.568885
     17          8           0       -4.514200   -4.525921   -3.749175
     18          7           0       -1.049583   -0.841966   -1.924122
     19          1           0       -0.435219   -1.284600   -2.615567
     20          6           0       -0.314714    0.201392   -1.206584
     21          1           0       -0.940498    1.096336   -1.143962
     22          6           0        0.922387    0.461509   -2.103254
     23          6           0        0.128656   -0.256742    0.198734
     24          1           0        0.794593    0.512320    0.611394
     25          1           0        0.741351   -1.159397    0.072553
     26          8           0        1.178353   -0.322383   -3.029390
     27          6           0       -1.003519   -0.528174    1.206748
     28          1           0       -1.691649   -1.263484    0.764820
     29          6           0       -0.409754   -1.141687    2.483791
     30          1           0        0.289357   -0.444174    2.961676
     31          1           0       -1.197321   -1.371897    3.209743
     32          1           0        0.136080   -2.068511    2.270978
     33          6           0       -1.803992    0.740738    1.531898
     34          1           0       -1.145251    1.523388    1.929604
     35          1           0       -2.323808    1.132898    0.652685
     36          1           0       -2.564308    0.530687    2.292349
     37          7           0        1.655090    1.525806   -1.773176
     38          1           0        1.477391    2.065353   -0.921456
     39          6           0        3.006778    1.783513   -2.261162
     40          1           0        3.535113    0.832039   -2.376974
     41          6           0        3.710719    2.645222   -1.180927
     42          6           0        3.036324    2.516360   -3.618833
     43          1           0        2.588961    1.854379   -4.369159
     44          1           0        4.089733    2.653840   -3.882848
     45          8           0        4.926106    2.895346   -1.450640
     46          6           0        2.293911    3.863137   -3.658375
     47          1           0        2.158765    4.158307   -4.709288
     48          1           0        1.281873    3.731459   -3.254197
     49          6           0        2.915077    5.048859   -2.901636
     50          1           0        3.044738    4.829515   -1.843800
     51          1           0        2.228506    5.903707   -2.969836
     52          7           0        4.208239    5.474648   -3.462835
     53          1           0        4.217789    5.680330   -4.453780
     54          7           0        5.551907    5.360563   -1.561778
     55          1           0        6.327993    5.761515   -1.051726
     56          1           0        5.257785    4.333812   -1.317900
     57          7           0        6.190841    6.652858   -3.402394
     58          1           0        7.115601    6.792173   -3.023104
     59          1           0        5.873225    7.317995   -4.092187
     60          6           0        5.316140    5.819015   -2.779715
     61          8           0        3.013408    3.090654   -0.247186
     62          1           0       -4.697293   -5.407032   -3.366815
 ---------------------------------------------------------------------

 SCF Done:  E(RB3LYP) =  -1447.47354177     A.U. after    1 cycles

 Alpha  occ. eigenvalues --  -19.33602 -19.27232 -19.25620 -19.20201 -19.14869
 Alpha  occ. eigenvalues --  -19.14753 -14.59545 -14.48168 -14.47387 -14.46918
 Alpha  occ. eigenvalues --  -14.43505 -14.42636 -10.45390 -10.42740 -10.42487
 Alpha  occ. eigenvalues --  -10.40627 -10.36937 -10.35395 -10.34383 -10.32871
 Alpha  occ. eigenvalues --  -10.32637 -10.30516 -10.27868 -10.26908 -10.26510
 Alpha  occ. eigenvalues --  -10.26367 -10.24911 -10.23853 -10.23769  -1.23578
 Alpha  occ. eigenvalues --   -1.18261  -1.15056  -1.13530  -1.11878  -1.10919
 Alpha  occ. eigenvalues --   -1.08372  -1.04905  -1.00710  -1.00514  -0.98937
 Alpha  occ. eigenvalues --   -0.98002  -0.95584  -0.89908  -0.87793  -0.86756
 Alpha  occ. eigenvalues --   -0.83831  -0.80846  -0.79928  -0.75297  -0.75165
 Alpha  occ. eigenvalues --   -0.74723  -0.74393  -0.73678  -0.72367  -0.71536
 Alpha  occ. eigenvalues --   -0.69747  -0.68557  -0.67577  -0.65998  -0.65245
 Alpha  occ. eigenvalues --   -0.64788  -0.63358  -0.62981  -0.61674  -0.61148
 Alpha  occ. eigenvalues --   -0.60995  -0.59782  -0.59532  -0.58748  -0.57692
 Alpha  occ. eigenvalues --   -0.57502  -0.56071  -0.55394  -0.55297  -0.54604
 Alpha  occ. eigenvalues --   -0.54340  -0.53551  -0.52340  -0.52122  -0.51543
 Alpha  occ. eigenvalues --   -0.51246  -0.50782  -0.50495  -0.50187  -0.49617
 Alpha  occ. eigenvalues --   -0.48852  -0.48266  -0.47519  -0.46715  -0.45961
 Alpha  occ. eigenvalues --   -0.45649  -0.45482  -0.45259  -0.44837  -0.44114
 Alpha  occ. eigenvalues --   -0.43488  -0.41960  -0.41281  -0.40662  -0.40511
 Alpha  occ. eigenvalues --   -0.40115  -0.39772  -0.39638  -0.39389  -0.37857
 Alpha  occ. eigenvalues --   -0.37624  -0.34974  -0.34319  -0.33246  -0.30634
 Alpha  occ. eigenvalues --   -0.29562  -0.29038
 Alpha virt. eigenvalues --   -0.13078  -0.11664  -0.09573  -0.07647  -0.05980
 Alpha virt. eigenvalues --   -0.05688  -0.04066  -0.03025  -0.02491  -0.01877
 Alpha virt. eigenvalues --   -0.00749  -0.00566  -0.00259   0.00153   0.00950

 Mulliken charges:
               1
     1  N   -0.755576
     2  H    0.429810
     3  H    0.405858
     4  H    0.429789
     5  C   -0.125109
     6  H    0.233377
     7  C    0.658878
     8  C   -0.323087
     9  H    0.221685
    10  H    0.197324
    11  O   -0.546195
    12  C   -0.362512
    13  H    0.171356
    14  H    0.230398
    15  C    0.580988
    16  O   -0.395663
    17  O   -0.609084
    18  N   -0.606343
    19  H    0.375707
    20  C   -0.085525
    21  H    0.188155
    22  C    0.622917
    23  C   -0.262357
    24  H    0.171441
    25  H    0.149125
    26  O   -0.561671
    27  C   -0.070139
    28  H    0.113550
    29  C   -0.446740
    30  H    0.157369
    31  H    0.151786
    32  H    0.144218
    33  C   -0.459575
    34  H    0.149965
    35  H    0.157588
    36  H    0.151836
    37  N   -0.609534
    38  H    0.360633
    39  C   -0.044978
    40  H    0.175772
    41  C    0.601280
    42  C   -0.266080
    43  H    0.154553
    44  H    0.164686
    45  O   -0.625577
    46  C   -0.290718
    47  H    0.131950
    48  H    0.153958
    49  C   -0.163692
    50  H    0.229848
    51  H    0.160201
    52  N   -0.590041
    53  H    0.341106
    54  N   -0.755497
    55  H    0.342892
    56  H    0.446006
    57  N   -0.763106
    58  H    0.366671
    59  H    0.361249
    60  C    0.766920
    61  O   -0.571507
    62  H    0.439460
 Sum of Mulliken charges =   1.00000

 Dipole moment (field-independent basis, Debye):
    X=             -6.5745    Y=              4.8419    Z=            -19.0675  Tot=             20.7422
 Quadrupole moment (field-independent basis, Debye-Ang):
   XX=            -47.0590   YY=            -52.6194   ZZ=            -95.0056
   XY=            119.4661   XZ=             14.0261   YZ=            -34.5105

 Normal termination of Gaussian 16 at Wed Jun  1 02:21:18 2022.
