 Gaussian 16, Revision C.01,
 Gaussian 16:  ES64L-G16RevC.01  3-Jul-2019

 ----------------------------------------------------------------------
 # B3LYP/6-31G* empiricaldispersion=gd3 guess=read geom=check nosymm in
 tegral(ultrafinegrid)
 ----------------------------------------------------------------------

 -----------------------------------------------------
 Candidate Structure: Conf:34 Charge calc in gas phase
 -----------------------------------------------------
 Structure from the checkpoint file:  "conf-34.chk"
 Charge =  1 Multiplicity = 1

                          Input orientation:
 ---------------------------------------------------------------------
 Center     Atomic      Atomic             Coordinates (Angstroms)
 Number     Number       Type             X           Y           Z
 ---------------------------------------------------------------------
      1          7           0       -5.263820    2.410546    3.965270
      2          1           0       -5.584030    3.267645    3.505447
      3          1           0       -5.576561    1.582525    3.379154
      4          1           0       -5.647137    2.379631    4.913391
      5          6           0       -3.752350    2.244338    3.914724
      6          1           0       -3.277650    3.222868    3.908329
      7          6           0       -3.573695    1.489965    2.569479
      8          6           0       -3.329594    1.446158    5.174634
      9          1           0       -3.322448    2.153997    6.010763
     10          1           0       -4.094410    0.686456    5.382715
     11          8           0       -4.526612    0.772093    2.208455
     12          6           0       -1.975075    0.723888    5.081225
     13          1           0       -2.065889   -0.200055    4.503144
     14          1           0       -1.650214    0.429766    6.085745
     15          6           0       -0.905785    1.579348    4.416311
     16          8           0       -1.021828    2.795293    4.310214
     17          8           0        0.058111    0.857826    3.877379
     18          7           0       -2.436293    1.670784    1.917779
     19          1           0       -1.700364    2.284193    2.277347
     20          6           0       -1.998366    0.892564    0.757136
     21          1           0       -2.355597   -0.132051    0.877392
     22          6           0       -0.444151    0.873754    0.779703
     23          6           0       -2.585883    1.432680   -0.561521
     24          1           0       -3.664922    1.234303   -0.558507
     25          1           0       -2.147817    0.818403   -1.359002
     26          8           0        0.137832    1.789996    1.493047
     27          6           0       -2.365044    2.896870   -0.832437
     28          6           0       -1.336516    3.696978   -0.410782
     29          1           0       -0.501000    3.449839    0.234321
     30          6           0       -3.229006    3.728966   -1.648252
     31          6           0       -2.664562    5.032363   -1.680918
     32          6           0       -4.419043    3.483729   -2.360666
     33          1           0       -4.869872    2.495002   -2.356071
     34          7           0       -1.462491    4.977941   -0.972260
     35          1           0       -1.064121    5.792794   -0.521937
     36          6           0       -4.439181    5.819285   -3.062800
     37          1           0       -4.927570    6.617540   -3.613359
     38          6           0       -3.255052    6.086796   -2.380478
     39          1           0       -2.810676    7.078206   -2.391548
     40          6           0       -5.011677    4.531488   -3.057452
     41          1           0       -5.932933    4.358280   -3.605465
     42          7           0        0.059160   -0.063761    0.051547
     43          1           0        0.290400   -2.251376   -0.382563
     44          6           0        1.495064   -0.232783    0.036751
     45          1           0        2.014200    0.527332    0.640766
     46          6           0        2.015269   -0.177726   -1.400231
     47          6           0        1.807933   -1.636285    0.637419
     48          1           0        2.883250   -1.831855    0.522720
     49          8           0        1.372009   -0.553986   -2.372851
     50          6           0        1.439646   -1.711298    2.118795
     51          1           0        2.040035   -1.014971    2.715963
     52          1           0        1.614160   -2.728151    2.482936
     53          1           0        0.383828   -1.465584    2.267992
     54          8           0        1.142420   -2.637172   -0.125108
     55          7           0        3.286948    0.332764   -1.526842
     56          1           0        3.846657    0.484936   -0.695341
     57          6           0        4.038099    0.165564   -2.757601
     58          1           0        3.685189   -0.744100   -3.259752
     59          6           0        5.506614   -0.020647   -2.401433
     60          6           0        3.872378    1.348530   -3.748427
     61          1           0        4.464876    1.133974   -4.645163
     62          1           0        4.284981    2.257524   -3.289101
     63          8           0        5.971821    0.112302   -1.290873
     64          6           0        2.400096    1.563679   -4.100408
     65          1           0        1.978643    0.641615   -4.512381
     66          1           0        1.843123    1.756553   -3.179602
     67          6           0        2.138650    2.717338   -5.066824
     68          1           0        2.582863    3.656310   -4.718824
     69          1           0        2.554053    2.533945   -6.061374
     70          7           0        0.678577    2.906697   -5.250305
     71          1           0        0.249011    2.280000   -5.920244
     72          7           0        0.300245    4.218398   -3.370096
     73          1           0       -0.228714    4.447592   -2.525665
     74          1           0        1.161574    4.714974   -3.538934
     75          7           0       -1.385994    2.856480   -4.171926
     76          1           0       -1.625077    1.965699   -4.583906
     77          1           0       -2.038790    3.236790   -3.489460
     78          6           0       -0.131059    3.315066   -4.252146
     79          8           0        6.240668   -0.330854   -3.488443
     80          1           0        7.165367   -0.429533   -3.191410
     81          1           0        0.380968    1.331235    3.029803
 ---------------------------------------------------------------------

 SCF Done:  E(RB3LYP) =  -2054.00769699     A.U. after    1 cycles

 Alpha  occ. eigenvalues --  -19.27218 -19.23826 -19.23812 -19.21712 -19.20841
 Alpha  occ. eigenvalues --  -19.16669 -19.16224 -19.15819 -14.58348 -14.50283
 Alpha  occ. eigenvalues --  -14.50001 -14.49989 -14.48153 -14.45997 -14.41667
 Alpha  occ. eigenvalues --  -14.34019 -10.46606 -10.40533 -10.39649 -10.39220
 Alpha  occ. eigenvalues --  -10.37999 -10.34366 -10.33617 -10.32178 -10.32123
 Alpha  occ. eigenvalues --  -10.31227 -10.31100 -10.30611 -10.30141 -10.29221
 Alpha  occ. eigenvalues --  -10.28939 -10.28678 -10.28554 -10.28230 -10.28104
 Alpha  occ. eigenvalues --  -10.27917 -10.27666 -10.27586 -10.27401 -10.27306
 Alpha  occ. eigenvalues --  -10.25781 -10.20661  -1.18196  -1.16502  -1.16139
 Alpha  occ. eigenvalues --   -1.15093  -1.11735  -1.09434  -1.08672  -1.07722
 Alpha  occ. eigenvalues --   -1.07616  -1.05784  -1.04282  -1.04111  -1.03223
 Alpha  occ. eigenvalues --   -1.02125  -0.98402  -0.93850  -0.92765  -0.91873
 Alpha  occ. eigenvalues --   -0.89639  -0.89188  -0.85487  -0.84400  -0.83505
 Alpha  occ. eigenvalues --   -0.83118  -0.81104  -0.79739  -0.78872  -0.77021
 Alpha  occ. eigenvalues --   -0.76132  -0.75197  -0.73734  -0.72521  -0.71827
 Alpha  occ. eigenvalues --   -0.71605  -0.70846  -0.70300  -0.68882  -0.68572
 Alpha  occ. eigenvalues --   -0.68174  -0.67672  -0.65373  -0.64767  -0.64710
 Alpha  occ. eigenvalues --   -0.64379  -0.63887  -0.63436  -0.63109  -0.62537
 Alpha  occ. eigenvalues --   -0.61068  -0.59571  -0.59346  -0.58182  -0.57609
 Alpha  occ. eigenvalues --   -0.57180  -0.56925  -0.56440  -0.56219  -0.55485
 Alpha  occ. eigenvalues --   -0.55423  -0.55129  -0.54256  -0.53959  -0.53746
 Alpha  occ. eigenvalues --   -0.53506  -0.53171  -0.53033  -0.52858  -0.52179
 Alpha  occ. eigenvalues --   -0.51568  -0.51425  -0.50651  -0.50287  -0.50164
 Alpha  occ. eigenvalues --   -0.49365  -0.49052  -0.48961  -0.48623  -0.48236
 Alpha  occ. eigenvalues --   -0.47364  -0.47168  -0.46939  -0.46663  -0.45984
 Alpha  occ. eigenvalues --   -0.45821  -0.45754  -0.45258  -0.44552  -0.44159
 Alpha  occ. eigenvalues --   -0.43972  -0.43392  -0.43215  -0.42890  -0.42510
 Alpha  occ. eigenvalues --   -0.41908  -0.41344  -0.40343  -0.40144  -0.39474
 Alpha  occ. eigenvalues --   -0.39420  -0.39087  -0.38482  -0.37609  -0.37323
 Alpha  occ. eigenvalues --   -0.36142  -0.35315  -0.34930  -0.34455  -0.32755
 Alpha  occ. eigenvalues --   -0.32005  -0.31195  -0.30579  -0.30378  -0.29612
 Alpha  occ. eigenvalues --   -0.28860  -0.26988
 Alpha virt. eigenvalues --   -0.11414  -0.11164  -0.10287  -0.08975  -0.08263
 Alpha virt. eigenvalues --   -0.07110  -0.06562  -0.06329  -0.04327  -0.04111
 Alpha virt. eigenvalues --   -0.03978  -0.03072  -0.02004  -0.01356  -0.00896

 Mulliken charges:
               1
     1  N   -0.754894
     2  H    0.410395
     3  H    0.424238
     4  H    0.408350
     5  C   -0.110665
     6  H    0.235218
     7  C    0.627561
     8  C   -0.283774
     9  H    0.185725
    10  H    0.163585
    11  O   -0.559013
    12  C   -0.366493
    13  H    0.200523
    14  H    0.206244
    15  C    0.593625
    16  O   -0.505526
    17  O   -0.580632
    18  N   -0.601619
    19  H    0.387794
    20  C   -0.036930
    21  H    0.185554
    22  C    0.526776
    23  C   -0.348702
    24  H    0.161062
    25  H    0.185335
    26  O   -0.693645
    27  C    0.093856
    28  C   -0.087000
    29  H    0.227690
    30  C   -0.000154
    31  C    0.263127
    32  C   -0.225592
    33  H    0.148957
    34  N   -0.710977
    35  H    0.349234
    36  C   -0.150576
    37  H    0.153326
    38  C   -0.173044
    39  H    0.145673
    40  C   -0.133791
    41  H    0.150192
    42  N   -0.500699
    43  H    0.404429
    44  C   -0.131225
    45  H    0.133053
    46  C    0.637364
    47  C    0.167318
    48  H    0.123637
    49  O   -0.535289
    50  C   -0.450517
    51  H    0.135691
    52  H    0.157007
    53  H    0.143794
    54  O   -0.641518
    55  N   -0.625936
    56  H    0.351194
    57  C   -0.030980
    58  H    0.203476
    59  C    0.579137
    60  C   -0.272014
    61  H    0.168568
    62  H    0.141574
    63  O   -0.457808
    64  C   -0.263015
    65  H    0.176443
    66  H    0.172954
    67  C   -0.183857
    68  H    0.161375
    69  H    0.191034
    70  N   -0.580271
    71  H    0.358154
    72  N   -0.774732
    73  H    0.431843
    74  H    0.374144
    75  N   -0.773301
    76  H    0.375216
    77  H    0.409081
    78  C    0.789894
    79  O   -0.563124
    80  H    0.425425
    81  H    0.461469
 Sum of Mulliken charges =   1.00000

 Dipole moment (field-independent basis, Debye):
    X=            -12.9516    Y=             20.6705    Z=             -3.6950  Tot=             24.6712
 Quadrupole moment (field-independent basis, Debye-Ang):
   XX=           -128.3648   YY=           -174.5578   ZZ=           -114.2738
   XY=            -41.8704   XZ=            -78.7274   YZ=            -22.7015

 Normal termination of Gaussian 16 at Sat May 14 00:57:59 2022.
