 Gaussian 16, Revision C.01,
 Gaussian 16:  ES64L-G16RevC.01  3-Jul-2019

 ----------------------------------------------------------------------
 # B3LYP/6-31G* empiricaldispersion=gd3 guess=read geom=check nosymm in
 tegral(ultrafinegrid)
 ----------------------------------------------------------------------

 -----------------------------------------------------
 Candidate Structure: Conf:95 Charge calc in gas phase
 -----------------------------------------------------
 Structure from the checkpoint file:  "conf-95.chk"
 Charge =  1 Multiplicity = 1

                          Input orientation:
 ---------------------------------------------------------------------
 Center     Atomic      Atomic             Coordinates (Angstroms)
 Number     Number       Type             X           Y           Z
 ---------------------------------------------------------------------
      1          7           0       -4.103438    0.464898    4.648819
      2          1           0       -5.046237    0.222482    4.339066
      3          1           0       -3.547571   -0.394366    4.658852
      4          1           0       -4.145930    0.846309    5.591290
      5          6           0       -3.437182    1.398511    3.715623
      6          1           0       -4.130479    2.195435    3.431856
      7          6           0       -3.019917    0.597729    2.492160
      8          6           0       -2.190705    2.000938    4.370314
      9          1           0       -2.474012    2.358925    5.363552
     10          1           0       -1.470081    1.193704    4.512797
     11          8           0       -2.608935   -0.547527    2.604216
     12          6           0       -1.540647    3.132492    3.584274
     13          1           0       -2.193883    4.004128    3.513660
     14          1           0       -1.309104    2.815335    2.564018
     15          6           0       -0.228266    3.544257    4.191463
     16          8           0        0.529404    2.800923    4.763178
     17          8           0        0.050133    4.847860    3.978862
     18          7           0       -3.108177    1.234140    1.294287
     19          1           0       -3.221565    2.232292    1.306609
     20          6           0       -2.406772    0.700438    0.134578
     21          1           0       -2.647710   -0.360431    0.082420
     22          6           0       -0.910423    0.914342    0.326313
     23          6           0       -2.865733    1.420999   -1.136731
     24          1           0       -2.191994    1.168249   -1.958983
     25          1           0       -2.778716    2.493985   -0.968930
     26          8           0       -0.480616    2.039208    0.578849
     27          6           0       -4.275612    1.057326   -1.499647
     28          6           0       -5.394437    1.825115   -1.346481
     29          1           0       -5.490616    2.835854   -0.979588
     30          6           0       -4.717716   -0.206136   -2.031265
     31          6           0       -6.114571   -0.143756   -2.157495
     32          6           0       -4.038787   -1.375796   -2.393323
     33          1           0       -2.956368   -1.438639   -2.308635
     34          7           0       -6.506824    1.106295   -1.736308
     35          1           0       -7.449095    1.445219   -1.718216
     36          6           0       -6.177706   -2.368203   -2.983527
     37          1           0       -6.726254   -3.224725   -3.356697
     38          6           0       -6.870468   -1.220239   -2.630282
     39          1           0       -7.949270   -1.154872   -2.716445
     40          6           0       -4.776862   -2.444787   -2.871269
     41          1           0       -4.272278   -3.358988   -3.159773
     42          7           0       -0.136116   -0.186830    0.227354
     43          1           0       -0.548707   -1.073965   -0.009968
     44          6           0        1.300087   -0.150762    0.400224
     45          1           0        1.583862    0.893614    0.527609
     46          6           0        1.905768   -0.790102   -0.833065
     47          6           0        1.730712   -0.953641    1.705588
     48          1           0        1.330502   -1.988620    1.473789
     49          8           0        1.661701   -1.956822   -1.106777
     50          6           0        3.289045   -1.109731    1.702269
     51          1           0        3.619471   -1.664047    0.823553
     52          1           0        3.579665   -1.644848    2.610916
     53          1           0        3.767495   -0.122713    1.717627
     54          8           0        1.271991   -0.465887    2.788447
     55          7           0        2.680424    0.007764   -1.608642
     56          1           0        2.986456    0.895561   -1.251867
     57          6           0        3.381803   -0.541081   -2.754728
     58          1           0        2.709611   -1.242101   -3.252854
     59          6           0        4.604968   -1.332162   -2.340998
     60          6           0        3.765145    0.587710   -3.716083
     61          1           0        4.436772    1.280639   -3.206067
     62          1           0        2.847422    1.133827   -3.943826
     63          8           0        4.997882   -2.332577   -2.889480
     64          6           0        4.392000    0.093794   -5.011880
     65          1           0        5.326119   -0.430123   -4.806134
     66          1           0        3.720471   -0.627990   -5.483409
     67          6           0        4.649563    1.231365   -5.983609
     68          1           0        3.706648    1.744642   -6.191766
     69          1           0        5.331563    1.963859   -5.534269
     70          7           0        5.203660    0.698992   -7.242762
     71          1           0        5.819828   -0.092536   -7.129948
     72          7           0        5.208827    2.808596   -8.256570
     73          1           0        5.182869    3.319060   -9.124052
     74          1           0        4.599885    3.141478   -7.528795
     75          7           0        6.210928    0.965435   -9.309837
     76          1           0        6.119967   -0.031271   -9.450380
     77          1           0        6.254111    1.504065  -10.160811
     78          6           0        5.521295    1.499903   -8.273659
     79          8           0        5.267069   -0.767461   -1.304831
     80          1           0        6.038939   -1.322930   -1.151628
     81          1           0        0.916031    5.005674    4.380892
 ---------------------------------------------------------------------

 SCF Done:  E(RB3LYP) =  -2053.86548708     A.U. after    3 cycles

 Alpha  occ. eigenvalues --  -19.24899 -19.24863 -19.22235 -19.19421 -19.18909
 Alpha  occ. eigenvalues --  -19.14901 -19.13899 -19.00476 -14.60503 -14.52087
 Alpha  occ. eigenvalues --  -14.51422 -14.51374 -14.45486 -14.43555 -14.40174
 Alpha  occ. eigenvalues --  -14.39298 -10.46567 -10.39291 -10.38123 -10.37571
 Alpha  occ. eigenvalues --  -10.37267 -10.35530 -10.32064 -10.30613 -10.30284
 Alpha  occ. eigenvalues --  -10.29861 -10.29531 -10.29507 -10.28327 -10.27696
 Alpha  occ. eigenvalues --  -10.27588 -10.27145 -10.25942 -10.24125 -10.23888
 Alpha  occ. eigenvalues --  -10.23756 -10.23530 -10.23475 -10.23051 -10.21859
 Alpha  occ. eigenvalues --  -10.19160 -10.14531  -1.16823  -1.16345  -1.16286
 Alpha  occ. eigenvalues --   -1.16088  -1.13420  -1.07325  -1.07126  -1.06843
 Alpha  occ. eigenvalues --   -1.06477  -1.05791  -1.05116  -1.03831  -1.01913
 Alpha  occ. eigenvalues --   -0.97462  -0.95557  -0.92405  -0.91080  -0.90940
 Alpha  occ. eigenvalues --   -0.89423  -0.87118  -0.84623  -0.84486  -0.82031
 Alpha  occ. eigenvalues --   -0.79180  -0.78956  -0.77855  -0.77201  -0.76698
 Alpha  occ. eigenvalues --   -0.74976  -0.74006  -0.73923  -0.72131  -0.72066
 Alpha  occ. eigenvalues --   -0.71127  -0.69749  -0.69155  -0.67863  -0.67743
 Alpha  occ. eigenvalues --   -0.66437  -0.65765  -0.65105  -0.64981  -0.64441
 Alpha  occ. eigenvalues --   -0.64215  -0.63329  -0.61917  -0.61576  -0.61023
 Alpha  occ. eigenvalues --   -0.60920  -0.59595  -0.59408  -0.58084  -0.57229
 Alpha  occ. eigenvalues --   -0.56985  -0.56713  -0.55341  -0.55019  -0.54114
 Alpha  occ. eigenvalues --   -0.53970  -0.53452  -0.52974  -0.52952  -0.52305
 Alpha  occ. eigenvalues --   -0.52171  -0.51237  -0.50739  -0.50374  -0.49485
 Alpha  occ. eigenvalues --   -0.49082  -0.48964  -0.48870  -0.48501  -0.48175
 Alpha  occ. eigenvalues --   -0.47967  -0.47397  -0.46716  -0.46601  -0.46351
 Alpha  occ. eigenvalues --   -0.45745  -0.45557  -0.45276  -0.44691  -0.44239
 Alpha  occ. eigenvalues --   -0.44132  -0.43870  -0.43490  -0.43333  -0.42980
 Alpha  occ. eigenvalues --   -0.42675  -0.42098  -0.41001  -0.40795  -0.40237
 Alpha  occ. eigenvalues --   -0.38975  -0.38785  -0.38694  -0.38333  -0.37142
 Alpha  occ. eigenvalues --   -0.36878  -0.36647  -0.35832  -0.34907  -0.34025
 Alpha  occ. eigenvalues --   -0.33026  -0.32864  -0.32747  -0.31017  -0.29540
 Alpha  occ. eigenvalues --   -0.29240  -0.28644  -0.27704  -0.26960  -0.25898
 Alpha  occ. eigenvalues --   -0.15596  -0.14331
 Alpha virt. eigenvalues --   -0.13396  -0.10626  -0.08576  -0.08300  -0.06404
 Alpha virt. eigenvalues --   -0.05232  -0.05107  -0.04496  -0.04032  -0.03317
 Alpha virt. eigenvalues --   -0.03160  -0.02879  -0.02564  -0.01851  -0.00643

 Mulliken charges:
               1
     1  N   -0.716506
     2  H    0.424496
     3  H    0.432965
     4  H    0.418546
     5  C   -0.147406
     6  H    0.193586
     7  C    0.641820
     8  C   -0.295023
     9  H    0.151226
    10  H    0.255641
    11  O   -0.484977
    12  C   -0.401899
    13  H    0.161422
    14  H    0.257038
    15  C    0.593755
    16  O   -0.424568
    17  O   -0.569190
    18  N   -0.579889
    19  H    0.333220
    20  C   -0.066177
    21  H    0.185280
    22  C    0.642672
    23  C   -0.387199
    24  H    0.172178
    25  H    0.157008
    26  O   -0.568477
    27  C    0.081622
    28  C   -0.014951
    29  H    0.139590
    30  C    0.084376
    31  C    0.314813
    32  C   -0.212717
    33  H    0.128439
    34  N   -0.693685
    35  H    0.328454
    36  C   -0.150355
    37  H    0.134403
    38  C   -0.161735
    39  H    0.129337
    40  C   -0.142212
    41  H    0.133376
    42  N   -0.567304
    43  H    0.340873
    44  C   -0.104964
    45  H    0.143082
    46  C    0.626831
    47  C    0.275541
    48  H    0.022649
    49  O   -0.548409
    50  C   -0.475739
    51  H    0.102872
    52  H    0.138820
    53  H    0.101122
    54  O   -0.641615
    55  N   -0.615751
    56  H    0.332907
    57  C   -0.020555
    58  H    0.197140
    59  C    0.600120
    60  C   -0.309546
    61  H    0.159886
    62  H    0.163166
    63  O   -0.467058
    64  C   -0.307689
    65  H    0.177088
    66  H    0.179457
    67  C   -0.156899
    68  H    0.174021
    69  H    0.182999
    70  N   -0.591795
    71  H    0.365349
    72  N   -0.735572
    73  H    0.371854
    74  H    0.384958
    75  N   -0.735286
    76  H    0.375544
    77  H    0.367080
    78  C    0.736620
    79  O   -0.558705
    80  H    0.418956
    81  H    0.419655
 Sum of Mulliken charges =   1.00000

 Dipole moment (field-independent basis, Debye):
    X=             -1.8728    Y=             15.0638    Z=            -21.5101  Tot=             26.3270
 Quadrupole moment (field-independent basis, Debye-Ang):
   XX=            -33.9013   YY=           -221.2930   ZZ=             82.0480
   XY=             18.7939   XZ=           -238.3404   YZ=            -34.3302

 Normal termination of Gaussian 16 at Sat May 14 00:58:52 2022.
