 Gaussian 16, Revision C.01,
 Gaussian 16:  ES64L-G16RevC.01  3-Jul-2019

 ----------------------------------------------------------------------
 # B3LYP/6-31G* empiricaldispersion=gd3 guess=read geom=check nosymm in
 tegral(ultrafinegrid)
 ----------------------------------------------------------------------

 ------------------------------------------------------
 Candidate Structure: Conf:472 Charge calc in gas phase
 ------------------------------------------------------
 Structure from the checkpoint file:  "conf-472.chk"
 Charge =  1 Multiplicity = 1

                          Input orientation:
 ---------------------------------------------------------------------
 Center     Atomic      Atomic             Coordinates (Angstroms)
 Number     Number       Type             X           Y           Z
 ---------------------------------------------------------------------
      1          7           0       -3.407194    1.481766    5.373992
      2          1           0       -4.246102    1.006772    5.716353
      3          1           0       -2.600904    0.775123    5.328482
      4          1           0       -3.192556    2.264964    5.995600
      5          6           0       -3.501621    1.876339    3.909886
      6          1           0       -4.547344    1.925456    3.613688
      7          6           0       -2.740847    0.714918    3.221193
      8          6           0       -2.804273    3.242251    3.728156
      9          1           0       -3.400658    3.995221    4.260248
     10          1           0       -1.819840    3.185306    4.209933
     11          8           0       -1.989530    0.030988    3.937333
     12          6           0       -2.560828    3.690107    2.278295
     13          1           0       -1.830890    3.005063    1.814636
     14          1           0       -2.102593    4.682876    2.275794
     15          6           0       -3.784756    3.693903    1.399899
     16          8           0       -4.731956    2.929280    1.527111
     17          8           0       -3.687655    4.566736    0.392814
     18          7           0       -2.941675    0.554948    1.921283
     19          1           0       -3.630532    1.144851    1.463828
     20          6           0       -2.021232   -0.220346    1.098251
     21          1           0       -2.071330   -1.269253    1.409442
     22          6           0       -0.583696    0.335760    1.275739
     23          6           0       -2.357508   -0.074354   -0.417006
     24          1           0       -1.888667   -0.925352   -0.920593
     25          1           0       -1.823232    0.806120   -0.788934
     26          8           0       -0.398159    1.477574    1.698646
     27          6           0       -3.814940    0.058752   -0.747791
     28          6           0       -4.833329   -0.834523   -0.511876
     29          1           0       -4.795639   -1.822803   -0.074104
     30          6           0       -4.428204    1.213861   -1.355609
     31          6           0       -5.824868    0.957079   -1.451045
     32          6           0       -3.929765    2.438045   -1.831397
     33          1           0       -2.867272    2.660670   -1.771900
     34          7           0       -6.038004   -0.299270   -0.928372
     35          1           0       -6.928825   -0.769958   -0.885379
     36          6           0       -6.204701    3.097009   -2.431312
     37          1           0       -6.874279    3.840979   -2.852768
     38          6           0       -6.723344    1.888148   -1.981301
     39          1           0       -7.787294    1.676651   -2.039706
     40          6           0       -4.819755    3.369309   -2.361528
     41          1           0       -4.444688    4.314400   -2.747028
     42          7           0        0.359955   -0.505128    0.809052
     43          1           0        0.022333   -1.405612    0.451948
     44          6           0        1.596310   -0.065435    0.279223
     45          1           0        2.508220   -0.372733    0.778722
     46          6           0        1.595259    0.903994   -0.710061
     47          6           0        1.218253   -1.911300   -1.687747
     48          1           0        1.243351   -1.077124   -2.412581
     49          8           0        0.536098    1.303252   -1.325583
     50          6           0        2.531420   -2.607402   -1.427176
     51          1           0        3.365423   -1.902546   -1.469965
     52          1           0        2.682775   -3.373110   -2.203176
     53          1           0        2.506485   -3.111496   -0.457228
     54          8           0        0.143326   -2.335571   -1.276860
     55          7           0        2.827201    1.512417   -1.039355
     56          1           0        3.627744    1.112956   -0.563798
     57          6           0        3.084960    1.932761   -2.399992
     58          1           0        2.136380    1.897998   -2.934086
     59          6           0        4.004325    1.025651   -3.214751
     60          6           0        3.630863    3.379178   -2.487986
     61          1           0        3.647619    3.667121   -3.545306
     62          1           0        4.672614    3.399884   -2.143679
     63          8           0        4.137658    1.115287   -4.414741
     64          6           0        2.833026    4.387303   -1.649377
     65          1           0        3.012599    4.197738   -0.586338
     66          1           0        3.214696    5.395759   -1.861938
     67          6           0        1.310323    4.358038   -1.835681
     68          1           0        0.894872    3.434792   -1.429103
     69          1           0        0.856123    5.195965   -1.293560
     70          7           0        0.916967    4.468088   -3.253225
     71          1           0        1.326037    5.236239   -3.769955
     72          7           0       -0.329292    2.500649   -3.430679
     73          1           0       -1.036453    1.989348   -3.940691
     74          1           0        0.098487    2.015386   -2.567133
     75          7           0       -0.306992    4.038408   -5.171647
     76          1           0       -0.068202    4.947258   -5.539703
     77          1           0       -0.641452    3.354633   -5.834582
     78          6           0        0.101695    3.648201   -3.935133
     79          8           0        4.689373    0.133628   -2.458021
     80          1           0        5.264436   -0.368175   -3.067022
     81          1           0       -4.410924    4.373644   -0.243779
 ---------------------------------------------------------------------

 SCF Done:  E(RB3LYP) =  -2053.99570975     A.U. after    1 cycles

 Alpha  occ. eigenvalues --  -19.28336 -19.27079 -19.23707 -19.23447 -19.20784
 Alpha  occ. eigenvalues --  -19.18217 -19.16810 -19.15447 -14.57529 -14.48608
 Alpha  occ. eigenvalues --  -14.48412 -14.45942 -14.45658 -14.45420 -14.40054
 Alpha  occ. eigenvalues --  -14.39613 -10.44203 -10.41682 -10.40169 -10.38851
 Alpha  occ. eigenvalues --  -10.37726 -10.33703 -10.32211 -10.31687 -10.31296
 Alpha  occ. eigenvalues --  -10.31023 -10.30765 -10.30101 -10.29544 -10.29441
 Alpha  occ. eigenvalues --  -10.29208 -10.26887 -10.26566 -10.26544 -10.26500
 Alpha  occ. eigenvalues --  -10.26244 -10.26153 -10.26041 -10.25819 -10.25637
 Alpha  occ. eigenvalues --  -10.23039 -10.22164  -1.19696  -1.17582  -1.16309
 Alpha  occ. eigenvalues --   -1.12448  -1.11180  -1.10686  -1.08538  -1.08439
 Alpha  occ. eigenvalues --   -1.07625  -1.05620  -1.05488  -1.02889  -1.02107
 Alpha  occ. eigenvalues --   -0.99922  -0.96779  -0.96352  -0.92092  -0.91577
 Alpha  occ. eigenvalues --   -0.87984  -0.87577  -0.85131  -0.83103  -0.82404
 Alpha  occ. eigenvalues --   -0.81318  -0.79450  -0.78626  -0.77717  -0.77247
 Alpha  occ. eigenvalues --   -0.75031  -0.73885  -0.72810  -0.71401  -0.71219
 Alpha  occ. eigenvalues --   -0.70458  -0.69937  -0.69367  -0.69195  -0.67347
 Alpha  occ. eigenvalues --   -0.67226  -0.66637  -0.65262  -0.64662  -0.63778
 Alpha  occ. eigenvalues --   -0.62078  -0.61918  -0.61591  -0.61339  -0.60979
 Alpha  occ. eigenvalues --   -0.60709  -0.60147  -0.59143  -0.58640  -0.57802
 Alpha  occ. eigenvalues --   -0.56939  -0.56561  -0.56426  -0.56106  -0.55639
 Alpha  occ. eigenvalues --   -0.55527  -0.54876  -0.54735  -0.53938  -0.53108
 Alpha  occ. eigenvalues --   -0.52733  -0.52202  -0.51526  -0.51399  -0.51140
 Alpha  occ. eigenvalues --   -0.50956  -0.50765  -0.50502  -0.50060  -0.49640
 Alpha  occ. eigenvalues --   -0.49234  -0.48542  -0.48182  -0.48117  -0.47763
 Alpha  occ. eigenvalues --   -0.47382  -0.47046  -0.46989  -0.46853  -0.46558
 Alpha  occ. eigenvalues --   -0.46287  -0.45894  -0.44652  -0.44476  -0.44225
 Alpha  occ. eigenvalues --   -0.43611  -0.43204  -0.42896  -0.42263  -0.42141
 Alpha  occ. eigenvalues --   -0.41731  -0.41211  -0.40992  -0.40638  -0.40046
 Alpha  occ. eigenvalues --   -0.39506  -0.38726  -0.38419  -0.38236  -0.37063
 Alpha  occ. eigenvalues --   -0.36507  -0.36196  -0.35450  -0.34963  -0.31598
 Alpha  occ. eigenvalues --   -0.30848  -0.30505  -0.30251  -0.30139  -0.29222
 Alpha  occ. eigenvalues --   -0.27740  -0.22741
 Alpha virt. eigenvalues --   -0.09498  -0.09135  -0.08945  -0.08171  -0.08162
 Alpha virt. eigenvalues --   -0.06102  -0.05861  -0.05761  -0.05484  -0.04087
 Alpha virt. eigenvalues --   -0.03422  -0.01464  -0.01033  -0.00835  -0.00579

 Mulliken charges:
               1
     1  N   -0.759928
     2  H    0.409890
     3  H    0.430074
     4  H    0.405996
     5  C   -0.118630
     6  H    0.233426
     7  C    0.656871
     8  C   -0.292700
     9  H    0.170350
    10  H    0.186020
    11  O   -0.549195
    12  C   -0.404023
    13  H    0.270683
    14  H    0.190526
    15  C    0.603945
    16  O   -0.495880
    17  O   -0.561621
    18  N   -0.616616
    19  H    0.390031
    20  C   -0.055505
    21  H    0.175602
    22  C    0.647238
    23  C   -0.429298
    24  H    0.212457
    25  H    0.194869
    26  O   -0.548500
    27  C    0.038232
    28  C    0.008097
    29  H    0.165973
    30  C    0.087187
    31  C    0.327208
    32  C   -0.243973
    33  H    0.144625
    34  N   -0.688115
    35  H    0.339024
    36  C   -0.146228
    37  H    0.141287
    38  C   -0.154556
    39  H    0.141388
    40  C   -0.203765
    41  H    0.130754
    42  N   -0.602966
    43  H    0.357346
    44  C   -0.195437
    45  H    0.112368
    46  C    0.637271
    47  C    0.256956
    48  H    0.104208
    49  O   -0.691421
    50  C   -0.505564
    51  H    0.162844
    52  H    0.165980
    53  H    0.173150
    54  O   -0.452413
    55  N   -0.624831
    56  H    0.328345
    57  C   -0.060840
    58  H    0.165473
    59  C    0.583723
    60  C   -0.268672
    61  H    0.149992
    62  H    0.156568
    63  O   -0.461465
    64  C   -0.277568
    65  H    0.182513
    66  H    0.140199
    67  C   -0.185034
    68  H    0.232552
    69  H    0.168908
    70  N   -0.602388
    71  H    0.344006
    72  N   -0.800286
    73  H    0.352545
    74  H    0.472543
    75  N   -0.773819
    76  H    0.365105
    77  H    0.371340
    78  C    0.803727
    79  O   -0.568142
    80  H    0.421211
    81  H    0.428751
 Sum of Mulliken charges =   1.00000

 Dipole moment (field-independent basis, Debye):
    X=            -12.2212    Y=             14.7680    Z=              2.2467  Tot=             19.3003
 Quadrupole moment (field-independent basis, Debye-Ang):
   XX=           -145.6687   YY=           -171.2610   ZZ=           -109.2977
   XY=            -12.5960   XZ=            -51.3618   YZ=            -19.5982

 Normal termination of Gaussian 16 at Sat May 14 00:58:07 2022.
