 Gaussian 16, Revision C.01,
 Gaussian 16:  ES64L-G16RevC.01  3-Jul-2019

 ----------------------------------------------------------------------
 # B3LYP/6-31G* empiricaldispersion=gd3 guess=read geom=check nosymm in
 tegral(ultrafinegrid)
 ----------------------------------------------------------------------

 ------------------------------------------------------
 Candidate Structure: Conf:635 Charge calc in gas phase
 ------------------------------------------------------
 Structure from the checkpoint file:  "conf-635.chk"
 Charge =  1 Multiplicity = 1

                          Input orientation:
 ---------------------------------------------------------------------
 Center     Atomic      Atomic             Coordinates (Angstroms)
 Number     Number       Type             X           Y           Z
 ---------------------------------------------------------------------
      1          7           0       -3.123791   -0.264496    4.878253
      2          1           0       -4.059501   -0.666436    4.989020
      3          1           0       -2.515751   -0.963136    4.352630
      4          1           0       -2.741461   -0.058090    5.805203
      5          6           0       -3.098364    0.922937    3.930954
      6          1           0       -4.078657    1.397550    3.921548
      7          6           0       -2.742206    0.252646    2.581293
      8          6           0       -1.996662    1.892434    4.409325
      9          1           0       -2.285881    2.273617    5.397966
     10          1           0       -1.068270    1.319595    4.527518
     11          8           0       -2.152098   -0.837977    2.634420
     12          6           0       -1.678869    3.073151    3.469510
     13          1           0       -1.249142    2.686121    2.533006
     14          1           0       -0.925998    3.704761    3.945570
     15          6           0       -2.887130    3.901608    3.106448
     16          8           0       -3.919324    3.440178    2.633686
     17          8           0       -2.717784    5.207136    3.326703
     18          7           0       -3.068005    0.912451    1.475715
     19          1           0       -3.495273    1.831634    1.591264
     20          6           0       -2.464712    0.564478    0.188000
     21          1           0       -2.769367   -0.450943   -0.081432
     22          6           0       -0.931056    0.645260    0.324487
     23          6           0       -2.941601    1.566551   -0.894281
     24          1           0       -2.675783    2.578367   -0.562171
     25          1           0       -4.037354    1.513551   -0.949294
     26          8           0       -0.409388    1.517699    1.028871
     27          6           0       -2.302370    1.265225   -2.212174
     28          6           0       -1.233684    1.924615   -2.773904
     29          1           0       -0.733904    2.824667   -2.440859
     30          6           0       -2.540466    0.101356   -3.027489
     31          6           0       -1.575482    0.129137   -4.071288
     32          6           0       -3.446226   -0.973239   -2.963639
     33          1           0       -4.205329   -1.013961   -2.185338
     34          7           0       -0.814769    1.266725   -3.907252
     35          1           0        0.072442    1.420044   -4.372746
     36          6           0       -2.390721   -1.933377   -4.941104
     37          1           0       -2.350440   -2.737153   -5.670987
     38          6           0       -1.488044   -0.881628   -5.032266
     39          1           0       -0.731413   -0.844520   -5.810401
     40          6           0       -3.363037   -1.978659   -3.918560
     41          1           0       -4.056953   -2.813807   -3.882658
     42          7           0       -0.244366   -0.249352   -0.398788
     43          1           0       -0.722499   -0.881287   -1.034226
     44          6           0        1.192528   -0.178048   -0.579652
     45          1           0        1.514738    0.838071   -0.328549
     46          6           0        1.482359   -0.518278   -2.044128
     47          6           0        1.944406   -1.185315    0.343719
     48          1           0        3.019541   -1.074288    0.115804
     49          8           0        0.722924   -1.222773   -2.697602
     50          6           0        1.705153   -0.871559    1.822582
     51          1           0        1.995715    0.154023    2.076686
     52          1           0        2.284318   -1.571563    2.433535
     53          1           0        0.644764   -1.004937    2.058194
     54          8           0        1.507913   -2.492350    0.041551
     55          7           0        2.677226   -0.064933   -2.529518
     56          1           0        3.238934    0.544791   -1.952718
     57          6           0        3.284159   -0.615977   -3.737201
     58          1           0        4.340605   -0.321709   -3.725001
     59          6           0        2.685663    0.005507   -4.999376
     60          6           0        3.200519   -2.164034   -3.741894
     61          1           0        2.247347   -2.473784   -4.174413
     62          1           0        3.157210   -2.427731   -2.687240
     63          8           0        1.830858    0.862358   -5.052820
     64          6           0        4.353083   -2.935594   -4.387186
     65          1           0        4.404861   -2.732832   -5.463232
     66          1           0        5.313933   -2.618076   -3.955870
     67          6           0        4.187096   -4.455915   -4.170124
     68          1           0        3.242294   -4.793902   -4.611265
     69          1           0        4.974348   -4.996927   -4.704142
     70          7           0        4.253883   -4.898880   -2.767871
     71          1           0        5.197236   -4.871503   -2.398749
     72          7           0        1.998496   -4.640729   -2.165284
     73          1           0        1.351822   -4.002093   -1.712992
     74          1           0        1.768433   -4.882941   -3.115574
     75          7           0        3.602446   -4.090923   -0.613737
     76          1           0        4.604879   -3.977597   -0.476440
     77          1           0        2.300305   -3.107527    0.034854
     78          6           0        3.315916   -4.512276   -1.809974
     79          8           0        3.263750   -0.519258   -6.099035
     80          1           0        2.855324   -0.089747   -6.875196
     81          1           0       -3.521485    5.672939    3.020579
 ---------------------------------------------------------------------

 SCF Done:  E(RB3LYP) =  -2054.04547291     A.U. after    1 cycles

 Alpha  occ. eigenvalues --  -19.31398 -19.28539 -19.26150 -19.25901 -19.23250
 Alpha  occ. eigenvalues --  -19.20099 -19.19710 -19.18160 -14.59962 -14.48064
 Alpha  occ. eigenvalues --  -14.44767 -14.43762 -14.42530 -14.42050 -14.40505
 Alpha  occ. eigenvalues --  -14.35920 -10.44315 -10.42351 -10.41154 -10.40118
 Alpha  occ. eigenvalues --  -10.37095 -10.36787 -10.35581 -10.34539 -10.33143
 Alpha  occ. eigenvalues --  -10.32908 -10.31326 -10.30677 -10.30625 -10.29956
 Alpha  occ. eigenvalues --  -10.28213 -10.27781 -10.26929 -10.26287 -10.26261
 Alpha  occ. eigenvalues --  -10.24363 -10.24184 -10.24017 -10.23911 -10.23655
 Alpha  occ. eigenvalues --  -10.23444 -10.23371  -1.22549  -1.19587  -1.18455
 Alpha  occ. eigenvalues --   -1.13576  -1.13381  -1.12273  -1.11495  -1.10541
 Alpha  occ. eigenvalues --   -1.06227  -1.05004  -1.04516  -1.03109  -1.01157
 Alpha  occ. eigenvalues --   -1.00329  -0.95467  -0.94395  -0.91214  -0.89645
 Alpha  occ. eigenvalues --   -0.88751  -0.87949  -0.86628  -0.84425  -0.82779
 Alpha  occ. eigenvalues --   -0.81879  -0.79513  -0.78688  -0.78157  -0.77256
 Alpha  occ. eigenvalues --   -0.75265  -0.74216  -0.73540  -0.73436  -0.71735
 Alpha  occ. eigenvalues --   -0.70584  -0.69953  -0.68889  -0.67598  -0.67527
 Alpha  occ. eigenvalues --   -0.66935  -0.65508  -0.65177  -0.64913  -0.64621
 Alpha  occ. eigenvalues --   -0.63326  -0.62858  -0.62270  -0.61568  -0.61240
 Alpha  occ. eigenvalues --   -0.59867  -0.59434  -0.59040  -0.58918  -0.58794
 Alpha  occ. eigenvalues --   -0.58109  -0.57735  -0.56817  -0.56090  -0.55721
 Alpha  occ. eigenvalues --   -0.55095  -0.54209  -0.54126  -0.53813  -0.53581
 Alpha  occ. eigenvalues --   -0.53183  -0.53000  -0.52520  -0.52252  -0.51679
 Alpha  occ. eigenvalues --   -0.51386  -0.51059  -0.50741  -0.50299  -0.49929
 Alpha  occ. eigenvalues --   -0.49719  -0.49307  -0.48943  -0.48705  -0.48544
 Alpha  occ. eigenvalues --   -0.48297  -0.47559  -0.47200  -0.46771  -0.46338
 Alpha  occ. eigenvalues --   -0.46104  -0.45643  -0.44948  -0.44746  -0.44605
 Alpha  occ. eigenvalues --   -0.44214  -0.43886  -0.43748  -0.43543  -0.42643
 Alpha  occ. eigenvalues --   -0.41846  -0.41239  -0.40879  -0.40756  -0.40363
 Alpha  occ. eigenvalues --   -0.39827  -0.39012  -0.38857  -0.38618  -0.38299
 Alpha  occ. eigenvalues --   -0.36860  -0.34799  -0.34541  -0.34316  -0.33796
 Alpha  occ. eigenvalues --   -0.33346  -0.32530  -0.31553  -0.30988  -0.29252
 Alpha  occ. eigenvalues --   -0.27511  -0.25902
 Alpha virt. eigenvalues --   -0.12178  -0.11394  -0.10157  -0.08068  -0.06839
 Alpha virt. eigenvalues --   -0.06313  -0.05953  -0.05503  -0.03223  -0.02741
 Alpha virt. eigenvalues --   -0.02536  -0.02190  -0.01636  -0.01151  -0.00779

 Mulliken charges:
               1
     1  N   -0.753400
     2  H    0.418129
     3  H    0.431842
     4  H    0.411517
     5  C   -0.119679
     6  H    0.231017
     7  C    0.653655
     8  C   -0.304184
     9  H    0.177675
    10  H    0.194123
    11  O   -0.541531
    12  C   -0.406163
    13  H    0.271106
    14  H    0.202320
    15  C    0.603228
    16  O   -0.493807
    17  O   -0.531685
    18  N   -0.618523
    19  H    0.395804
    20  C   -0.041289
    21  H    0.189365
    22  C    0.649326
    23  C   -0.391144
    24  H    0.157339
    25  H    0.170041
    26  O   -0.566404
    27  C    0.043341
    28  C    0.000162
    29  H    0.150568
    30  C    0.072165
    31  C    0.324782
    32  C   -0.222715
    33  H    0.112537
    34  N   -0.691934
    35  H    0.378952
    36  C   -0.153869
    37  H    0.127870
    38  C   -0.143786
    39  H    0.123052
    40  C   -0.136519
    41  H    0.127450
    42  N   -0.572770
    43  H    0.376501
    44  C   -0.084912
    45  H    0.167186
    46  C    0.651293
    47  C    0.160265
    48  H    0.105339
    49  O   -0.524880
    50  C   -0.455959
    51  H    0.134330
    52  H    0.150790
    53  H    0.165666
    54  O   -0.679767
    55  N   -0.616247
    56  H    0.338582
    57  C   -0.047457
    58  H    0.182819
    59  C    0.611532
    60  C   -0.291129
    61  H    0.174722
    62  H    0.185145
    63  O   -0.471822
    64  C   -0.267163
    65  H    0.168882
    66  H    0.130680
    67  C   -0.177073
    68  H    0.155548
    69  H    0.172103
    70  N   -0.572633
    71  H    0.318695
    72  N   -0.733625
    73  H    0.369747
    74  H    0.335651
    75  N   -0.720269
    76  H    0.276496
    77  H    0.449225
    78  C    0.629536
    79  O   -0.552825
    80  H    0.425641
    81  H    0.431423
 Sum of Mulliken charges =   1.00000

 Dipole moment (field-independent basis, Debye):
    X=             -3.2748    Y=              2.8609    Z=              9.2217  Tot=             10.1955
 Quadrupole moment (field-independent basis, Debye-Ang):
   XX=           -158.1610   YY=           -216.4341   ZZ=           -109.2389
   XY=            -22.9005   XZ=            -93.9688   YZ=             30.3938

 Normal termination of Gaussian 16 at Sat May 14 00:58:08 2022.
