 Gaussian 16, Revision C.01,
 Gaussian 16:  ES64L-G16RevC.01  3-Jul-2019

 ----------------------------------------------------------------------
 # B3LYP/6-31G* empiricaldispersion=gd3 guess=read geom=check nosymm in
 tegral(ultrafinegrid)
 ----------------------------------------------------------------------

 ------------------------------------------------------
 Candidate Structure: Conf:448 Charge calc in gas phase
 ------------------------------------------------------
 Structure from the checkpoint file:  "conf-448.chk"
 Charge =  1 Multiplicity = 1

                          Input orientation:
 ---------------------------------------------------------------------
 Center     Atomic      Atomic             Coordinates (Angstroms)
 Number     Number       Type             X           Y           Z
 ---------------------------------------------------------------------
      1          7           0       -5.145652   -0.908180    1.868624
      2          1           0       -5.682241   -0.299569    2.509097
      3          1           0       -5.325391   -0.568157    0.897467
      4          1           0       -5.417641   -1.902078    1.940624
      5          6           0       -3.654902   -0.708547    2.033887
      6          1           0       -3.497186   -0.321800    3.041630
      7          6           0       -3.313868    0.362439    0.972059
      8          6           0       -2.899547   -2.029042    1.853199
      9          1           0       -1.854694   -1.877384    2.145425
     10          1           0       -3.324298   -2.753983    2.555481
     11          8           0       -4.045435    0.471445   -0.023231
     12          6           0       -2.945897   -2.598308    0.420798
     13          1           0       -1.950074   -2.920156    0.104981
     14          1           0       -3.246631   -1.846585   -0.321541
     15          6           0       -3.975972   -3.699475    0.286045
     16          8           0       -5.019215   -3.755062    0.924013
     17          8           0       -3.656691   -4.598963   -0.650825
     18          7           0       -2.242084    1.089687    1.252597
     19          1           0       -1.663250    0.778838    2.024985
     20          6           0       -1.726819    2.227997    0.474330
     21          1           0       -2.022790    2.060340   -0.564745
     22          6           0       -0.181357    2.173256    0.649123
     23          6           0       -2.353463    3.536678    1.014326
     24          1           0       -2.007567    4.361043    0.382396
     25          1           0       -1.935433    3.726633    2.007933
     26          8           0        0.391745    3.182708    1.145303
     27          6           0       -3.853409    3.457921    1.050541
     28          6           0       -4.716547    3.741976    0.021901
     29          1           0       -4.512685    4.199979   -0.936271
     30          6           0       -4.653689    2.834395    2.074628
     31          6           0       -5.987476    2.736412    1.578521
     32          6           0       -4.368345    2.313054    3.348606
     33          1           0       -3.366489    2.399790    3.760336
     34          7           0       -5.994778    3.314670    0.331781
     35          1           0       -6.809159    3.445075   -0.248096
     36          6           0       -6.687319    1.567461    3.543915
     37          1           0       -7.464616    1.095694    4.138849
     38          6           0       -7.007938    2.102506    2.294746
     39          1           0       -8.018197    2.036320    1.899793
     40          6           0       -5.378042    1.683452    4.071833
     41          1           0       -5.170227    1.297107    5.065920
     42          7           0        0.278501    0.986348    0.326891
     43          1           0       -0.353897   -0.703664    0.649580
     44          6           0        1.527708    0.545343    0.934835
     45          1           0        1.573194    0.869725    1.990189
     46          6           0        2.762112    1.115541    0.222169
     47          6           0        1.513280   -1.009082    0.875358
     48          1           0        1.838929   -1.306277   -0.133390
     49          8           0        3.537764    0.437550   -0.458589
     50          6           0        2.410392   -1.662950    1.914795
     51          1           0        3.450962   -1.359703    1.762783
     52          1           0        2.350931   -2.753307    1.836073
     53          1           0        2.098340   -1.372752    2.925098
     54          8           0        0.156778   -1.442999    1.076597
     55          7           0        2.902830    2.462903    0.387612
     56          1           0        2.102457    2.963321    0.813809
     57          6           0        3.861518    3.192423   -0.401225
     58          1           0        4.665563    2.480565   -0.636500
     59          6           0        4.524774    4.342204    0.351732
     60          6           0        3.263090    3.702410   -1.730431
     61          1           0        4.059565    4.203954   -2.292446
     62          1           0        2.507051    4.468003   -1.511372
     63          8           0        5.192261    5.203390   -0.184109
     64          6           0        2.624474    2.573821   -2.551132
     65          1           0        3.271440    1.687231   -2.564012
     66          1           0        1.699055    2.228652   -2.073735
     67          6           0        2.309648    3.004433   -3.982246
     68          1           0        1.741604    2.232059   -4.513911
     69          1           0        1.733941    3.937489   -3.987568
     70          7           0        3.577016    3.258865   -4.703102
     71          1           0        4.384475    2.748720   -4.364351
     72          7           0        2.725939    4.599163   -6.395498
     73          1           0        2.817701    5.443438   -6.941985
     74          1           0        1.802430    4.203515   -6.295812
     75          7           0        5.013773    4.480529   -6.051357
     76          1           0        5.789919    4.357341   -5.416285
     77          1           0        5.209919    4.873336   -6.960788
     78          6           0        3.767505    4.103248   -5.707073
     79          8           0        4.313505    4.291637    1.680535
     80          1           0        4.794934    5.048950    2.064831
     81          1           0       -4.389445   -5.242795   -0.710539
 ---------------------------------------------------------------------

 SCF Done:  E(RB3LYP) =  -2054.00241061     A.U. after    1 cycles

 Alpha  occ. eigenvalues --  -19.28426 -19.25344 -19.23336 -19.21374 -19.19676
 Alpha  occ. eigenvalues --  -19.16248 -19.15248 -19.13831 -14.53553 -14.53228
 Alpha  occ. eigenvalues --  -14.52896 -14.52783 -14.45279 -14.44674 -14.38337
 Alpha  occ. eigenvalues --  -14.32417 -10.49291 -10.41293 -10.38088 -10.37895
 Alpha  occ. eigenvalues --  -10.35446 -10.35156 -10.31806 -10.29741 -10.29671
 Alpha  occ. eigenvalues --  -10.29466 -10.29035 -10.28857 -10.28495 -10.28345
 Alpha  occ. eigenvalues --  -10.27994 -10.27253 -10.26906 -10.26841 -10.26572
 Alpha  occ. eigenvalues --  -10.26430 -10.25941 -10.25698 -10.24874 -10.24759
 Alpha  occ. eigenvalues --  -10.24532 -10.20246  -1.19550  -1.17720  -1.16321
 Alpha  occ. eigenvalues --   -1.13567  -1.10404  -1.07994  -1.07220  -1.06920
 Alpha  occ. eigenvalues --   -1.06815  -1.05942  -1.05208  -1.04502  -1.03389
 Alpha  occ. eigenvalues --   -1.01291  -0.96378  -0.91841  -0.90849  -0.90048
 Alpha  occ. eigenvalues --   -0.89809  -0.87250  -0.84217  -0.83615  -0.81664
 Alpha  occ. eigenvalues --   -0.81193  -0.80284  -0.79444  -0.78486  -0.77292
 Alpha  occ. eigenvalues --   -0.75172  -0.75030  -0.73498  -0.72164  -0.70750
 Alpha  occ. eigenvalues --   -0.69851  -0.69443  -0.68970  -0.67603  -0.67111
 Alpha  occ. eigenvalues --   -0.66859  -0.66756  -0.66091  -0.65947  -0.65725
 Alpha  occ. eigenvalues --   -0.63338  -0.62915  -0.61861  -0.61213  -0.60944
 Alpha  occ. eigenvalues --   -0.60043  -0.58780  -0.58216  -0.57708  -0.57492
 Alpha  occ. eigenvalues --   -0.57072  -0.56114  -0.55629  -0.55287  -0.55149
 Alpha  occ. eigenvalues --   -0.54903  -0.54169  -0.54010  -0.53521  -0.52829
 Alpha  occ. eigenvalues --   -0.52541  -0.52440  -0.51536  -0.51001  -0.50663
 Alpha  occ. eigenvalues --   -0.50410  -0.50376  -0.49732  -0.49526  -0.48824
 Alpha  occ. eigenvalues --   -0.47863  -0.47501  -0.47233  -0.46831  -0.46215
 Alpha  occ. eigenvalues --   -0.46012  -0.45468  -0.45328  -0.44917  -0.44736
 Alpha  occ. eigenvalues --   -0.44669  -0.44392  -0.44265  -0.43897  -0.43479
 Alpha  occ. eigenvalues --   -0.43336  -0.42022  -0.41568  -0.41462  -0.41404
 Alpha  occ. eigenvalues --   -0.41057  -0.40965  -0.40649  -0.40478  -0.40466
 Alpha  occ. eigenvalues --   -0.39668  -0.38418  -0.37351  -0.37170  -0.35914
 Alpha  occ. eigenvalues --   -0.35480  -0.34930  -0.34193  -0.33710  -0.31110
 Alpha  occ. eigenvalues --   -0.30376  -0.30246  -0.28678  -0.28224  -0.27430
 Alpha  occ. eigenvalues --   -0.26737  -0.24791
 Alpha virt. eigenvalues --   -0.13441  -0.09252  -0.08994  -0.08021  -0.07206
 Alpha virt. eigenvalues --   -0.05536  -0.05361  -0.05070  -0.04167  -0.03588
 Alpha virt. eigenvalues --   -0.02844  -0.02076  -0.01109  -0.00523  -0.00147

 Mulliken charges:
               1
     1  N   -0.774408
     2  H    0.409404
     3  H    0.409115
     4  H    0.416298
     5  C   -0.113843
     6  H    0.195256
     7  C    0.666652
     8  C   -0.319805
     9  H    0.232976
    10  H    0.179334
    11  O   -0.562697
    12  C   -0.391796
    13  H    0.231609
    14  H    0.212339
    15  C    0.590645
    16  O   -0.497619
    17  O   -0.537742
    18  N   -0.576338
    19  H    0.346885
    20  C   -0.012556
    21  H    0.166783
    22  C    0.488455
    23  C   -0.339967
    24  H    0.156912
    25  H    0.168415
    26  O   -0.608940
    27  C    0.072601
    28  C    0.028950
    29  H    0.156585
    30  C    0.061376
    31  C    0.333100
    32  C   -0.217739
    33  H    0.142268
    34  N   -0.683668
    35  H    0.336757
    36  C   -0.213129
    37  H    0.147647
    38  C   -0.176468
    39  H    0.144186
    40  C   -0.174829
    41  H    0.143542
    42  N   -0.580292
    43  H    0.396813
    44  C   -0.088824
    45  H    0.132393
    46  C    0.622745
    47  C    0.177097
    48  H    0.127768
    49  O   -0.565528
    50  C   -0.459853
    51  H    0.159877
    52  H    0.148300
    53  H    0.133874
    54  O   -0.701259
    55  N   -0.619493
    56  H    0.386377
    57  C   -0.059664
    58  H    0.195475
    59  C    0.592709
    60  C   -0.263299
    61  H    0.132821
    62  H    0.159183
    63  O   -0.483215
    64  C   -0.333512
    65  H    0.190872
    66  H    0.207205
    67  C   -0.158565
    68  H    0.189916
    69  H    0.174820
    70  N   -0.583882
    71  H    0.372293
    72  N   -0.751342
    73  H    0.385892
    74  H    0.392588
    75  N   -0.760364
    76  H    0.391037
    77  H    0.385109
    78  C    0.820011
    79  O   -0.543740
    80  H    0.415962
    81  H    0.425148
 Sum of Mulliken charges =   1.00000

 Dipole moment (field-independent basis, Debye):
    X=             -3.4599    Y=             12.9949    Z=            -18.7118  Tot=             23.0427
 Quadrupole moment (field-independent basis, Debye-Ang):
   XX=           -104.5963   YY=           -162.9744   ZZ=            -80.7577
   XY=             61.9179   XZ=            -98.1206   YZ=           -106.8282

 Normal termination of Gaussian 16 at Sat May 14 00:58:03 2022.
