 Gaussian 16, Revision C.01,
 Gaussian 16:  ES64L-G16RevC.01  3-Jul-2019

 ----------------------------------------------------------------------
 # B3LYP/6-31G* empiricaldispersion=gd3 guess=read geom=check nosymm in
 tegral(ultrafinegrid)
 ----------------------------------------------------------------------

 ------------------------------------------------------
 Candidate Structure: Conf:474 Charge calc in gas phase
 ------------------------------------------------------
 Structure from the checkpoint file:  "conf-474.chk"
 Charge =  1 Multiplicity = 1

                          Input orientation:
 ---------------------------------------------------------------------
 Center     Atomic      Atomic             Coordinates (Angstroms)
 Number     Number       Type             X           Y           Z
 ---------------------------------------------------------------------
      1          7           0       -1.109738   -2.323329    2.160850
      2          1           0       -1.225689   -2.963703    1.376182
      3          1           0        0.472032   -1.413768    1.616132
      4          1           0       -1.120259   -2.879446    3.014844
      5          6           0       -2.268321   -1.397901    2.147603
      6          1           0       -3.221286   -1.952455    2.137209
      7          6           0       -2.184145   -0.697486    0.782103
      8          6           0       -2.285677   -0.503548    3.395529
      9          1           0       -3.182149    0.124322    3.349434
     10          1           0       -2.432368   -1.155235    4.264663
     11          8           0       -1.913672   -1.394765   -0.212186
     12          6           0       -1.030913    0.372456    3.625722
     13          1           0       -0.289058    0.229411    2.829223
     14          1           0       -0.517587    0.112323    4.553994
     15          6           0       -1.334695    1.851138    3.640769
     16          8           0       -2.234803    2.390574    3.013459
     17          8           0       -0.469483    2.548123    4.392183
     18          7           0       -2.348347    0.632400    0.707525
     19          1           0       -2.558486    1.189234    1.534889
     20          6           0       -2.163183    1.371320   -0.544936
     21          1           0       -2.572723    0.752313   -1.350804
     22          6           0       -0.648197    1.574769   -0.784813
     23          6           0       -2.896078    2.722163   -0.458101
     24          1           0       -2.762725    3.234408   -1.417807
     25          1           0       -2.392642    3.341872    0.290629
     26          8           0       -0.124822    2.689046   -0.868731
     27          6           0       -4.345116    2.557939   -0.120213
     28          6           0       -4.943267    2.868145    1.075976
     29          1           0       -4.503828    3.298250    1.965451
     30          6           0       -5.366765    1.977852   -0.954423
     31          6           0       -6.571555    1.972711   -0.199207
     32          6           0       -5.382931    1.466887   -2.263296
     33          1           0       -4.477618    1.466680   -2.865892
     34          7           0       -6.278800    2.513667    1.037447
     35          1           0       -6.951618    2.700997    1.764190
     36          6           0       -7.757853    0.981099   -2.013230
     37          1           0       -8.675350    0.591481   -2.444849
     38          6           0       -7.774075    1.480680   -0.715632
     39          1           0       -8.687180    1.488575   -0.126517
     40          6           0       -6.574209    0.973647   -2.780367
     41          1           0       -6.600294    0.577949   -3.791822
     42          7           0        0.072702    0.424539   -0.850793
     43          1           0       -0.446199   -0.451491   -0.775796
     44          6           0        1.504415    0.418998   -0.559814
     45          1           0        1.716844    1.298489    0.058937
     46          6           0        2.244342    0.578017   -1.893694
     47          6           0        1.871012   -0.828956    0.270759
     48          1           0        1.552909   -1.724310   -0.283268
     49          8           0        2.826288   -0.361440   -2.469463
     50          6           0        3.367951   -0.909995    0.563695
     51          1           0        3.953294   -1.005708   -0.354477
     52          1           0        3.561237   -1.771205    1.209693
     53          1           0        3.691645   -0.011843    1.101625
     54          8           0        1.174754   -0.726361    1.500864
     55          7           0        2.150914    1.808687   -2.424257
     56          1           0        1.549261    2.488085   -1.951624
     57          6           0        2.708522    2.071429   -3.740098
     58          1           0        3.759764    1.752358   -3.698655
     59          6           0        2.756909    3.561511   -4.056847
     60          6           0        1.997601    1.263253   -4.860853
     61          1           0        1.513895    1.947651   -5.561394
     62          1           0        1.206679    0.679799   -4.380477
     63          8           0        2.789892    4.000532   -5.182216
     64          6           0        2.963181    0.324568   -5.605305
     65          1           0        3.447795    0.857654   -6.431200
     66          1           0        3.765957    0.014249   -4.926325
     67          6           0        2.263307   -0.948213   -6.124345
     68          1           0        1.463734   -1.259215   -5.443903
     69          1           0        1.808496   -0.791097   -7.105147
     70          7           0        3.178287   -2.090215   -6.275893
     71          1           0        3.601500   -2.237583   -7.182523
     72          7           0        3.329531   -2.568194   -3.997869
     73          1           0        3.540434   -3.244978   -3.276892
     74          1           0        3.072024   -1.639322   -3.625449
     75          7           0        4.315159   -3.974023   -5.558850
     76          1           0        4.312287   -4.371729   -6.486757
     77          1           0        4.803884   -4.486084   -4.839324
     78          6           0        3.608220   -2.860251   -5.266929
     79          8           0        2.809314    4.319679   -2.943958
     80          1           0        2.854293    5.252049   -3.230738
     81          1           0       -0.700728    3.492762    4.303437
 ---------------------------------------------------------------------

 SCF Done:  E(RB3LYP) =  -2054.07109990     A.U. after    1 cycles

 Alpha  occ. eigenvalues --  -19.28553 -19.27703 -19.22746 -19.22534 -19.22346
 Alpha  occ. eigenvalues --  -19.20145 -19.19948 -19.19520 -14.52114 -14.52072
 Alpha  occ. eigenvalues --  -14.50473 -14.45078 -14.43640 -14.42995 -14.42936
 Alpha  occ. eigenvalues --  -14.41563 -10.48159 -10.41121 -10.40484 -10.38505
 Alpha  occ. eigenvalues --  -10.36623 -10.36511 -10.35413 -10.33523 -10.31728
 Alpha  occ. eigenvalues --  -10.31097 -10.30974 -10.30624 -10.29708 -10.28628
 Alpha  occ. eigenvalues --  -10.27550 -10.27239 -10.26822 -10.26723 -10.25273
 Alpha  occ. eigenvalues --  -10.24376 -10.23661 -10.23494 -10.23286 -10.23191
 Alpha  occ. eigenvalues --  -10.23147 -10.22830  -1.19476  -1.18840  -1.16422
 Alpha  occ. eigenvalues --   -1.13572  -1.11998  -1.11084  -1.10556  -1.09714
 Alpha  occ. eigenvalues --   -1.07780  -1.05930  -1.04222  -1.02772  -1.02248
 Alpha  occ. eigenvalues --   -1.00486  -0.99469  -0.97798  -0.90947  -0.88632
 Alpha  occ. eigenvalues --   -0.87537  -0.86748  -0.85986  -0.84604  -0.82033
 Alpha  occ. eigenvalues --   -0.81250  -0.79432  -0.78394  -0.78112  -0.77533
 Alpha  occ. eigenvalues --   -0.76508  -0.73827  -0.73124  -0.72898  -0.71542
 Alpha  occ. eigenvalues --   -0.70452  -0.69906  -0.68351  -0.67207  -0.67028
 Alpha  occ. eigenvalues --   -0.66706  -0.66167  -0.65367  -0.65109  -0.64097
 Alpha  occ. eigenvalues --   -0.64066  -0.62555  -0.61691  -0.60488  -0.60186
 Alpha  occ. eigenvalues --   -0.59677  -0.59413  -0.58756  -0.58648  -0.57767
 Alpha  occ. eigenvalues --   -0.57492  -0.57288  -0.56799  -0.56214  -0.56100
 Alpha  occ. eigenvalues --   -0.55783  -0.55013  -0.54788  -0.53998  -0.53430
 Alpha  occ. eigenvalues --   -0.53229  -0.52957  -0.52276  -0.51752  -0.51438
 Alpha  occ. eigenvalues --   -0.51140  -0.50422  -0.49784  -0.49126  -0.49060
 Alpha  occ. eigenvalues --   -0.48633  -0.48168  -0.47859  -0.47603  -0.47321
 Alpha  occ. eigenvalues --   -0.47065  -0.46621  -0.46327  -0.46173  -0.45953
 Alpha  occ. eigenvalues --   -0.45676  -0.45156  -0.45073  -0.44649  -0.44329
 Alpha  occ. eigenvalues --   -0.44147  -0.43791  -0.43451  -0.43316  -0.42648
 Alpha  occ. eigenvalues --   -0.42579  -0.42379  -0.40572  -0.40282  -0.40110
 Alpha  occ. eigenvalues --   -0.39816  -0.39123  -0.38115  -0.38062  -0.37201
 Alpha  occ. eigenvalues --   -0.36665  -0.36490  -0.35556  -0.35269  -0.34834
 Alpha  occ. eigenvalues --   -0.33682  -0.33143  -0.32604  -0.32348  -0.31818
 Alpha  occ. eigenvalues --   -0.27036  -0.25224
 Alpha virt. eigenvalues --   -0.12114  -0.08614  -0.08478  -0.07728  -0.07429
 Alpha virt. eigenvalues --   -0.06929  -0.05849  -0.04869  -0.04496  -0.03626
 Alpha virt. eigenvalues --   -0.02222  -0.01197  -0.00548  -0.00446   0.00194

 Mulliken charges:
               1
     1  N   -0.756212
     2  H    0.337555
     3  H    0.449434
     4  H    0.321369
     5  C   -0.067907
     6  H    0.169512
     7  C    0.637147
     8  C   -0.314023
     9  H    0.180562
    10  H    0.162028
    11  O   -0.580450
    12  C   -0.387949
    13  H    0.242920
    14  H    0.188487
    15  C    0.588182
    16  O   -0.486781
    17  O   -0.542592
    18  N   -0.630478
    19  H    0.407109
    20  C   -0.067708
    21  H    0.194058
    22  C    0.630259
    23  C   -0.386543
    24  H    0.167644
    25  H    0.175525
    26  O   -0.541603
    27  C    0.059844
    28  C   -0.008972
    29  H    0.171666
    30  C    0.089076
    31  C    0.310967
    32  C   -0.209287
    33  H    0.112255
    34  N   -0.691424
    35  H    0.332167
    36  C   -0.150944
    37  H    0.132245
    38  C   -0.161496
    39  H    0.130278
    40  C   -0.139354
    41  H    0.123519
    42  N   -0.634523
    43  H    0.384963
    44  C   -0.065881
    45  H    0.187540
    46  C    0.655185
    47  C    0.121950
    48  H    0.113416
    49  O   -0.603132
    50  C   -0.458825
    51  H    0.146786
    52  H    0.156621
    53  H    0.160540
    54  O   -0.669668
    55  N   -0.618460
    56  H    0.396526
    57  C   -0.016301
    58  H    0.199314
    59  C    0.567781
    60  C   -0.284509
    61  H    0.192854
    62  H    0.161869
    63  O   -0.446762
    64  C   -0.289195
    65  H    0.177168
    66  H    0.157390
    67  C   -0.173414
    68  H    0.192037
    69  H    0.194351
    70  N   -0.596240
    71  H    0.363064
    72  N   -0.793459
    73  H    0.367386
    74  H    0.456274
    75  N   -0.770439
    76  H    0.379717
    77  H    0.380089
    78  C    0.820939
    79  O   -0.555163
    80  H    0.429997
    81  H    0.422129
 Sum of Mulliken charges =   1.00000

 Dipole moment (field-independent basis, Debye):
    X=              9.1021    Y=             -9.1435    Z=            -13.3034  Tot=             18.5320
 Quadrupole moment (field-independent basis, Debye-Ang):
   XX=           -163.2301   YY=           -179.4659   ZZ=           -103.4505
   XY=            -44.3250   XZ=            -94.8038   YZ=             62.5226

 Normal termination of Gaussian 16 at Sat May 14 00:58:03 2022.
