 Gaussian 16, Revision C.01,
 Gaussian 16:  ES64L-G16RevC.01  3-Jul-2019

 ----------------------------------------------------------------------
 # B3LYP/6-31G* empiricaldispersion=gd3 guess=read geom=check nosymm in
 tegral(ultrafinegrid)
 ----------------------------------------------------------------------

 ------------------------------------------------------
 Candidate Structure: Conf:156 Charge calc in gas phase
 ------------------------------------------------------
 Structure from the checkpoint file:  "conf-156.chk"
 Charge =  1 Multiplicity = 1

                          Input orientation:
 ---------------------------------------------------------------------
 Center     Atomic      Atomic             Coordinates (Angstroms)
 Number     Number       Type             X           Y           Z
 ---------------------------------------------------------------------
      1          7           0       -5.347957   -0.570769    1.848089
      2          1           0       -5.857226    0.327913    1.923415
      3          1           0       -5.476405   -0.932672    0.868043
      4          1           0       -5.715802   -1.224214    2.543402
      5          6           0       -3.848261   -0.384487    1.940163
      6          1           0       -3.676741    0.516884    2.530632
      7          6           0       -3.488403   -0.149777    0.443165
      8          6           0       -3.195469   -1.610827    2.592207
      9          1           0       -3.832370   -1.959246    3.418120
     10          1           0       -3.147140   -2.439585    1.878696
     11          8           0       -4.244540   -0.643549   -0.405285
     12          6           0       -1.808057   -1.318597    3.165868
     13          1           0       -1.824792   -0.440992    3.824485
     14          1           0       -1.034476   -1.114372    2.407990
     15          6           0       -1.312352   -2.508340    3.950774
     16          8           0       -1.850639   -3.596140    3.970346
     17          8           0       -0.182847   -2.218900    4.626168
     18          7           0       -2.437080    0.625630    0.222400
     19          1           0       -1.746231    0.809098    0.954124
     20          6           0       -2.004163    1.207871   -1.050082
     21          1           0       -2.196136    0.485826   -1.850085
     22          6           0       -0.481741    1.517295   -0.991113
     23          6           0       -2.785770    2.524656   -1.342147
     24          1           0       -2.464869    2.862010   -2.331088
     25          1           0       -2.441173    3.288002   -0.633563
     26          8           0       -0.043252    2.188302   -1.974445
     27          6           0       -4.275473    2.377971   -1.260730
     28          6           0       -5.129055    1.987550   -2.261837
     29          1           0       -4.923048    1.801349   -3.306915
     30          6           0       -5.076022    2.450474   -0.063803
     31          6           0       -6.403351    2.057173   -0.410816
     32          6           0       -4.797540    2.782539    1.273595
     33          1           0       -3.799290    3.102678    1.559281
     34          7           0       -6.400990    1.787109   -1.758982
     35          1           0       -7.214453    1.558528   -2.309855
     36          6           0       -7.114224    2.272962    1.862565
     37          1           0       -7.892052    2.228250    2.619883
     38          6           0       -7.426999    1.959170    0.537818
     39          1           0       -8.432295    1.657324    0.256491
     40          6           0       -5.810555    2.691676    2.225277
     41          1           0       -5.607293    2.959434    3.258509
     42          7           0        0.091675    1.024569    0.081701
     43          1           0        0.212915   -0.682718    0.652078
     44          6           0        1.505058    1.097413    0.455937
     45          1           0        1.746222    2.107272    0.821488
     46          6           0        2.505795    0.773779   -0.674834
     47          6           0        1.648567    0.076070    1.622466
     48          1           0        2.687797   -0.256473    1.686449
     49          8           0        3.130593   -0.277767   -0.746942
     50          6           0        1.208926    0.678128    2.956679
     51          1           0        1.886921    1.479749    3.275822
     52          1           0        1.190727   -0.099993    3.725744
     53          1           0        0.199882    1.101117    2.869119
     54          8           0        0.853997   -1.067250    1.293862
     55          7           0        2.639835    1.794794   -1.596503
     56          1           0        1.770468    2.342319   -1.692631
     57          6           0        3.276069    1.486897   -2.863321
     58          1           0        3.965713    0.653878   -2.672989
     59          6           0        4.105778    2.653086   -3.393697
     60          6           0        2.256848    1.073651   -3.938754
     61          1           0        2.800941    0.938265   -4.880525
     62          1           0        1.561704    1.920903   -4.052380
     63          8           0        4.105777    3.004873   -4.559510
     64          6           0        1.447346   -0.177807   -3.602970
     65          1           0        2.094867   -1.061148   -3.552016
     66          1           0        0.983243   -0.066458   -2.620879
     67          6           0        0.307252   -0.398046   -4.597755
     68          1           0       -0.299232   -1.264302   -4.317264
     69          1           0       -0.357189    0.471476   -4.619710
     70          7           0        0.764442   -0.656395   -5.984868
     71          1           0        1.103160   -1.592035   -6.173853
     72          7           0        0.787571    1.545621   -6.755466
     73          1           0        0.708578    2.187529   -7.532427
     74          1           0        1.055137    1.936597   -5.859004
     75          7           0        1.053540   -0.213170   -8.238806
     76          1           0        0.879784   -1.176093   -8.489328
     77          1           0        1.462795    0.381710   -8.945240
     78          6           0        0.882046    0.225474   -6.976075
     79          8           0        4.854656    3.239368   -2.446607
     80          1           0        5.358379    3.949887   -2.888277
     81          1           0        0.105165   -3.039498    5.069594
 ---------------------------------------------------------------------

 SCF Done:  E(RB3LYP) =  -2053.99707493     A.U. after    1 cycles

 Alpha  occ. eigenvalues --  -19.25952 -19.25920 -19.22331 -19.20528 -19.20433
 Alpha  occ. eigenvalues --  -19.16525 -19.16459 -19.15210 -14.55280 -14.52472
 Alpha  occ. eigenvalues --  -14.52310 -14.51704 -14.46521 -14.44863 -14.39381
 Alpha  occ. eigenvalues --  -14.35044 -10.48582 -10.39204 -10.38804 -10.38520
 Alpha  occ. eigenvalues --  -10.36341 -10.34594 -10.32884 -10.31930 -10.30950
 Alpha  occ. eigenvalues --  -10.30107 -10.30068 -10.29893 -10.29884 -10.28466
 Alpha  occ. eigenvalues --  -10.28063 -10.27847 -10.27730 -10.27665 -10.27657
 Alpha  occ. eigenvalues --  -10.27405 -10.27232 -10.26618 -10.26455 -10.26235
 Alpha  occ. eigenvalues --  -10.26145 -10.21291  -1.17014  -1.16883  -1.16864
 Alpha  occ. eigenvalues --   -1.14800  -1.09423  -1.08214  -1.07972  -1.07910
 Alpha  occ. eigenvalues --   -1.06448  -1.06054  -1.05614  -1.04994  -1.04412
 Alpha  occ. eigenvalues --   -1.01867  -0.97287  -0.93133  -0.92308  -0.90538
 Alpha  occ. eigenvalues --   -0.89602  -0.88386  -0.84708  -0.83961  -0.82681
 Alpha  occ. eigenvalues --   -0.82049  -0.80856  -0.79865  -0.79446  -0.77132
 Alpha  occ. eigenvalues --   -0.75741  -0.74661  -0.74352  -0.72246  -0.71634
 Alpha  occ. eigenvalues --   -0.71102  -0.69514  -0.69399  -0.68799  -0.68117
 Alpha  occ. eigenvalues --   -0.67176  -0.66492  -0.65533  -0.65369  -0.65257
 Alpha  occ. eigenvalues --   -0.64344  -0.63809  -0.63504  -0.62535  -0.61077
 Alpha  occ. eigenvalues --   -0.59959  -0.59409  -0.58654  -0.57912  -0.57336
 Alpha  occ. eigenvalues --   -0.57204  -0.56255  -0.56031  -0.55338  -0.55242
 Alpha  occ. eigenvalues --   -0.54869  -0.54669  -0.54368  -0.53962  -0.53430
 Alpha  occ. eigenvalues --   -0.52671  -0.52427  -0.52100  -0.52014  -0.51408
 Alpha  occ. eigenvalues --   -0.50951  -0.50790  -0.50194  -0.50042  -0.49091
 Alpha  occ. eigenvalues --   -0.48646  -0.48096  -0.47916  -0.47760  -0.47294
 Alpha  occ. eigenvalues --   -0.46718  -0.46496  -0.46106  -0.45967  -0.45711
 Alpha  occ. eigenvalues --   -0.45034  -0.44799  -0.44554  -0.44435  -0.43905
 Alpha  occ. eigenvalues --   -0.43321  -0.43036  -0.42873  -0.42714  -0.42618
 Alpha  occ. eigenvalues --   -0.41978  -0.41960  -0.40844  -0.40333  -0.40174
 Alpha  occ. eigenvalues --   -0.39738  -0.38170  -0.38152  -0.37117  -0.36350
 Alpha  occ. eigenvalues --   -0.35514  -0.35025  -0.34552  -0.34176  -0.33070
 Alpha  occ. eigenvalues --   -0.31558  -0.30803  -0.30505  -0.29213  -0.28461
 Alpha  occ. eigenvalues --   -0.28156  -0.26753
 Alpha virt. eigenvalues --   -0.12961  -0.10416  -0.08742  -0.08386  -0.06781
 Alpha virt. eigenvalues --   -0.05756  -0.05664  -0.05299  -0.04347  -0.03736
 Alpha virt. eigenvalues --   -0.03267  -0.02815  -0.02420  -0.01469  -0.00964

 Mulliken charges:
               1
     1  N   -0.772451
     2  H    0.420852
     3  H    0.417701
     4  H    0.393887
     5  C   -0.102605
     6  H    0.194845
     7  C    0.656056
     8  C   -0.286088
     9  H    0.164019
    10  H    0.199115
    11  O   -0.556960
    12  C   -0.405308
    13  H    0.175390
    14  H    0.242830
    15  C    0.600234
    16  O   -0.464836
    17  O   -0.553200
    18  N   -0.598709
    19  H    0.363513
    20  C   -0.031073
    21  H    0.156621
    22  C    0.562260
    23  C   -0.350626
    24  H    0.170397
    25  H    0.157253
    26  O   -0.645111
    27  C    0.087929
    28  C    0.026310
    29  H    0.156628
    30  C    0.058805
    31  C    0.325806
    32  C   -0.219792
    33  H    0.146966
    34  N   -0.683448
    35  H    0.339400
    36  C   -0.205822
    37  H    0.151398
    38  C   -0.177127
    39  H    0.148458
    40  C   -0.184160
    41  H    0.147495
    42  N   -0.617703
    43  H    0.394910
    44  C   -0.086344
    45  H    0.153601
    46  C    0.590669
    47  C    0.168071
    48  H    0.152518
    49  O   -0.515870
    50  C   -0.472399
    51  H    0.139374
    52  H    0.169727
    53  H    0.115584
    54  O   -0.651086
    55  N   -0.599482
    56  H    0.365146
    57  C   -0.077104
    58  H    0.209284
    59  C    0.600176
    60  C   -0.303979
    61  H    0.144438
    62  H    0.160643
    63  O   -0.492735
    64  C   -0.256000
    65  H    0.163151
    66  H    0.205272
    67  C   -0.195672
    68  H    0.189597
    69  H    0.196858
    70  N   -0.580680
    71  H    0.364309
    72  N   -0.747610
    73  H    0.378759
    74  H    0.403736
    75  N   -0.762322
    76  H    0.381305
    77  H    0.383953
    78  C    0.804105
    79  O   -0.541632
    80  H    0.416970
    81  H    0.421611
 Sum of Mulliken charges =   1.00000

 Dipole moment (field-independent basis, Debye):
    X=            -13.9340    Y=              1.1713    Z=            -19.7797  Tot=             24.2233
 Quadrupole moment (field-independent basis, Debye-Ang):
   XX=           -137.6723   YY=           -240.1004   ZZ=            -17.5169
   XY=              2.3851   XZ=            -41.3382   YZ=              1.6179

 Normal termination of Gaussian 16 at Sat May 14 00:58:05 2022.
