 Gaussian 16, Revision C.01,
 Gaussian 16:  ES64L-G16RevC.01  3-Jul-2019

 ----------------------------------------------------------------------
 # B3LYP/6-31G* empiricaldispersion=gd3 guess=read geom=check nosymm in
 tegral(ultrafinegrid)
 ----------------------------------------------------------------------

 ------------------------------------------------------
 Candidate Structure: Conf:306 Charge calc in gas phase
 ------------------------------------------------------
 Structure from the checkpoint file:  "conf-306.chk"
 Charge =  1 Multiplicity = 1

                          Input orientation:
 ---------------------------------------------------------------------
 Center     Atomic      Atomic             Coordinates (Angstroms)
 Number     Number       Type             X           Y           Z
 ---------------------------------------------------------------------
      1          7           0       -5.867530    1.573511    2.570975
      2          1           0       -6.116696    1.951830    1.638053
      3          1           0       -6.045844    0.538551    2.563297
      4          1           0       -6.433814    2.041493    3.282057
      5          6           0       -4.379167    1.654650    2.827371
      6          1           0       -3.983320    2.480883    2.240895
      7          6           0       -3.878979    0.292273    2.296362
      8          6           0       -4.068733    1.833181    4.317792
      9          1           0       -4.633254    1.094425    4.899882
     10          1           0       -3.009501    1.591577    4.449415
     11          8           0       -4.669979   -0.660185    2.323168
     12          6           0       -4.316219    3.249478    4.848678
     13          1           0       -4.164856    3.279103    5.933269
     14          1           0       -5.348834    3.594567    4.694854
     15          6           0       -3.381957    4.266181    4.210900
     16          8           0       -2.605557    4.022711    3.310094
     17          8           0       -3.528875    5.479563    4.766903
     18          7           0       -2.633719    0.292561    1.833912
     19          1           0       -2.027972    1.113706    1.913925
     20          6           0       -1.996977   -0.790005    1.097932
     21          1           0       -2.234025   -1.746427    1.571582
     22          6           0       -0.490823   -0.448379    1.124220
     23          6           0       -2.426093   -0.796320   -0.411200
     24          1           0       -2.062899   -1.723659   -0.865348
     25          1           0       -1.884653    0.018105   -0.897748
     26          8           0       -0.139864    0.688509    1.443942
     27          6           0       -3.893002   -0.629299   -0.641318
     28          6           0       -4.842363   -1.609118   -0.781657
     29          1           0       -4.719469   -2.681870   -0.835354
     30          6           0       -4.604256    0.622057   -0.625124
     31          6           0       -5.996298    0.320248   -0.721650
     32          6           0       -4.203623    1.965890   -0.503874
     33          1           0       -3.148538    2.221858   -0.448128
     34          7           0       -6.103412   -1.047160   -0.824910
     35          1           0       -6.960715   -1.558402   -0.971745
     36          6           0       -6.554618    2.636565   -0.505293
     37          1           0       -7.293015    3.432759   -0.474315
     38          6           0       -6.979283    1.313978   -0.660489
     39          1           0       -8.035704    1.070731   -0.735328
     40          6           0       -5.177341    2.960316   -0.440302
     41          1           0       -4.878785    4.001098   -0.353451
     42          7           0        0.347098   -1.395363    0.667357
     43          1           0       -0.017796   -2.249163    0.248276
     44          6           0        1.665163   -1.044221    0.135582
     45          1           0        2.284406   -0.589504    0.910378
     46          6           0        1.557082   -0.021376   -1.012404
     47          6           0        2.277264   -2.374211   -0.411642
     48          1           0        3.202625   -2.077180   -0.948720
     49          8           0        2.296345    0.944014   -1.120717
     50          6           0        2.687378   -3.304084    0.738137
     51          1           0        3.419687   -2.831351    1.403491
     52          1           0        3.134066   -4.215641    0.326463
     53          1           0        1.812730   -3.593239    1.331307
     54          8           0        1.344400   -2.975247   -1.263389
     55          7           0        0.575743   -0.355125   -1.921770
     56          1           0        0.341479   -1.350903   -1.911696
     57          6           0        0.385490    0.363650   -3.174432
     58          1           0        0.858678    1.341152   -3.055604
     59          6           0       -1.127302    0.527378   -3.322613
     60          6           0        0.961196   -0.409100   -4.372017
     61          1           0        0.693288    0.112300   -5.298574
     62          1           0        0.441247   -1.373892   -4.412485
     63          8           0       -1.865820   -0.311781   -3.790974
     64          6           0        2.490850   -0.614161   -4.289092
     65          1           0        3.003134    0.084562   -4.958480
     66          1           0        2.859272   -0.392256   -3.282302
     67          6           0        2.926667   -2.033948   -4.667396
     68          1           0        2.512067   -2.295423   -5.652691
     69          1           0        4.023051   -2.076360   -4.740180
     70          7           0        2.458746   -2.990513   -3.666176
     71          1           0        1.954046   -2.700177   -2.777718
     72          7           0        3.245318   -4.904398   -4.768230
     73          1           0        3.658732   -5.818501   -4.654531
     74          1           0        3.634854   -4.338550   -5.507186
     75          7           0        2.338054   -5.018017   -2.612166
     76          1           0        1.852194   -4.452309   -1.857963
     77          1           0        2.234466   -6.019406   -2.684888
     78          6           0        2.686380   -4.299482   -3.688494
     79          8           0       -1.579142    1.688693   -2.790815
     80          1           0       -2.553038    1.675004   -2.876647
     81          1           0       -2.900370    6.085534    4.328037
 ---------------------------------------------------------------------

 SCF Done:  E(RB3LYP) =  -2054.05266450     A.U. after    1 cycles

 Alpha  occ. eigenvalues --  -19.29830 -19.26900 -19.24657 -19.23867 -19.21084
 Alpha  occ. eigenvalues --  -19.19591 -19.17120 -19.13793 -14.57178 -14.47730
 Alpha  occ. eigenvalues --  -14.46741 -14.46646 -14.43836 -14.43243 -14.42730
 Alpha  occ. eigenvalues --  -14.41137 -10.42916 -10.41203 -10.40784 -10.38916
 Alpha  occ. eigenvalues --  -10.37480 -10.36460 -10.33943 -10.32825 -10.32591
 Alpha  occ. eigenvalues --  -10.32300 -10.32244 -10.31276 -10.31149 -10.30082
 Alpha  occ. eigenvalues --  -10.29825 -10.29318 -10.28999 -10.28868 -10.28580
 Alpha  occ. eigenvalues --  -10.28352 -10.28250 -10.28036 -10.27399 -10.26290
 Alpha  occ. eigenvalues --  -10.25899 -10.22313  -1.20966  -1.17605  -1.16362
 Alpha  occ. eigenvalues --   -1.12130  -1.11793  -1.11126  -1.10001  -1.08893
 Alpha  occ. eigenvalues --   -1.08576  -1.07681  -1.03658  -1.01734  -0.99558
 Alpha  occ. eigenvalues --   -0.98313  -0.97871  -0.97377  -0.94420  -0.93220
 Alpha  occ. eigenvalues --   -0.90099  -0.87275  -0.86901  -0.84718  -0.83851
 Alpha  occ. eigenvalues --   -0.82846  -0.81862  -0.80185  -0.78013  -0.76536
 Alpha  occ. eigenvalues --   -0.75859  -0.74672  -0.72372  -0.71813  -0.71356
 Alpha  occ. eigenvalues --   -0.71004  -0.69661  -0.69360  -0.69288  -0.69071
 Alpha  occ. eigenvalues --   -0.67129  -0.66534  -0.65927  -0.65895  -0.64323
 Alpha  occ. eigenvalues --   -0.63937  -0.63427  -0.63296  -0.62620  -0.61603
 Alpha  occ. eigenvalues --   -0.59676  -0.59001  -0.58771  -0.58619  -0.58369
 Alpha  occ. eigenvalues --   -0.57687  -0.57502  -0.57093  -0.56637  -0.56232
 Alpha  occ. eigenvalues --   -0.56149  -0.55240  -0.55041  -0.54341  -0.54142
 Alpha  occ. eigenvalues --   -0.53847  -0.53658  -0.53362  -0.53179  -0.52585
 Alpha  occ. eigenvalues --   -0.52020  -0.51515  -0.51365  -0.50945  -0.50326
 Alpha  occ. eigenvalues --   -0.49971  -0.49861  -0.49042  -0.48630  -0.48498
 Alpha  occ. eigenvalues --   -0.48282  -0.48217  -0.47896  -0.47561  -0.47048
 Alpha  occ. eigenvalues --   -0.46628  -0.46290  -0.46139  -0.45573  -0.45171
 Alpha  occ. eigenvalues --   -0.44257  -0.43997  -0.43509  -0.43120  -0.42687
 Alpha  occ. eigenvalues --   -0.42172  -0.41790  -0.41578  -0.41462  -0.40852
 Alpha  occ. eigenvalues --   -0.39773  -0.38992  -0.38730  -0.38203  -0.37749
 Alpha  occ. eigenvalues --   -0.37082  -0.36713  -0.35046  -0.34335  -0.33681
 Alpha  occ. eigenvalues --   -0.33611  -0.32817  -0.31571  -0.30093  -0.29790
 Alpha  occ. eigenvalues --   -0.28883  -0.28273
 Alpha virt. eigenvalues --   -0.11806  -0.10417  -0.09927  -0.08237  -0.07511
 Alpha virt. eigenvalues --   -0.06759  -0.05932  -0.05912  -0.02986  -0.02692
 Alpha virt. eigenvalues --   -0.02521  -0.01984  -0.01464  -0.00942  -0.00668

 Mulliken charges:
               1
     1  N   -0.772460
     2  H    0.420816
     3  H    0.418190
     4  H    0.395065
     5  C   -0.109809
     6  H    0.230202
     7  C    0.657990
     8  C   -0.296399
     9  H    0.176921
    10  H    0.215345
    11  O   -0.551115
    12  C   -0.374158
    13  H    0.221104
    14  H    0.168619
    15  C    0.591710
    16  O   -0.453477
    17  O   -0.549007
    18  N   -0.610293
    19  H    0.381083
    20  C   -0.053607
    21  H    0.185652
    22  C    0.636266
    23  C   -0.391837
    24  H    0.171111
    25  H    0.193584
    26  O   -0.531247
    27  C    0.099972
    28  C    0.038552
    29  H    0.175536
    30  C    0.040998
    31  C    0.328225
    32  C   -0.254180
    33  H    0.173283
    34  N   -0.685113
    35  H    0.344832
    36  C   -0.212713
    37  H    0.154831
    38  C   -0.186420
    39  H    0.153685
    40  C   -0.170940
    41  H    0.155330
    42  N   -0.614727
    43  H    0.342491
    44  C   -0.041876
    45  H    0.180048
    46  C    0.600106
    47  C    0.137695
    48  H    0.097823
    49  O   -0.514346
    50  C   -0.445775
    51  H    0.143433
    52  H    0.141480
    53  H    0.140489
    54  O   -0.730542
    55  N   -0.624575
    56  H    0.353670
    57  C   -0.034138
    58  H    0.201945
    59  C    0.587484
    60  C   -0.285351
    61  H    0.159516
    62  H    0.168355
    63  O   -0.465234
    64  C   -0.313760
    65  H    0.165450
    66  H    0.194105
    67  C   -0.152884
    68  H    0.159478
    69  H    0.162821
    70  N   -0.638835
    71  H    0.420565
    72  N   -0.764473
    73  H    0.361818
    74  H    0.369558
    75  N   -0.799077
    76  H    0.417163
    77  H    0.339915
    78  C    0.780198
    79  O   -0.570074
    80  H    0.412413
    81  H    0.431522
 Sum of Mulliken charges =   1.00000

 Dipole moment (field-independent basis, Debye):
    X=            -16.7122    Y=             -3.2535    Z=              0.1431  Tot=             17.0265
 Quadrupole moment (field-independent basis, Debye-Ang):
   XX=            -84.2809   YY=           -158.5097   ZZ=           -158.7282
   XY=            -70.9669   XZ=            -82.6020   YZ=             67.3394

 Normal termination of Gaussian 16 at Sat May 14 00:58:06 2022.
