 Gaussian 16, Revision C.01,
 Gaussian 16:  ES64L-G16RevC.01  3-Jul-2019

 ----------------------------------------------------------------------
 # B3LYP/6-31G* empiricaldispersion=gd3 guess=read geom=check nosymm in
 tegral(ultrafinegrid)
 ----------------------------------------------------------------------

 ------------------------------------------------------
 Candidate Structure: Conf:879 Charge calc in gas phase
 ------------------------------------------------------
 Structure from the checkpoint file:  "conf-879.chk"
 Charge =  1 Multiplicity = 1

                          Input orientation:
 ---------------------------------------------------------------------
 Center     Atomic      Atomic             Coordinates (Angstroms)
 Number     Number       Type             X           Y           Z
 ---------------------------------------------------------------------
      1          7           0       -5.356532   -1.014486    1.863553
      2          1           0       -6.104535   -0.808886    1.172095
      3          1           0       -4.787177   -1.787635    1.452814
      4          1           0       -5.774752   -1.285273    2.757249
      5          6           0       -4.386505    0.142321    1.973461
      6          1           0       -4.978402    1.059437    1.916484
      7          6           0       -3.498398   -0.050841    0.721993
      8          6           0       -3.570104    0.060653    3.266815
      9          1           0       -3.059648   -0.910019    3.302924
     10          1           0       -2.782067    0.817504    3.207222
     11          8           0       -3.344897   -1.195648    0.290068
     12          6           0       -4.399090    0.295310    4.541106
     13          1           0       -5.193642   -0.446226    4.675710
     14          1           0       -4.864758    1.288345    4.501928
     15          6           0       -3.545107    0.218873    5.798992
     16          8           0       -3.763004   -0.507742    6.736028
     17          8           0       -2.504609    1.079161    5.722656
     18          7           0       -2.978275    1.058028    0.182857
     19          1           0       -3.251410    1.954155    0.570149
     20          6           0       -2.496570    1.092619   -1.209787
     21          1           0       -2.672645    0.087515   -1.598511
     22          6           0       -0.978675    1.378269   -1.178333
     23          6           0       -3.291176    2.149332   -2.026528
     24          1           0       -3.356271    1.790003   -3.060435
     25          1           0       -2.695080    3.066859   -2.047440
     26          8           0       -0.527916    2.508463   -1.337062
     27          6           0       -4.651692    2.442767   -1.454523
     28          6           0       -5.063740    3.663704   -0.976268
     29          1           0       -4.557054    4.618588   -1.019283
     30          6           0       -5.714895    1.513211   -1.142680
     31          6           0       -6.731917    2.246019   -0.459888
     32          6           0       -5.898257    0.133664   -1.342373
     33          1           0       -5.152444   -0.453552   -1.868177
     34          7           0       -6.305755    3.553151   -0.378360
     35          1           0       -6.859214    4.328194   -0.043839
     36          6           0       -8.037090    0.267667   -0.161769
     37          1           0       -8.937042   -0.229285    0.189083
     38          6           0       -7.888744    1.637844    0.040526
     39          1           0       -8.652161    2.214537    0.555006
     40          6           0       -7.052460   -0.478432   -0.852489
     41          1           0       -7.218498   -1.536800   -1.038425
     42          7           0       -0.229662    0.290286   -0.903844
     43          1           0       -0.641313   -0.632425   -0.762545
     44          6           0        1.154589    0.346044   -0.460548
     45          1           0        1.344336    1.332286   -0.022569
     46          6           0        2.182775    0.161049   -1.586916
     47          6           0        1.314250   -0.774952    0.612659
     48          1           0        2.388593   -0.926499    0.768312
     49          8           0        3.337377   -0.164198   -1.310541
     50          6           0        0.651739   -0.373351    1.926919
     51          1           0        1.101165    0.535182    2.342689
     52          1           0        0.756403   -1.188109    2.648538
     53          1           0       -0.418384   -0.191868    1.767447
     54          8           0        0.676712   -1.955272    0.161391
     55          7           0        1.747024    0.361197   -2.855309
     56          1           0        0.899094    0.889505   -3.016369
     57          6           0        2.558451    0.024662   -4.011590
     58          1           0        3.550645   -0.232640   -3.637606
     59          6           0        2.656108    1.232650   -4.929484
     60          6           0        1.941772   -1.173272   -4.792224
     61          1           0        1.141156   -0.800286   -5.443297
     62          1           0        1.465193   -1.809128   -4.042716
     63          8           0        1.826553    2.112197   -4.992371
     64          6           0        2.941201   -2.001664   -5.614440
     65          1           0        2.371409   -2.707052   -6.235041
     66          1           0        3.490896   -1.355024   -6.309204
     67          6           0        3.966205   -2.799804   -4.782819
     68          1           0        4.589112   -3.390657   -5.463930
     69          1           0        4.641040   -2.116660   -4.260393
     70          7           0        3.377275   -3.703372   -3.778127
     71          1           0        2.613631   -4.258627   -4.149479
     72          7           0        4.223359   -2.788555   -1.811020
     73          1           0        4.079329   -1.992171   -1.199794
     74          1           0        5.116290   -2.838064   -2.276722
     75          7           0        1.968854   -3.279494   -1.880580
     76          1           0        1.233954   -3.548466   -2.533485
     77          1           0        1.256055   -2.458869   -0.489139
     78          6           0        3.122958   -3.246285   -2.477334
     79          8           0        3.746883    1.166561   -5.722814
     80          1           0        3.714529    1.937618   -6.322036
     81          1           0       -1.991453    0.991751    6.549354
 ---------------------------------------------------------------------

 SCF Done:  E(RB3LYP) =  -2054.03104807     A.U. after    1 cycles

 Alpha  occ. eigenvalues --  -19.30124 -19.27270 -19.26675 -19.24423 -19.21426
 Alpha  occ. eigenvalues --  -19.20582 -19.18963 -19.18561 -14.59915 -14.50059
 Alpha  occ. eigenvalues --  -14.49334 -14.44206 -14.43336 -14.41461 -14.39830
 Alpha  occ. eigenvalues --  -14.36048 -10.43671 -10.42983 -10.41028 -10.39419
 Alpha  occ. eigenvalues --  -10.37777 -10.36208 -10.35186 -10.34642 -10.34604
 Alpha  occ. eigenvalues --  -10.33852 -10.33493 -10.33193 -10.31106 -10.30844
 Alpha  occ. eigenvalues --  -10.30652 -10.30619 -10.30304 -10.30287 -10.30273
 Alpha  occ. eigenvalues --  -10.30248 -10.29670 -10.29644 -10.29215 -10.26742
 Alpha  occ. eigenvalues --  -10.26082 -10.24578  -1.20939  -1.19235  -1.18008
 Alpha  occ. eigenvalues --   -1.14077  -1.12574  -1.12181  -1.10946  -1.09353
 Alpha  occ. eigenvalues --   -1.09117  -1.06650  -1.06488  -1.04064  -1.01007
 Alpha  occ. eigenvalues --   -0.99564  -0.95829  -0.95325  -0.94809  -0.91733
 Alpha  occ. eigenvalues --   -0.91062  -0.89011  -0.87255  -0.86443  -0.85316
 Alpha  occ. eigenvalues --   -0.84357  -0.83042  -0.81329  -0.79059  -0.78394
 Alpha  occ. eigenvalues --   -0.76124  -0.74781  -0.74407  -0.73897  -0.72878
 Alpha  occ. eigenvalues --   -0.72280  -0.71756  -0.70857  -0.70177  -0.68345
 Alpha  occ. eigenvalues --   -0.67734  -0.67288  -0.66863  -0.65942  -0.65459
 Alpha  occ. eigenvalues --   -0.65285  -0.64386  -0.63794  -0.61653  -0.61398
 Alpha  occ. eigenvalues --   -0.60691  -0.59904  -0.59508  -0.59185  -0.58947
 Alpha  occ. eigenvalues --   -0.58294  -0.58046  -0.57684  -0.57177  -0.56754
 Alpha  occ. eigenvalues --   -0.55477  -0.55416  -0.55222  -0.54981  -0.54869
 Alpha  occ. eigenvalues --   -0.54681  -0.54396  -0.54035  -0.53477  -0.53145
 Alpha  occ. eigenvalues --   -0.52752  -0.52195  -0.52016  -0.51358  -0.51120
 Alpha  occ. eigenvalues --   -0.50754  -0.50626  -0.50589  -0.49835  -0.49784
 Alpha  occ. eigenvalues --   -0.49578  -0.49057  -0.48657  -0.48181  -0.47894
 Alpha  occ. eigenvalues --   -0.47407  -0.47124  -0.46353  -0.46073  -0.45596
 Alpha  occ. eigenvalues --   -0.45399  -0.44941  -0.44124  -0.44067  -0.43760
 Alpha  occ. eigenvalues --   -0.42942  -0.42738  -0.42262  -0.41770  -0.41132
 Alpha  occ. eigenvalues --   -0.41056  -0.40177  -0.39079  -0.39020  -0.38967
 Alpha  occ. eigenvalues --   -0.37880  -0.36183  -0.35097  -0.34728  -0.34478
 Alpha  occ. eigenvalues --   -0.34172  -0.33279  -0.32593  -0.32012  -0.31255
 Alpha  occ. eigenvalues --   -0.30986  -0.29138
 Alpha virt. eigenvalues --   -0.13606  -0.12889  -0.10678  -0.09631  -0.09176
 Alpha virt. eigenvalues --   -0.07738  -0.06411  -0.05704  -0.05238  -0.04532
 Alpha virt. eigenvalues --   -0.04446  -0.02718  -0.02506  -0.02208  -0.02171

 Mulliken charges:
               1
     1  N   -0.756937
     2  H    0.416569
     3  H    0.423217
     4  H    0.408393
     5  C   -0.128213
     6  H    0.208638
     7  C    0.665578
     8  C   -0.300963
     9  H    0.200446
    10  H    0.222089
    11  O   -0.535599
    12  C   -0.365907
    13  H    0.168064
    14  H    0.194097
    15  C    0.581716
    16  O   -0.422334
    17  O   -0.558592
    18  N   -0.578303
    19  H    0.348590
    20  C   -0.081123
    21  H    0.194812
    22  C    0.614624
    23  C   -0.385500
    24  H    0.183589
    25  H    0.206600
    26  O   -0.513238
    27  C    0.042010
    28  C   -0.000487
    29  H    0.188179
    30  C    0.074681
    31  C    0.311242
    32  C   -0.217877
    33  H    0.160857
    34  N   -0.680763
    35  H    0.350339
    36  C   -0.172162
    37  H    0.159617
    38  C   -0.166366
    39  H    0.158278
    40  C   -0.225346
    41  H    0.158318
    42  N   -0.615884
    43  H    0.361333
    44  C   -0.062943
    45  H    0.194544
    46  C    0.639411
    47  C    0.105143
    48  H    0.161852
    49  O   -0.548160
    50  C   -0.446642
    51  H    0.146594
    52  H    0.167084
    53  H    0.116784
    54  O   -0.688836
    55  N   -0.604106
    56  H    0.357495
    57  C   -0.044370
    58  H    0.201812
    59  C    0.587750
    60  C   -0.283156
    61  H    0.152874
    62  H    0.155038
    63  O   -0.458413
    64  C   -0.283050
    65  H    0.143873
    66  H    0.168887
    67  C   -0.158063
    68  H    0.168602
    69  H    0.157035
    70  N   -0.583922
    71  H    0.313644
    72  N   -0.735189
    73  H    0.381292
    74  H    0.336807
    75  N   -0.698478
    76  H    0.275144
    77  H    0.452258
    78  C    0.619415
    79  O   -0.559871
    80  H    0.422152
    81  H    0.433425
 Sum of Mulliken charges =   1.00000

 Dipole moment (field-independent basis, Debye):
    X=            -20.2606    Y=              2.3418    Z=              0.4584  Tot=             20.4007
 Quadrupole moment (field-independent basis, Debye-Ang):
   XX=            -84.7574   YY=           -221.2336   ZZ=           -180.5858
   XY=            -24.1595   XZ=            -55.3952   YZ=             23.2143

 Normal termination of Gaussian 16 at Sat May 14 00:57:44 2022.
