 Gaussian 16, Revision C.01,
 Gaussian 16:  ES64L-G16RevC.01  3-Jul-2019

 ----------------------------------------------------------------------
 # B3LYP/6-31G* empiricaldispersion=gd3 guess=read geom=check nosymm in
 tegral(ultrafinegrid)
 ----------------------------------------------------------------------

 ------------------------------------------------------
 Candidate Structure: Conf:883 Charge calc in gas phase
 ------------------------------------------------------
 Structure from the checkpoint file:  "conf-883.chk"
 Charge =  1 Multiplicity = 1

                          Input orientation:
 ---------------------------------------------------------------------
 Center     Atomic      Atomic             Coordinates (Angstroms)
 Number     Number       Type             X           Y           Z
 ---------------------------------------------------------------------
      1          7           0       -5.238927   -0.409141    3.647398
      2          1           0       -6.145586    0.062816    3.588021
      3          1           0       -5.208490   -1.176424    2.910274
      4          1           0       -5.122291   -0.786364    4.591381
      5          6           0       -4.082546    0.465028    3.202337
      6          1           0       -4.354830    1.514066    3.341329
      7          6           0       -3.930575    0.068737    1.710211
      8          6           0       -2.833196    0.088700    4.020050
      9          1           0       -3.068190    0.187957    5.086644
     10          1           0       -2.602116   -0.966950    3.826843
     11          8           0       -4.368872   -1.047292    1.382951
     12          6           0       -1.601165    0.957412    3.709446
     13          1           0       -1.823576    2.010600    3.924785
     14          1           0       -1.284828    0.894910    2.668894
     15          6           0       -0.405216    0.553169    4.554100
     16          8           0        0.690323    0.291883    4.126232
     17          8           0       -0.723331    0.523674    5.875103
     18          7           0       -3.305907    0.939981    0.935443
     19          1           0       -2.877635    1.783933    1.331641
     20          6           0       -2.647571    0.621909   -0.338656
     21          1           0       -2.627543   -0.462963   -0.463250
     22          6           0       -1.229213    1.207022   -0.139613
     23          6           0       -3.390347    1.282712   -1.524735
     24          1           0       -3.411718    2.365225   -1.346805
     25          1           0       -4.428037    0.931155   -1.497379
     26          8           0       -1.114940    2.191798    0.615905
     27          6           0       -2.776152    0.988041   -2.860851
     28          6           0       -3.173693    0.005443   -3.734970
     29          1           0       -3.975040   -0.715283   -3.641917
     30          6           0       -1.677589    1.680044   -3.492089
     31          6           0       -1.466498    1.063482   -4.753139
     32          6           0       -0.857429    2.756458   -3.114156
     33          1           0       -0.982561    3.233448   -2.145838
     34          7           0       -2.387895    0.041253   -4.868506
     35          1           0       -2.513550   -0.543185   -5.679236
     36          6           0        0.308191    2.574711   -5.247027
     37          1           0        1.078344    2.947871   -5.916280
     38          6           0       -0.485437    1.505077   -5.645961
     39          1           0       -0.363965    1.044076   -6.623505
     40          6           0        0.129692    3.188622   -3.989464
     41          1           0        0.776418    4.012680   -3.704545
     42          7           0       -0.233312    0.605823   -0.771496
     43          1           0       -0.380387   -0.076052   -1.524298
     44          6           0        1.138910    1.097413   -0.771470
     45          1           0        1.133200    2.177298   -0.954790
     46          6           0        1.841023    0.391050   -1.952637
     47          6           0        1.859855    0.876584    0.591253
     48          1           0        1.255306    1.371244    1.360378
     49          8           0        1.136805   -0.351396   -2.708098
     50          6           0        1.995985   -0.605743    0.956681
     51          1           0        1.019081   -1.106133    0.980950
     52          1           0        2.454561   -0.690939    1.945811
     53          1           0        2.634912   -1.117558    0.229134
     54          8           0        3.105095    1.531242    0.571501
     55          7           0        3.131072    0.654093   -2.029054
     56          1           0        3.517642    1.282966   -0.290508
     57          6           0        3.745670    0.006589   -3.153230
     58          1           0        3.353413   -1.016235   -3.270347
     59          6           0        5.239141   -0.138581   -2.961239
     60          6           0        3.467507    0.782805   -4.482582
     61          1           0        4.172932    1.615646   -4.576900
     62          1           0        2.470161    1.216005   -4.374770
     63          8           0        6.005821    0.534313   -2.329340
     64          6           0        3.500707   -0.096481   -5.737710
     65          1           0        3.440109    0.521161   -6.642087
     66          1           0        4.457820   -0.627861   -5.799405
     67          6           0        2.332437   -1.101708   -5.715782
     68          1           0        2.046382   -1.363496   -4.692126
     69          1           0        1.438737   -0.662170   -6.163183
     70          7           0        2.605156   -2.346164   -6.469110
     71          1           0        2.324688   -2.383478   -7.440176
     72          7           0        4.071947   -3.298850   -4.922757
     73          1           0        4.379874   -4.144658   -4.464814
     74          1           0        4.446151   -2.424144   -4.547437
     75          7           0        3.262366   -4.552466   -6.692956
     76          1           0        2.496217   -4.760642   -7.316106
     77          1           0        3.970969   -5.259902   -6.567051
     78          6           0        3.318793   -3.378820   -6.021460
     79          8           0        5.703486   -1.224748   -3.710768
     80          1           0        6.673743   -1.231394   -3.605400
     81          1           0        0.091360    0.282093    6.355554
 ---------------------------------------------------------------------

 SCF Done:  E(RB3LYP) =  -2053.98140379     A.U. after    1 cycles

 Alpha  occ. eigenvalues --  -19.27727 -19.26002 -19.25397 -19.21936 -19.19183
 Alpha  occ. eigenvalues --  -19.18113 -19.12486 -19.11942 -14.59564 -14.50325
 Alpha  occ. eigenvalues --  -14.49819 -14.48926 -14.47515 -14.44092 -14.40686
 Alpha  occ. eigenvalues --  -14.30400 -10.46079 -10.42090 -10.40331 -10.39965
 Alpha  occ. eigenvalues --  -10.36532 -10.34877 -10.33296 -10.31851 -10.31042
 Alpha  occ. eigenvalues --  -10.30022 -10.28210 -10.27540 -10.27306 -10.27100
 Alpha  occ. eigenvalues --  -10.26066 -10.25971 -10.24622 -10.24523 -10.24481
 Alpha  occ. eigenvalues --  -10.24212 -10.23919 -10.23897 -10.23665 -10.23518
 Alpha  occ. eigenvalues --  -10.23137 -10.18827  -1.18430  -1.17967  -1.15547
 Alpha  occ. eigenvalues --   -1.14424  -1.13128  -1.10016  -1.09602  -1.06892
 Alpha  occ. eigenvalues --   -1.04224  -1.03894  -1.03607  -1.02585  -1.02476
 Alpha  occ. eigenvalues --   -1.00701  -0.97033  -0.93623  -0.90589  -0.89349
 Alpha  occ. eigenvalues --   -0.88068  -0.86514  -0.85706  -0.82985  -0.80627
 Alpha  occ. eigenvalues --   -0.78973  -0.78661  -0.78130  -0.77206  -0.76586
 Alpha  occ. eigenvalues --   -0.74379  -0.74221  -0.73248  -0.72598  -0.71730
 Alpha  occ. eigenvalues --   -0.71703  -0.69367  -0.69040  -0.68900  -0.67872
 Alpha  occ. eigenvalues --   -0.67523  -0.65626  -0.64930  -0.64281  -0.63957
 Alpha  occ. eigenvalues --   -0.63168  -0.62769  -0.62542  -0.62149  -0.59867
 Alpha  occ. eigenvalues --   -0.59485  -0.59058  -0.57842  -0.57703  -0.57202
 Alpha  occ. eigenvalues --   -0.56046  -0.55811  -0.55106  -0.54927  -0.54911
 Alpha  occ. eigenvalues --   -0.54391  -0.53699  -0.53371  -0.53079  -0.52364
 Alpha  occ. eigenvalues --   -0.52088  -0.51651  -0.51263  -0.50774  -0.50157
 Alpha  occ. eigenvalues --   -0.49763  -0.49561  -0.49102  -0.48823  -0.48418
 Alpha  occ. eigenvalues --   -0.48198  -0.47918  -0.47359  -0.47062  -0.46622
 Alpha  occ. eigenvalues --   -0.46466  -0.46034  -0.45666  -0.45281  -0.44946
 Alpha  occ. eigenvalues --   -0.44263  -0.43777  -0.43386  -0.42909  -0.42774
 Alpha  occ. eigenvalues --   -0.41522  -0.41125  -0.40838  -0.40627  -0.40444
 Alpha  occ. eigenvalues --   -0.40128  -0.39777  -0.39077  -0.38961  -0.38298
 Alpha  occ. eigenvalues --   -0.38020  -0.37767  -0.37498  -0.37282  -0.35364
 Alpha  occ. eigenvalues --   -0.35355  -0.34289  -0.33027  -0.32491  -0.32152
 Alpha  occ. eigenvalues --   -0.30630  -0.27681  -0.27167  -0.26141  -0.26097
 Alpha  occ. eigenvalues --   -0.25653  -0.23448
 Alpha virt. eigenvalues --   -0.11275  -0.10691  -0.10329  -0.07429  -0.06862
 Alpha virt. eigenvalues --   -0.06562  -0.05632  -0.04315  -0.04067  -0.03195
 Alpha virt. eigenvalues --   -0.02864  -0.02541  -0.01843  -0.01026  -0.00506

 Mulliken charges:
               1
     1  N   -0.751503
     2  H    0.416322
     3  H    0.429137
     4  H    0.412290
     5  C   -0.119540
     6  H    0.212300
     7  C    0.640860
     8  C   -0.303029
     9  H    0.191082
    10  H    0.189071
    11  O   -0.543946
    12  C   -0.379065
    13  H    0.192966
    14  H    0.230957
    15  C    0.578679
    16  O   -0.414113
    17  O   -0.571169
    18  N   -0.585139
    19  H    0.371391
    20  C   -0.072885
    21  H    0.185459
    22  C    0.636094
    23  C   -0.346064
    24  H    0.167884
    25  H    0.156855
    26  O   -0.583061
    27  C    0.046259
    28  C    0.001930
    29  H    0.151618
    30  C    0.091874
    31  C    0.337563
    32  C   -0.209155
    33  H    0.148817
    34  N   -0.693180
    35  H    0.325203
    36  C   -0.156721
    37  H    0.129683
    38  C   -0.162172
    39  H    0.109199
    40  C   -0.133585
    41  H    0.142228
    42  N   -0.599041
    43  H    0.362020
    44  C   -0.062165
    45  H    0.172642
    46  C    0.554656
    47  C    0.153823
    48  H    0.134857
    49  O   -0.652491
    50  C   -0.449436
    51  H    0.101917
    52  H    0.160514
    53  H    0.137367
    54  O   -0.656355
    55  N   -0.574750
    56  H    0.414884
    57  C   -0.014440
    58  H    0.112198
    59  C    0.586864
    60  C   -0.300336
    61  H    0.157800
    62  H    0.204927
    63  O   -0.424757
    64  C   -0.293276
    65  H    0.148089
    66  H    0.141696
    67  C   -0.199415
    68  H    0.250004
    69  H    0.174961
    70  N   -0.590209
    71  H    0.355224
    72  N   -0.784129
    73  H    0.367366
    74  H    0.453390
    75  N   -0.770034
    76  H    0.374074
    77  H    0.375535
    78  C    0.800922
    79  O   -0.634178
    80  H    0.411278
    81  H    0.426615
 Sum of Mulliken charges =   1.00000

 Dipole moment (field-independent basis, Debye):
    X=            -12.5373    Y=            -15.2986    Z=             -8.3970  Tot=             21.4881
 Quadrupole moment (field-independent basis, Debye-Ang):
   XX=           -126.0520   YY=           -192.3902   ZZ=            -18.7297
   XY=            -54.8168   XZ=           -128.9652   YZ=             80.0757

 Normal termination of Gaussian 16 at Sat May 14 00:57:44 2022.
