 Gaussian 16, Revision C.01,
 Gaussian 16:  ES64L-G16RevC.01  3-Jul-2019

 ----------------------------------------------------------------------
 # B3LYP/6-31G* empiricaldispersion=gd3 guess=read geom=check nosymm in
 tegral(ultrafinegrid)
 ----------------------------------------------------------------------

 ------------------------------------------------------
 Candidate Structure: Conf:549 Charge calc in gas phase
 ------------------------------------------------------
 Structure from the checkpoint file:  "conf-549.chk"
 Charge =  1 Multiplicity = 1

                          Input orientation:
 ---------------------------------------------------------------------
 Center     Atomic      Atomic             Coordinates (Angstroms)
 Number     Number       Type             X           Y           Z
 ---------------------------------------------------------------------
      1          7           0       -5.251009    0.708949    4.073200
      2          1           0       -5.634304    0.306644    3.180473
      3          1           0       -4.952989   -0.080532    4.654628
      4          1           0       -5.915514    1.286119    4.605837
      5          6           0       -4.079868    1.534317    3.598840
      6          1           0       -4.503397    2.510392    3.340692
      7          6           0       -3.683679    0.856308    2.263441
      8          6           0       -2.997746    1.689598    4.669786
      9          1           0       -2.441256    0.752160    4.783664
     10          1           0       -2.286839    2.442567    4.314068
     11          8           0       -4.521361    0.109251    1.744371
     12          6           0       -3.538288    2.129192    6.051397
     13          1           0       -2.696988    2.384746    6.699011
     14          1           0       -4.093816    1.315487    6.529313
     15          6           0       -4.429116    3.349686    5.939631
     16          8           0       -4.076118    4.497545    5.958804
     17          8           0       -5.742836    2.982607    5.735441
     18          7           0       -2.487116    1.157460    1.767588
     19          1           0       -1.797882    1.712374    2.269169
     20          6           0       -2.059282    0.786702    0.426627
     21          1           0       -2.543622   -0.154087    0.154743
     22          6           0       -0.531411    0.691984    0.475374
     23          6           0       -2.428046    1.907814   -0.593706
     24          1           0       -2.120150    1.550632   -1.583370
     25          1           0       -1.810554    2.783103   -0.365154
     26          8           0        0.094362    1.356568    1.313373
     27          6           0       -3.874880    2.271991   -0.600470
     28          6           0       -4.443590    3.369633   -0.002935
     29          1           0       -3.966832    4.193983    0.511321
     30          6           0       -4.950383    1.522798   -1.200372
     31          6           0       -6.152880    2.222829   -0.924908
     32          6           0       -5.004055    0.337695   -1.951341
     33          1           0       -4.096203   -0.216677   -2.177345
     34          7           0       -5.820217    3.331692   -0.160873
     35          1           0       -6.431276    4.121231   -0.014435
     36          6           0       -7.418989    0.606137   -2.131278
     37          1           0       -8.366707    0.235713   -2.510722
     38          6           0       -7.396145    1.779473   -1.384998
     39          1           0       -8.307965    2.332329   -1.175972
     40          6           0       -6.236124   -0.108907   -2.411384
     41          1           0       -6.293850   -1.020066   -2.999216
     42          7           0        0.031169   -0.017011   -0.507952
     43          1           0       -0.523971   -0.558596   -1.169575
     44          6           0        1.463430   -0.091501   -0.794475
     45          1           0        2.005678   -0.087709    0.157653
     46          6           0        1.957659    1.135645   -1.617498
     47          6           0        1.686840   -1.426680   -1.556048
     48          1           0        2.587887   -1.306166   -2.164908
     49          8           0        2.756467    1.010561   -2.538330
     50          6           0        1.845311   -2.594289   -0.586109
     51          1           0        2.727336   -2.464655    0.051739
     52          1           0        1.951792   -3.526638   -1.147466
     53          1           0        0.960414   -2.683465    0.054774
     54          8           0        0.558297   -1.661527   -2.389100
     55          7           0        1.450240    2.333927   -1.220873
     56          1           0        0.957159    2.395481   -0.335329
     57          6           0        1.650551    3.575754   -1.950233
     58          1           0        2.703524    3.884063   -1.912846
     59          6           0        0.826312    4.652217   -1.261351
     60          6           0        1.231530    3.476942   -3.443559
     61          1           0        1.893322    2.725765   -3.879226
     62          1           0        1.452540    4.436607   -3.919700
     63          8           0       -0.018114    4.459887   -0.408932
     64          6           0       -0.238629    3.072642   -3.650260
     65          1           0       -0.626665    2.650007   -2.717688
     66          1           0       -0.859182    3.949367   -3.872729
     67          6           0       -0.434902    2.023796   -4.757711
     68          1           0       -1.510902    1.860614   -4.912969
     69          1           0       -0.041057    2.381469   -5.712185
     70          7           0        0.203363    0.759617   -4.438071
     71          1           0       -0.158311    0.230313   -3.656189
     72          7           0        1.805295    0.832802   -6.142190
     73          1           0        2.595503    0.354156   -6.555736
     74          1           0        2.045504    1.786324   -5.895644
     75          7           0        1.408263   -1.145687   -4.857703
     76          1           0        0.874159   -1.629442   -3.352969
     77          1           0        2.233910   -1.501841   -5.331192
     78          6           0        1.177176    0.100468   -5.136952
     79          8           0        1.126718    5.872138   -1.741314
     80          1           0        0.551266    6.514005   -1.284850
     81          1           0       -6.268114    3.805158    5.683062
 ---------------------------------------------------------------------

 SCF Done:  E(RB3LYP) =  -2054.03880419     A.U. after    1 cycles

 Alpha  occ. eigenvalues --  -19.34167 -19.28543 -19.27818 -19.25848 -19.23300
 Alpha  occ. eigenvalues --  -19.21474 -19.18748 -19.18663 -14.59933 -14.49106
 Alpha  occ. eigenvalues --  -14.46207 -14.45019 -14.42940 -14.41593 -14.41427
 Alpha  occ. eigenvalues --  -14.35482 -10.45967 -10.43189 -10.41088 -10.41080
 Alpha  occ. eigenvalues --  -10.38430 -10.35965 -10.35928 -10.35583 -10.34832
 Alpha  occ. eigenvalues --  -10.34004 -10.32025 -10.30511 -10.30448 -10.29674
 Alpha  occ. eigenvalues --  -10.29596 -10.29422 -10.28733 -10.26727 -10.26472
 Alpha  occ. eigenvalues --  -10.26391 -10.26110 -10.26076 -10.26059 -10.25776
 Alpha  occ. eigenvalues --  -10.25331 -10.23109  -1.24198  -1.19663  -1.18742
 Alpha  occ. eigenvalues --   -1.15632  -1.14054  -1.13344  -1.10892  -1.10457
 Alpha  occ. eigenvalues --   -1.06587  -1.05973  -1.05721  -1.04561  -1.01383
 Alpha  occ. eigenvalues --   -0.99644  -0.96217  -0.95741  -0.91521  -0.91235
 Alpha  occ. eigenvalues --   -0.90485  -0.88371  -0.87465  -0.85617  -0.83335
 Alpha  occ. eigenvalues --   -0.81998  -0.81067  -0.80737  -0.79887  -0.77422
 Alpha  occ. eigenvalues --   -0.76340  -0.75270  -0.75090  -0.74137  -0.72508
 Alpha  occ. eigenvalues --   -0.71205  -0.70383  -0.69872  -0.69003  -0.68352
 Alpha  occ. eigenvalues --   -0.67297  -0.67142  -0.66759  -0.65555  -0.64715
 Alpha  occ. eigenvalues --   -0.64032  -0.63462  -0.62214  -0.61741  -0.61592
 Alpha  occ. eigenvalues --   -0.61042  -0.60187  -0.59869  -0.59223  -0.58907
 Alpha  occ. eigenvalues --   -0.58419  -0.57782  -0.57681  -0.57140  -0.56382
 Alpha  occ. eigenvalues --   -0.56219  -0.56046  -0.55358  -0.54984  -0.54721
 Alpha  occ. eigenvalues --   -0.54301  -0.54177  -0.53539  -0.53391  -0.52952
 Alpha  occ. eigenvalues --   -0.52270  -0.51877  -0.51697  -0.51236  -0.50797
 Alpha  occ. eigenvalues --   -0.50719  -0.50200  -0.49981  -0.49647  -0.49429
 Alpha  occ. eigenvalues --   -0.49139  -0.48813  -0.48524  -0.48174  -0.47651
 Alpha  occ. eigenvalues --   -0.46475  -0.46102  -0.46062  -0.45631  -0.45316
 Alpha  occ. eigenvalues --   -0.45118  -0.44665  -0.43485  -0.42792  -0.42619
 Alpha  occ. eigenvalues --   -0.42306  -0.41791  -0.41504  -0.41115  -0.41106
 Alpha  occ. eigenvalues --   -0.40924  -0.40720  -0.40429  -0.39013  -0.38680
 Alpha  occ. eigenvalues --   -0.36668  -0.36344  -0.35931  -0.34723  -0.34204
 Alpha  occ. eigenvalues --   -0.33083  -0.32291  -0.32115  -0.31156  -0.29966
 Alpha  occ. eigenvalues --   -0.28693  -0.28417
 Alpha virt. eigenvalues --   -0.13611  -0.12084  -0.09933  -0.09115  -0.08173
 Alpha virt. eigenvalues --   -0.07762  -0.06489  -0.05135  -0.04856  -0.04076
 Alpha virt. eigenvalues --   -0.03171  -0.02898  -0.02234  -0.01682  -0.01117

 Mulliken charges:
               1
     1  N   -0.756065
     2  H    0.433886
     3  H    0.407836
     4  H    0.428910
     5  C   -0.133466
     6  H    0.232905
     7  C    0.679689
     8  C   -0.318764
     9  H    0.198980
    10  H    0.215045
    11  O   -0.535274
    12  C   -0.360697
    13  H    0.231327
    14  H    0.174094
    15  C    0.576659
    16  O   -0.399745
    17  O   -0.604068
    18  N   -0.607738
    19  H    0.367415
    20  C   -0.068541
    21  H    0.197426
    22  C    0.631756
    23  C   -0.401739
    24  H    0.164668
    25  H    0.201448
    26  O   -0.563454
    27  C    0.082096
    28  C   -0.039158
    29  H    0.154286
    30  C    0.113592
    31  C    0.295169
    32  C   -0.205346
    33  H    0.122244
    34  N   -0.692526
    35  H    0.334057
    36  C   -0.149146
    37  H    0.142372
    38  C   -0.166952
    39  H    0.132400
    40  C   -0.139088
    41  H    0.140703
    42  N   -0.609475
    43  H    0.369120
    44  C   -0.091446
    45  H    0.195064
    46  C    0.633438
    47  C    0.110073
    48  H    0.170702
    49  O   -0.519283
    50  C   -0.444389
    51  H    0.142710
    52  H    0.166605
    53  H    0.138294
    54  O   -0.697809
    55  N   -0.662071
    56  H    0.386028
    57  C   -0.008843
    58  H    0.194813
    59  C    0.582171
    60  C   -0.303172
    61  H    0.190878
    62  H    0.169249
    63  O   -0.476038
    64  C   -0.284106
    65  H    0.152510
    66  H    0.148464
    67  C   -0.156115
    68  H    0.158739
    69  H    0.173200
    70  N   -0.599478
    71  H    0.325625
    72  N   -0.753841
    73  H    0.336273
    74  H    0.338010
    75  N   -0.748807
    76  H    0.458637
    77  H    0.289279
    78  C    0.705084
    79  O   -0.556622
    80  H    0.422002
    81  H    0.437333
 Sum of Mulliken charges =   1.00000

 Dipole moment (field-independent basis, Debye):
    X=            -18.3322    Y=             10.8528    Z=             11.7374  Tot=             24.3232
 Quadrupole moment (field-independent basis, Debye-Ang):
   XX=           -118.7618   YY=           -200.7113   ZZ=           -137.4452
   XY=            -39.2809   XZ=            -93.9884   YZ=              1.1781

 Normal termination of Gaussian 16 at Sat May 14 00:58:06 2022.
