 Gaussian 16, Revision C.01,
 Gaussian 16:  ES64L-G16RevC.01  3-Jul-2019

 ----------------------------------------------------------------------
 # B3LYP/6-31G* empiricaldispersion=gd3 guess=read geom=check nosymm in
 tegral(ultrafinegrid)
 ----------------------------------------------------------------------

 ------------------------------------------------------
 Candidate Structure: Conf:684 Charge calc in gas phase
 ------------------------------------------------------
 Structure from the checkpoint file:  "conf-684.chk"
 Charge =  1 Multiplicity = 1

                          Input orientation:
 ---------------------------------------------------------------------
 Center     Atomic      Atomic             Coordinates (Angstroms)
 Number     Number       Type             X           Y           Z
 ---------------------------------------------------------------------
      1          7           0       -4.006798   -0.617402    4.552048
      2          1           0       -5.005154   -0.410917    4.450128
      3          1           0       -3.761888   -1.408621    3.889049
      4          1           0       -3.820623   -0.865105    5.527828
      5          6           0       -3.120170    0.500781    4.028696
      6          1           0       -3.650058    1.447755    4.110315
      7          6           0       -2.890598    0.072481    2.556643
      8          6           0       -1.826122    0.512455    4.870294
      9          1           0       -2.088761    0.845567    5.883131
     10          1           0       -1.459141   -0.519372    4.946942
     11          8           0       -2.994304   -1.139792    2.304767
     12          6           0       -0.670509    1.372108    4.331504
     13          1           0       -0.297842    0.994148    3.371488
     14          1           0        0.161699    1.335487    5.038960
     15          6           0       -1.038716    2.810641    4.055531
     16          8           0       -2.133754    3.182159    3.653750
     17          8           0       -0.019023    3.643804    4.262804
     18          7           0       -2.609751    1.047433    1.702520
     19          1           0       -2.451237    1.976524    2.090535
     20          6           0       -2.144591    0.814743    0.336754
     21          1           0       -2.281932   -0.248769    0.129206
     22          6           0       -0.637277    1.168422    0.304119
     23          6           0       -2.995608    1.647560   -0.668117
     24          1           0       -2.741107    2.709753   -0.561877
     25          1           0       -4.042536    1.538285   -0.356370
     26          8           0       -0.118596    1.761638    1.257791
     27          6           0       -2.810717    1.190443   -2.078799
     28          6           0       -2.081320    1.812277   -3.059957
     29          1           0       -1.532219    2.741437   -3.026789
     30          6           0       -3.248627   -0.074881   -2.627642
     31          6           0       -2.735512   -0.148313   -3.951208
     32          6           0       -3.992562   -1.153401   -2.121377
     33          1           0       -4.404907   -1.119307   -1.115145
     34          7           0       -2.058350    1.036463   -4.198219
     35          1           0       -1.336815    1.145643   -4.898602
     36          6           0       -3.670940   -2.320979   -4.237054
     37          1           0       -3.842477   -3.205567   -4.843393
     38          6           0       -2.942082   -1.261554   -4.767874
     39          1           0       -2.543127   -1.301106   -5.777486
     40          6           0       -4.192878   -2.267741   -2.929363
     41          1           0       -4.763585   -3.111317   -2.551126
     42          7           0        0.034447    0.787395   -0.796592
     43          1           0       -0.485543    0.487262   -1.616799
     44          6           0        1.443981    1.102166   -0.999253
     45          1           0        1.650098    2.080686   -0.549564
     46          6           0        1.699841    1.216958   -2.514317
     47          6           0        2.385586    0.073397   -0.269804
     48          1           0        2.070379    0.118541    0.787091
     49          8           0        0.792009    1.307993   -3.346648
     50          6           0        2.157681   -1.356418   -0.786815
     51          1           0        1.111723   -1.668304   -0.679624
     52          1           0        2.778061   -2.053888   -0.212935
     53          1           0        2.440331   -1.435542   -1.842276
     54          8           0        3.716652    0.477636   -0.405077
     55          7           0        3.010704    1.236622   -2.829307
     56          1           0        3.620035    0.897735   -2.058249
     57          6           0        3.468943    1.313974   -4.195011
     58          1           0        3.076269    2.218381   -4.669966
     59          6           0        2.995756    0.164057   -5.085144
     60          6           0        5.011213    1.342717   -4.199915
     61          1           0        5.349413    1.370584   -5.240649
     62          1           0        5.365128    0.393216   -3.773980
     63          8           0        2.836139    0.265976   -6.279559
     64          6           0        5.588828    2.535497   -3.399707
     65          1           0        6.008047    3.284022   -4.081410
     66          1           0        4.787121    3.039118   -2.846321
     67          6           0        6.691939    2.141012   -2.406214
     68          1           0        7.494704    1.618327   -2.937156
     69          1           0        7.128680    3.043652   -1.960937
     70          7           0        6.193832    1.263235   -1.344653
     71          1           0        5.273679    1.461076   -0.939847
     72          7           0        7.915170   -0.316752   -1.431275
     73          1           0        8.245983   -1.245131   -1.206924
     74          1           0        8.625395    0.400416   -1.491549
     75          7           0        5.832853   -0.809970   -0.438861
     76          1           0        4.733073   -0.440321   -0.329894
     77          1           0        6.216402   -1.651166   -0.029406
     78          6           0        6.643171    0.027598   -1.050250
     79          8           0        2.859929   -1.000126   -4.408258
     80          1           0        2.588560   -1.669852   -5.064249
     81          1           0       -0.299708    4.536690    3.981533
 ---------------------------------------------------------------------

 SCF Done:  E(RB3LYP) =  -2054.04001920     A.U. after    1 cycles

 Alpha  occ. eigenvalues --  -19.30234 -19.25591 -19.25335 -19.25045 -19.19491
 Alpha  occ. eigenvalues --  -19.19452 -19.17764 -19.13752 -14.59714 -14.47755
 Alpha  occ. eigenvalues --  -14.45936 -14.44310 -14.42976 -14.42729 -14.41685
 Alpha  occ. eigenvalues --  -14.40192 -10.43398 -10.42071 -10.40607 -10.39558
 Alpha  occ. eigenvalues --  -10.37571 -10.36609 -10.34409 -10.34138 -10.32340
 Alpha  occ. eigenvalues --  -10.31216 -10.31083 -10.29835 -10.28483 -10.28005
 Alpha  occ. eigenvalues --  -10.27635 -10.27520 -10.27170 -10.26676 -10.26551
 Alpha  occ. eigenvalues --  -10.24229 -10.24174 -10.24108 -10.24059 -10.23647
 Alpha  occ. eigenvalues --  -10.23470 -10.21988  -1.21490  -1.17910  -1.16251
 Alpha  occ. eigenvalues --   -1.13222  -1.12391  -1.11271  -1.09319  -1.09154
 Alpha  occ. eigenvalues --   -1.07201  -1.04604  -1.03009  -1.01070  -0.99361
 Alpha  occ. eigenvalues --   -0.98907  -0.97889  -0.96236  -0.93963  -0.89360
 Alpha  occ. eigenvalues --   -0.88455  -0.87127  -0.86217  -0.83424  -0.82487
 Alpha  occ. eigenvalues --   -0.80215  -0.79213  -0.78690  -0.77544  -0.76187
 Alpha  occ. eigenvalues --   -0.74946  -0.73613  -0.73302  -0.73040  -0.71405
 Alpha  occ. eigenvalues --   -0.70273  -0.69279  -0.68651  -0.67558  -0.67462
 Alpha  occ. eigenvalues --   -0.67011  -0.65506  -0.64940  -0.64531  -0.63839
 Alpha  occ. eigenvalues --   -0.63135  -0.62964  -0.62354  -0.61765  -0.60848
 Alpha  occ. eigenvalues --   -0.60214  -0.59127  -0.58666  -0.58148  -0.58011
 Alpha  occ. eigenvalues --   -0.57188  -0.56857  -0.55806  -0.55544  -0.55416
 Alpha  occ. eigenvalues --   -0.54589  -0.53990  -0.53718  -0.53416  -0.53379
 Alpha  occ. eigenvalues --   -0.52640  -0.52492  -0.52236  -0.51739  -0.51253
 Alpha  occ. eigenvalues --   -0.50746  -0.50535  -0.50129  -0.49704  -0.49511
 Alpha  occ. eigenvalues --   -0.49234  -0.48710  -0.48592  -0.48411  -0.48305
 Alpha  occ. eigenvalues --   -0.47936  -0.47329  -0.46798  -0.46559  -0.46013
 Alpha  occ. eigenvalues --   -0.45840  -0.45529  -0.45061  -0.44173  -0.44064
 Alpha  occ. eigenvalues --   -0.43540  -0.42625  -0.42507  -0.41878  -0.41764
 Alpha  occ. eigenvalues --   -0.41249  -0.40759  -0.40507  -0.39890  -0.39686
 Alpha  occ. eigenvalues --   -0.39121  -0.38800  -0.38323  -0.37709  -0.37375
 Alpha  occ. eigenvalues --   -0.36440  -0.34496  -0.33757  -0.33584  -0.33255
 Alpha  occ. eigenvalues --   -0.32688  -0.31630  -0.30769  -0.28818  -0.28015
 Alpha  occ. eigenvalues --   -0.27544  -0.25954
 Alpha virt. eigenvalues --   -0.11484  -0.10713  -0.09549  -0.06527  -0.05696
 Alpha virt. eigenvalues --   -0.05605  -0.05523  -0.04854  -0.03432  -0.02970
 Alpha virt. eigenvalues --   -0.02638  -0.02326  -0.01432  -0.00812  -0.00166

 Mulliken charges:
               1
     1  N   -0.753316
     2  H    0.417704
     3  H    0.428185
     4  H    0.410723
     5  C   -0.113826
     6  H    0.237608
     7  C    0.623997
     8  C   -0.300328
     9  H    0.180305
    10  H    0.179744
    11  O   -0.544743
    12  C   -0.391454
    13  H    0.254452
    14  H    0.203257
    15  C    0.631433
    16  O   -0.503280
    17  O   -0.533280
    18  N   -0.580023
    19  H    0.391051
    20  C   -0.106913
    21  H    0.212998
    22  C    0.621255
    23  C   -0.351860
    24  H    0.159906
    25  H    0.161707
    26  O   -0.557812
    27  C    0.016440
    28  C    0.026203
    29  H    0.162780
    30  C    0.090856
    31  C    0.295120
    32  C   -0.215112
    33  H    0.112745
    34  N   -0.659701
    35  H    0.352476
    36  C   -0.151958
    37  H    0.134588
    38  C   -0.161505
    39  H    0.137824
    40  C   -0.138002
    41  H    0.125998
    42  N   -0.603041
    43  H    0.377870
    44  C   -0.064911
    45  H    0.185266
    46  C    0.586784
    47  C    0.197295
    48  H    0.107764
    49  O   -0.564351
    50  C   -0.484831
    51  H    0.134582
    52  H    0.132682
    53  H    0.166603
    54  O   -0.739953
    55  N   -0.632742
    56  H    0.376190
    57  C   -0.009342
    58  H    0.183222
    59  C    0.590626
    60  C   -0.315243
    61  H    0.179114
    62  H    0.161934
    63  O   -0.464026
    64  C   -0.287356
    65  H    0.165207
    66  H    0.173158
    67  C   -0.156161
    68  H    0.163794
    69  H    0.169752
    70  N   -0.613020
    71  H    0.385171
    72  N   -0.759008
    73  H    0.355561
    74  H    0.360793
    75  N   -0.795344
    76  H    0.461085
    77  H    0.323403
    78  C    0.762268
    79  O   -0.563257
    80  H    0.415052
    81  H    0.431166
 Sum of Mulliken charges =   1.00000

 Dipole moment (field-independent basis, Debye):
    X=              2.4927    Y=              0.5982    Z=             14.0002  Tot=             14.2330
 Quadrupole moment (field-independent basis, Debye-Ang):
   XX=            -73.8749   YY=           -216.1115   ZZ=           -155.0875
   XY=              4.8584   XZ=            -83.4499   YZ=             -0.2530

 Normal termination of Gaussian 16 at Sat May 14 00:58:04 2022.
