 Gaussian 16, Revision C.01,
 Gaussian 16:  ES64L-G16RevC.01  3-Jul-2019

 -------------------------------------------------------------------
 # B3LYP/6-31G* guess=read geom=check nosymm integral(ultrafinegrid)
 -------------------------------------------------------------------

 ------------------------------------------------------
 Candidate Structure: Conf:602 Charge calc in gas phase
 ------------------------------------------------------
 Structure from the checkpoint file:  "conf-602.chk"
 Charge =  1 Multiplicity = 1

                          Input orientation:
 ---------------------------------------------------------------------
 Center     Atomic      Atomic             Coordinates (Angstroms)
 Number     Number       Type             X           Y           Z
 ---------------------------------------------------------------------
      1          7           0       -3.836455   -0.750703    4.677885
      2          1           0       -4.572122   -1.344516    4.299997
      3          1           0       -3.001344   -1.321903    4.803192
      4          1           0       -3.878469   -0.146977    6.430908
      5          6           0       -3.561056    0.405419    3.830938
      6          1           0       -4.519299    0.877835    3.586747
      7          6           0       -2.867054    0.042664    2.521695
      8          6           0       -2.679331    1.446976    4.566677
      9          1           0       -1.746182    0.964566    4.881473
     10          1           0       -2.391461    2.215664    3.840318
     11          8           0       -1.865553   -0.766128    2.657647
     12          6           0       -3.380862    2.131659    5.765782
     13          1           0       -4.462983    2.193960    5.583912
     14          1           0       -3.011870    3.154972    5.854728
     15          6           0       -3.143575    1.490457    7.142070
     16          8           0       -2.656721    2.109526    8.055618
     17          8           0       -3.516261    0.204640    7.280008
     18          7           0       -3.306619    0.565907    1.401687
     19          1           0       -4.148461    1.139882    1.486360
     20          6           0       -2.737801    0.525543    0.042509
     21          1           0       -3.006830   -0.437105   -0.407865
     22          6           0       -1.211022    0.685716    0.143976
     23          6           0       -3.358983    1.681713   -0.801055
     24          1           0       -3.026755    1.534292   -1.834061
     25          1           0       -2.911458    2.621762   -0.457768
     26          8           0       -0.717843    1.367457    1.030529
     27          6           0       -4.855351    1.749157   -0.716819
     28          6           0       -5.767362    1.116480   -1.531695
     29          1           0       -5.603117    0.508120   -2.411130
     30          6           0       -5.623476    2.450828    0.289581
     31          6           0       -6.995794    2.184120    0.024910
     32          6           0       -5.291550    3.287917    1.377196
     33          1           0       -4.257575    3.564235    1.575546
     34          7           0       -7.043854    1.370645   -1.089445
     35          1           0       -7.887750    1.063504   -1.550793
     36          6           0       -7.666153    3.516380    1.884696
     37          1           0       -8.442021    3.943114    2.512703
     38          6           0       -8.025610    2.709704    0.811793
     39          1           0       -9.068530    2.500877    0.591621
     40          6           0       -6.314390    3.806391    2.163117
     41          1           0       -6.072896    4.465251    2.991883
     42          7           0       -0.485563    0.016500   -0.800914
     43          1           0       -0.985737   -0.652801   -1.375121
     44          6           0        0.906326   -0.316665   -0.503148
     45          1           0        1.256268    0.473385    0.168982
     46          6           0        1.804589   -0.299558   -1.758650
     47          6           0        1.022167   -1.686473    0.220708
     48          1           0        1.088844   -2.477865   -0.533630
     49          8           0        2.788280   -1.029548   -1.830587
     50          6           0        2.218881   -1.753927    1.157279
     51          1           0        3.134805   -1.599257    0.582135
     52          1           0        2.286063   -2.737843    1.637070
     53          1           0        2.146882   -0.987415    1.936728
     54          8           0       -0.229073   -1.906498    0.951910
     55          1           0       -0.125995   -2.747675    1.427472
     56          7           0        1.435270    0.575580   -2.718886
     57          1           0        0.643701    1.194994   -2.584476
     58          6           0        2.241818    0.819606   -3.910901
     59          1           0        3.298291    0.864584   -3.624477
     60          6           0        1.802371    2.183075   -4.432337
     61          6           0        2.059824   -0.307360   -4.962324
     62          1           0        1.026744   -0.277775   -5.334457
     63          1           0        2.176820   -1.246502   -4.410300
     64          8           0        0.761540    2.723377   -4.114429
     65          6           0        3.058535   -0.284105   -6.126168
     66          1           0        2.942956    0.635355   -6.712174
     67          1           0        4.085667   -0.278895   -5.740423
     68          6           0        2.880427   -1.502430   -7.039539
     69          1           0        3.046655   -2.425038   -6.478818
     70          1           0        1.840011   -1.544066   -7.406270
     71          7           0        3.836301   -1.475430   -8.149083
     72          1           0        3.650814   -0.727954   -8.809092
     73          7           0        4.484372   -3.719081   -7.945374
     74          1           0        4.869010   -4.497615   -8.470228
     75          1           0        5.082956   -3.470810   -7.163328
     76          7           0        4.373052   -2.811851  -10.074754
     77          1           0        4.015903   -2.010187  -10.598753
     78          6           0        4.224818   -2.651261   -8.811885
     79          8           0        2.682799    2.713130   -5.293466
     80          1           0        2.316911    3.567546   -5.595355
     81          1           0       -1.253564   -0.990893    1.883442
 ---------------------------------------------------------------------

 SCF Done:  E(RB3LYP) =  -2053.88983240     A.U. after    1 cycles

 Alpha  occ. eigenvalues --  -19.36224 -19.30981 -19.29740 -19.26194 -19.24289
 Alpha  occ. eigenvalues --  -19.24281 -19.22017 -19.19013 -14.55429 -14.50339
 Alpha  occ. eigenvalues --  -14.49409 -14.47523 -14.46328 -14.40048 -14.38423
 Alpha  occ. eigenvalues --  -14.32996 -10.48687 -10.43366 -10.42266 -10.39694
 Alpha  occ. eigenvalues --  -10.39599 -10.38354 -10.37976 -10.37286 -10.35821
 Alpha  occ. eigenvalues --  -10.33775 -10.33722 -10.33625 -10.33034 -10.32426
 Alpha  occ. eigenvalues --  -10.31921 -10.30417 -10.30152 -10.29849 -10.29522
 Alpha  occ. eigenvalues --  -10.29296 -10.28877 -10.28824 -10.28502 -10.28330
 Alpha  occ. eigenvalues --  -10.27987 -10.26022  -1.26401  -1.20831  -1.18559
 Alpha  occ. eigenvalues --   -1.16956  -1.15340  -1.14112  -1.12359  -1.11864
 Alpha  occ. eigenvalues --   -1.09345  -1.07288  -1.06754  -1.04572  -1.02807
 Alpha  occ. eigenvalues --   -1.01989  -0.95644  -0.94609  -0.93557  -0.91154
 Alpha  occ. eigenvalues --   -0.90779  -0.89121  -0.88876  -0.88169  -0.85379
 Alpha  occ. eigenvalues --   -0.84476  -0.83867  -0.82792  -0.81517  -0.79806
 Alpha  occ. eigenvalues --   -0.79399  -0.75902  -0.74941  -0.74296  -0.74011
 Alpha  occ. eigenvalues --   -0.73241  -0.72510  -0.71409  -0.70238  -0.68903
 Alpha  occ. eigenvalues --   -0.68569  -0.67221  -0.67063  -0.66712  -0.66303
 Alpha  occ. eigenvalues --   -0.65477  -0.64960  -0.64701  -0.64411  -0.62746
 Alpha  occ. eigenvalues --   -0.60886  -0.60646  -0.60064  -0.59647  -0.59582
 Alpha  occ. eigenvalues --   -0.59266  -0.58928  -0.58740  -0.58035  -0.57419
 Alpha  occ. eigenvalues --   -0.56915  -0.56482  -0.56199  -0.55865  -0.55451
 Alpha  occ. eigenvalues --   -0.55281  -0.54625  -0.54294  -0.54002  -0.53540
 Alpha  occ. eigenvalues --   -0.53407  -0.53197  -0.52819  -0.52758  -0.52222
 Alpha  occ. eigenvalues --   -0.51807  -0.51301  -0.50763  -0.50512  -0.50064
 Alpha  occ. eigenvalues --   -0.49797  -0.49754  -0.49521  -0.49198  -0.49020
 Alpha  occ. eigenvalues --   -0.48862  -0.48477  -0.47339  -0.47111  -0.46607
 Alpha  occ. eigenvalues --   -0.46174  -0.45959  -0.45744  -0.45681  -0.44694
 Alpha  occ. eigenvalues --   -0.44568  -0.44220  -0.43784  -0.43410  -0.42351
 Alpha  occ. eigenvalues --   -0.42320  -0.41050  -0.40756  -0.40637  -0.39716
 Alpha  occ. eigenvalues --   -0.39471  -0.38783  -0.38011  -0.36918  -0.35826
 Alpha  occ. eigenvalues --   -0.35550  -0.33376  -0.32651  -0.31702  -0.31180
 Alpha  occ. eigenvalues --   -0.30031  -0.27380
 Alpha virt. eigenvalues --   -0.17643  -0.13588  -0.12290  -0.09501  -0.08944
 Alpha virt. eigenvalues --   -0.08468  -0.07466  -0.05940  -0.05497  -0.04791
 Alpha virt. eigenvalues --   -0.04286  -0.02657  -0.02285  -0.01941  -0.01561

 Mulliken charges:
               1
     1  N   -0.746359
     2  H    0.341775
     3  H    0.352176
     4  H    0.448051
     5  C   -0.079383
     6  H    0.189006
     7  C    0.655010
     8  C   -0.291557
     9  H    0.189833
    10  H    0.181917
    11  O   -0.593688
    12  C   -0.386486
    13  H    0.169498
    14  H    0.200380
    15  C    0.583047
    16  O   -0.428781
    17  O   -0.588433
    18  N   -0.589212
    19  H    0.396884
    20  C   -0.038725
    21  H    0.184217
    22  C    0.581921
    23  C   -0.395591
    24  H    0.188940
    25  H    0.203569
    26  O   -0.492994
    27  C    0.040967
    28  C    0.017154
    29  H    0.172795
    30  C    0.041928
    31  C    0.320965
    32  C   -0.250422
    33  H    0.143057
    34  N   -0.680203
    35  H    0.351645
    36  C   -0.149859
    37  H    0.160210
    38  C   -0.152651
    39  H    0.156596
    40  C   -0.137093
    41  H    0.153172
    42  N   -0.608197
    43  H    0.342915
    44  C   -0.102317
    45  H    0.229121
    46  C    0.624272
    47  C    0.144907
    48  H    0.173177
    49  O   -0.518738
    50  C   -0.487864
    51  H    0.218629
    52  H    0.159012
    53  H    0.169846
    54  O   -0.689776
    55  H    0.429580
    56  N   -0.626473
    57  H    0.358628
    58  C   -0.020950
    59  H    0.203151
    60  C    0.583014
    61  C   -0.279106
    62  H    0.141995
    63  H    0.177291
    64  O   -0.472399
    65  C   -0.269496
    66  H    0.150373
    67  H    0.158976
    68  C   -0.133400
    69  H    0.173481
    70  H    0.134480
    71  N   -0.595773
    72  H    0.309048
    73  N   -0.735815
    74  H    0.341621
    75  H    0.320456
    76  N   -0.620744
    77  H    0.264488
    78  C    0.548889
    79  O   -0.547600
    80  H    0.428492
    81  H    0.499529
 Sum of Mulliken charges =   1.00000

 Dipole moment (field-independent basis, Debye):
    X=            -15.9392    Y=             -0.0668    Z=             -3.6621  Tot=             16.3546
 Quadrupole moment (field-independent basis, Debye-Ang):
   XX=           -134.0735   YY=           -227.1555   ZZ=           -288.5911
   XY=             -1.8101   XZ=              5.7192   YZ=            -43.4998

 Normal termination of Gaussian 16 at Thu May 26 18:14:19 2022.
