 Gaussian 16, Revision C.01,
 Gaussian 16:  ES64L-G16RevC.01  3-Jul-2019

 -------------------------------------------------------------------
 # B3LYP/6-31G* guess=read geom=check nosymm integral(ultrafinegrid)
 -------------------------------------------------------------------

 ------------------------------------------------------
 Candidate Structure: Conf:736 Charge calc in gas phase
 ------------------------------------------------------
 Structure from the checkpoint file:  "conf-736.chk"
 Charge =  1 Multiplicity = 1

                          Input orientation:
 ---------------------------------------------------------------------
 Center     Atomic      Atomic             Coordinates (Angstroms)
 Number     Number       Type             X           Y           Z
 ---------------------------------------------------------------------
      1          7           0       -3.081987    0.045320    5.142717
      2          1           0       -3.330008   -0.923973    4.952883
      3          1           0       -2.140713    0.052279    5.532253
      4          1           0       -4.736401    0.912792    5.955304
      5          6           0       -3.172142    0.877802    3.951191
      6          1           0       -4.215626    0.846401    3.617180
      7          6           0       -2.290325    0.410999    2.792655
      8          6           0       -2.798625    2.349983    4.276350
      9          1           0       -1.717063    2.417275    4.446077
     10          1           0       -3.024024    2.968027    3.400119
     11          8           0       -1.144110   -0.060150    3.148369
     12          6           0       -3.539355    2.915838    5.508453
     13          1           0       -3.340629    3.988275    5.565636
     14          1           0       -3.158127    2.450762    6.423105
     15          6           0       -5.054718    2.728371    5.409421
     16          8           0       -5.501262    1.490115    5.735099
     17          8           0       -5.808128    3.585193    5.022484
     18          7           0       -2.769902    0.517289    1.570546
     19          1           0       -3.703083    0.918601    1.524058
     20          6           0       -2.199410    0.172256    0.245837
     21          1           0       -2.362860   -0.899241    0.086017
     22          6           0       -0.703508    0.505192    0.264316
     23          6           0       -2.955107    0.970905   -0.848260
     24          1           0       -2.748470    2.036221   -0.688769
     25          1           0       -4.031903    0.816853   -0.691816
     26          8           0       -0.321644    1.576484    0.732979
     27          6           0       -2.581568    0.548688   -2.238044
     28          6           0       -3.271192   -0.354603   -3.016885
     29          1           0       -4.187405   -0.890714   -2.806365
     30          6           0       -1.453206    0.997283   -3.023309
     31          6           0       -1.521819    0.313240   -4.266682
     32          6           0       -0.405677    1.914924   -2.811104
     33          1           0       -0.329273    2.468744   -1.879174
     34          7           0       -2.635511   -0.506326   -4.225262
     35          1           0       -2.979891   -1.059726   -4.995701
     36          6           0        0.444347    1.411196   -5.041001
     37          1           0        1.192444    1.587504   -5.807770
     38          6           0       -0.581381    0.507588   -5.284270
     39          1           0       -0.652248   -0.023418   -6.229374
     40          6           0        0.529625    2.109318   -3.818152
     41          1           0        1.341351    2.814482   -3.667319
     42          7           0        0.113371   -0.485079   -0.162382
     43          1           0       -0.278109   -1.232533   -0.723795
     44          6           0        1.572240   -0.337625   -0.112599
     45          1           0        1.823652    0.697444   -0.358021
     46          6           0        2.246761   -1.197008   -1.199386
     47          6           0        2.082138   -0.665899    1.315674
     48          1           0        1.903842   -1.724158    1.534671
     49          8           0        3.042603   -0.708750   -1.981871
     50          6           0        3.550030   -0.317691    1.519199
     51          1           0        4.206994   -0.915707    0.879879
     52          1           0        3.829550   -0.501410    2.560164
     53          1           0        3.735223    0.738634    1.290725
     54          8           0        1.263160    0.025529    2.297449
     55          1           0        1.302049    0.978478    2.089089
     56          7           0        1.871291   -2.511647   -1.221730
     57          1           0        1.286456   -2.901434   -0.496000
     58          6           0        2.376133   -3.423445   -2.247848
     59          1           0        2.483033   -2.832019   -3.163162
     60          6           0        1.377999   -4.532431   -2.551063
     61          6           0        3.768712   -4.011291   -1.916326
     62          1           0        4.433966   -3.160427   -1.745412
     63          1           0        4.126962   -4.524917   -2.815678
     64          8           0        1.542182   -5.368020   -3.404268
     65          6           0        3.788574   -4.982692   -0.727330
     66          1           0        3.212138   -4.567907    0.113893
     67          1           0        3.293802   -5.921706   -1.010931
     68          6           0        5.202522   -5.315448   -0.207567
     69          1           0        5.141754   -6.185364    0.456556
     70          1           0        5.859110   -5.610134   -1.033049
     71          7           0        5.846456   -4.240266    0.529874
     72          1           0        5.362075   -3.958336    1.373094
     73          7           0        6.845752   -2.178502    0.856577
     74          1           0        7.498701   -1.524013    0.435522
     75          1           0        7.210319   -2.508486    1.747025
     76          7           0        7.046758   -3.126507   -1.251626
     77          1           0        6.727420   -3.885821   -1.852114
     78          6           0        6.596213   -3.223843   -0.056050
     79          8           0        0.283277   -4.514493   -1.737429
     80          1           0       -0.255897   -5.285985   -1.999482
     81          1           0       -0.302261   -0.122605    2.555757
 ---------------------------------------------------------------------

 SCF Done:  E(RB3LYP) =  -2053.87987196     A.U. after    3 cycles

 Alpha  occ. eigenvalues --  -19.36032 -19.30485 -19.30474 -19.26385 -19.26165
 Alpha  occ. eigenvalues --  -19.23937 -19.22470 -19.20945 -14.56379 -14.50752
 Alpha  occ. eigenvalues --  -14.47605 -14.47598 -14.47446 -14.42250 -14.40564
 Alpha  occ. eigenvalues --  -14.34764 -10.49234 -10.43538 -10.42307 -10.40254
 Alpha  occ. eigenvalues --  -10.39626 -10.39496 -10.38593 -10.37702 -10.35819
 Alpha  occ. eigenvalues --  -10.34556 -10.34043 -10.33147 -10.32933 -10.32175
 Alpha  occ. eigenvalues --  -10.30885 -10.30209 -10.30206 -10.28864 -10.28434
 Alpha  occ. eigenvalues --  -10.27781 -10.27627 -10.27603 -10.27297 -10.27139
 Alpha  occ. eigenvalues --  -10.26615 -10.26346  -1.26207  -1.20900  -1.18699
 Alpha  occ. eigenvalues --   -1.17143  -1.16665  -1.14680  -1.12762  -1.11869
 Alpha  occ. eigenvalues --   -1.09177  -1.07512  -1.06940  -1.04682  -1.04167
 Alpha  occ. eigenvalues --   -1.03610  -0.95620  -0.95393  -0.92473  -0.91316
 Alpha  occ. eigenvalues --   -0.90991  -0.90418  -0.88681  -0.88309  -0.85378
 Alpha  occ. eigenvalues --   -0.84019  -0.82794  -0.82208  -0.81109  -0.80357
 Alpha  occ. eigenvalues --   -0.78774  -0.76809  -0.75966  -0.74732  -0.74422
 Alpha  occ. eigenvalues --   -0.72903  -0.72197  -0.71097  -0.70622  -0.68715
 Alpha  occ. eigenvalues --   -0.68418  -0.68188  -0.67587  -0.66522  -0.65743
 Alpha  occ. eigenvalues --   -0.65056  -0.64792  -0.64216  -0.63749  -0.63002
 Alpha  occ. eigenvalues --   -0.62682  -0.61510  -0.61123  -0.60647  -0.59923
 Alpha  occ. eigenvalues --   -0.59709  -0.58397  -0.58054  -0.57972  -0.57627
 Alpha  occ. eigenvalues --   -0.57182  -0.57006  -0.56561  -0.55827  -0.55551
 Alpha  occ. eigenvalues --   -0.55045  -0.54661  -0.54098  -0.53998  -0.53930
 Alpha  occ. eigenvalues --   -0.53306  -0.52566  -0.52233  -0.51974  -0.51740
 Alpha  occ. eigenvalues --   -0.51467  -0.51261  -0.51248  -0.50864  -0.50484
 Alpha  occ. eigenvalues --   -0.50212  -0.50122  -0.49872  -0.49741  -0.49509
 Alpha  occ. eigenvalues --   -0.48777  -0.48294  -0.47786  -0.47619  -0.47593
 Alpha  occ. eigenvalues --   -0.47377  -0.46768  -0.45850  -0.45636  -0.44746
 Alpha  occ. eigenvalues --   -0.43923  -0.43847  -0.43407  -0.42844  -0.42415
 Alpha  occ. eigenvalues --   -0.42332  -0.42001  -0.41980  -0.40206  -0.40128
 Alpha  occ. eigenvalues --   -0.39934  -0.38817  -0.38245  -0.36720  -0.36303
 Alpha  occ. eigenvalues --   -0.35423  -0.34534  -0.32846  -0.32371  -0.31139
 Alpha  occ. eigenvalues --   -0.29732  -0.29148
 Alpha virt. eigenvalues --   -0.18181  -0.13607  -0.10254  -0.09652  -0.09009
 Alpha virt. eigenvalues --   -0.08670  -0.07162  -0.05997  -0.05824  -0.05036
 Alpha virt. eigenvalues --   -0.04221  -0.03655  -0.03479  -0.02113  -0.01160

 Mulliken charges:
               1
     1  N   -0.730792
     2  H    0.338910
     3  H    0.344820
     4  H    0.439592
     5  C   -0.098982
     6  H    0.195267
     7  C    0.657415
     8  C   -0.290210
     9  H    0.177159
    10  H    0.183829
    11  O   -0.588372
    12  C   -0.365208
    13  H    0.204694
    14  H    0.175110
    15  C    0.575390
    16  O   -0.581347
    17  O   -0.425543
    18  N   -0.582597
    19  H    0.384380
    20  C   -0.010120
    21  H    0.184221
    22  C    0.604695
    23  C   -0.407416
    24  H    0.203258
    25  H    0.167504
    26  O   -0.543884
    27  C    0.033203
    28  C    0.004409
    29  H    0.162701
    30  C    0.081053
    31  C    0.305729
    32  C   -0.229566
    33  H    0.141669
    34  N   -0.680956
    35  H    0.345486
    36  C   -0.145193
    37  H    0.152009
    38  C   -0.158684
    39  H    0.145702
    40  C   -0.132126
    41  H    0.145881
    42  N   -0.614076
    43  H    0.358298
    44  C   -0.082663
    45  H    0.212725
    46  C    0.614213
    47  C    0.129679
    48  H    0.147615
    49  O   -0.478773
    50  C   -0.477464
    51  H    0.212625
    52  H    0.179031
    53  H    0.168492
    54  O   -0.656966
    55  H    0.433906
    56  N   -0.623451
    57  H    0.337797
    58  C   -0.064592
    59  H    0.224034
    60  C    0.595960
    61  C   -0.282624
    62  H    0.200805
    63  H    0.177961
    64  O   -0.437100
    65  C   -0.271839
    66  H    0.108017
    67  H    0.157368
    68  C   -0.156857
    69  H    0.163132
    70  H    0.170152
    71  N   -0.584819
    72  H    0.311448
    73  N   -0.761469
    74  H    0.344479
    75  H    0.321791
    76  N   -0.629914
    77  H    0.277894
    78  C    0.571752
    79  O   -0.600126
    80  H    0.424236
    81  H    0.496234
 Sum of Mulliken charges =   1.00000

 Dipole moment (field-independent basis, Debye):
    X=             -4.2465    Y=             -7.9448    Z=              5.9425  Tot=             10.7919
 Quadrupole moment (field-independent basis, Debye-Ang):
   XX=           -238.9993   YY=           -219.2840   ZZ=           -193.2395
   XY=             13.3849   XZ=             36.4130   YZ=             -5.8755

 Normal termination of Gaussian 16 at Thu May 26 18:14:51 2022.
