 Gaussian 16, Revision C.01,
 Gaussian 16:  ES64L-G16RevC.01  3-Jul-2019

 -------------------------------------------------------------------
 # B3LYP/6-31G* guess=read geom=check nosymm integral(ultrafinegrid)
 -------------------------------------------------------------------

 ------------------------------------------------------
 Candidate Structure: Conf:586 Charge calc in gas phase
 ------------------------------------------------------
 Structure from the checkpoint file:  "conf-586.chk"
 Charge =  1 Multiplicity = 1

                          Input orientation:
 ---------------------------------------------------------------------
 Center     Atomic      Atomic             Coordinates (Angstroms)
 Number     Number       Type             X           Y           Z
 ---------------------------------------------------------------------
      1          7           0       -4.661499    2.900882    0.428652
      2          1           0       -4.276947    2.503015   -0.448779
      3          1           0       -5.293497    2.178122    0.800011
      4          1           0       -5.184545    3.751920    0.205110
      5          6           0       -3.559562    3.142344    1.441929
      6          1           0       -2.819134    3.788203    0.944856
      7          6           0       -2.933332    1.746670    1.677345
      8          6           0       -4.102602    3.790137    2.732640
      9          1           0       -3.524318    4.701357    2.913623
     10          1           0       -5.144121    4.111030    2.604951
     11          8           0       -4.001347    0.846496    1.904138
     12          6           0       -3.995139    2.870108    3.964168
     13          1           0       -4.747684    2.075659    3.922454
     14          1           0       -4.150338    3.432113    4.887009
     15          6           0       -2.633364    2.207910    4.052171
     16          8           0       -1.998837    2.045926    5.056812
     17          8           0       -2.100379    1.795510    2.845411
     18          7           0       -2.164781    1.384319    0.535555
     19          1           0       -1.534060    2.147287    0.277797
     20          6           0       -1.399977    0.131532    0.587981
     21          1           0       -1.509678   -0.330768    1.577174
     22          6           0        0.094931    0.474291    0.393399
     23          6           0       -1.883199   -0.878314   -0.504329
     24          1           0       -1.435963   -1.859486   -0.305532
     25          1           0       -1.490620   -0.556118   -1.474355
     26          8           0        0.467490    1.643525    0.272216
     27          6           0       -3.378257   -1.019647   -0.567206
     28          6           0       -4.158365   -1.964485    0.067597
     29          1           0       -3.861216   -2.797544    0.691142
     30          6           0       -4.292132   -0.187626   -1.315847
     31          6           0       -5.606742   -0.671932   -1.072120
     32          6           0       -4.122372    0.921370   -2.169548
     33          1           0       -3.126166    1.285912   -2.404310
     34          7           0       -5.491520   -1.753783   -0.224594
     35          1           0       -6.250705   -2.345702    0.078602
     36          6           0       -6.546634    1.035172   -2.451063
     37          1           0       -7.405526    1.517242   -2.908561
     38          6           0       -6.742529   -0.066558   -1.626586
     39          1           0       -7.740306   -0.448820   -1.429689
     40          6           0       -5.248546    1.521082   -2.727714
     41          1           0       -5.129379    2.359153   -3.409105
     42          7           0        0.961332   -0.566151    0.349209
     43          1           0        0.597212   -1.501810    0.209676
     44          6           0        2.267621   -0.362428   -0.255222
     45          1           0        2.773674    0.452263    0.271244
     46          6           0        2.067210    0.062343   -1.737075
     47          6           0        3.106111   -1.647375   -0.107938
     48          1           0        3.997749   -1.536580   -0.744121
     49          8           0        1.011137   -0.124372   -2.330990
     50          6           0        3.545294   -1.906856    1.333105
     51          1           0        4.203289   -1.108765    1.693840
     52          1           0        4.105274   -2.847658    1.395562
     53          1           0        2.681109   -1.973810    2.000863
     54          8           0        2.275863   -2.696371   -0.609187
     55          1           0        2.740819   -3.539153   -0.491130
     56          7           0        3.126688    0.697370   -2.297551
     57          1           0        4.007500    0.810854   -1.808583
     58          6           0        3.070988    1.241043   -3.646489
     59          1           0        2.688332    0.473403   -4.328728
     60          6           0        4.498373    1.578664   -4.050458
     61          6           0        2.131344    2.471108   -3.742933
     62          1           0        1.154001    2.133989   -3.386594
     63          1           0        2.018978    2.736932   -4.799873
     64          8           0        5.449371    1.544302   -3.297912
     65          6           0        2.606248    3.692345   -2.939052
     66          1           0        3.079932    3.373398   -2.000625
     67          1           0        3.375390    4.237013   -3.499321
     68          6           0        1.476817    4.673078   -2.598490
     69          1           0        1.913270    5.622413   -2.252335
     70          1           0        0.904986    4.886550   -3.512546
     71          7           0        0.592876    4.103198   -1.582863
     72          1           0        0.974170    3.360103   -1.008009
     73          7           0       -1.155153    5.641451   -1.853398
     74          1           0       -1.709069    6.301917   -1.325041
     75          1           0       -0.622041    6.069228   -2.596678
     76          7           0       -1.035503    4.432353    0.112969
     77          1           0       -0.406644    3.808162    0.619542
     78          6           0       -0.514327    4.714692   -1.047459
     79          8           0        4.577630    1.948474   -5.340306
     80          1           0        5.513600    2.160309   -5.522177
     81          1           0       -3.848280    0.028822    1.387515
 ---------------------------------------------------------------------

 SCF Done:  E(RB3LYP) =  -2053.91395795     A.U. after    1 cycles

 Alpha  occ. eigenvalues --  -19.28486 -19.27790 -19.27475 -19.23969 -19.23068
 Alpha  occ. eigenvalues --  -19.22105 -19.22018 -19.19919 -14.57648 -14.48379
 Alpha  occ. eigenvalues --  -14.45095 -14.44516 -14.43297 -14.42669 -14.42623
 Alpha  occ. eigenvalues --  -14.36081 -10.44258 -10.40978 -10.40359 -10.38715
 Alpha  occ. eigenvalues --  -10.37133 -10.36635 -10.36086 -10.33663 -10.33132
 Alpha  occ. eigenvalues --  -10.32557 -10.32469 -10.32379 -10.32288 -10.31729
 Alpha  occ. eigenvalues --  -10.30882 -10.29845 -10.29324 -10.29012 -10.28925
 Alpha  occ. eigenvalues --  -10.28903 -10.28846 -10.28746 -10.28628 -10.27466
 Alpha  occ. eigenvalues --  -10.27049 -10.26258  -1.20659  -1.19547  -1.15398
 Alpha  occ. eigenvalues --   -1.14035  -1.11982  -1.11893  -1.11231  -1.10605
 Alpha  occ. eigenvalues --   -1.10011  -1.08332  -1.05665  -1.01852  -1.01494
 Alpha  occ. eigenvalues --   -1.01070  -0.96756  -0.94234  -0.92299  -0.91973
 Alpha  occ. eigenvalues --   -0.90641  -0.88550  -0.87218  -0.85831  -0.84032
 Alpha  occ. eigenvalues --   -0.83447  -0.82937  -0.81657  -0.79191  -0.77596
 Alpha  occ. eigenvalues --   -0.75678  -0.74876  -0.74379  -0.72460  -0.71503
 Alpha  occ. eigenvalues --   -0.71341  -0.69841  -0.69664  -0.69371  -0.68765
 Alpha  occ. eigenvalues --   -0.68675  -0.67805  -0.66839  -0.66012  -0.65520
 Alpha  occ. eigenvalues --   -0.65338  -0.63816  -0.63516  -0.63222  -0.62004
 Alpha  occ. eigenvalues --   -0.60463  -0.60015  -0.58833  -0.58562  -0.58173
 Alpha  occ. eigenvalues --   -0.57493  -0.57211  -0.56699  -0.56634  -0.56566
 Alpha  occ. eigenvalues --   -0.56102  -0.55928  -0.55256  -0.54697  -0.54058
 Alpha  occ. eigenvalues --   -0.53833  -0.53661  -0.53209  -0.52933  -0.52678
 Alpha  occ. eigenvalues --   -0.52582  -0.51933  -0.51625  -0.51368  -0.51092
 Alpha  occ. eigenvalues --   -0.50490  -0.49958  -0.49817  -0.49567  -0.49296
 Alpha  occ. eigenvalues --   -0.48906  -0.48725  -0.48414  -0.48099  -0.47897
 Alpha  occ. eigenvalues --   -0.47417  -0.46715  -0.46482  -0.45812  -0.45680
 Alpha  occ. eigenvalues --   -0.45400  -0.45145  -0.44745  -0.44485  -0.43878
 Alpha  occ. eigenvalues --   -0.43704  -0.43407  -0.42704  -0.42459  -0.41869
 Alpha  occ. eigenvalues --   -0.41110  -0.40655  -0.39540  -0.37864  -0.37056
 Alpha  occ. eigenvalues --   -0.36818  -0.36548  -0.36431  -0.35756  -0.35251
 Alpha  occ. eigenvalues --   -0.34475  -0.34008  -0.33310  -0.33235  -0.32889
 Alpha  occ. eigenvalues --   -0.30884  -0.29872
 Alpha virt. eigenvalues --   -0.11992  -0.08813  -0.08241  -0.08044  -0.07888
 Alpha virt. eigenvalues --   -0.06976  -0.05926  -0.04349  -0.03328  -0.02697
 Alpha virt. eigenvalues --   -0.02496  -0.01997  -0.01329  -0.00816  -0.00478

 Mulliken charges:
               1
     1  N   -0.749714
     2  H    0.427675
     3  H    0.412061
     4  H    0.402949
     5  C   -0.090609
     6  H    0.270938
     7  C    0.633956
     8  C   -0.329399
     9  H    0.207829
    10  H    0.158215
    11  O   -0.678490
    12  C   -0.372970
    13  H    0.202589
    14  H    0.204229
    15  C    0.617430
    16  O   -0.417078
    17  O   -0.473531
    18  N   -0.647851
    19  H    0.366366
    20  C   -0.088580
    21  H    0.186580
    22  C    0.654101
    23  C   -0.362268
    24  H    0.155711
    25  H    0.207687
    26  O   -0.554191
    27  C    0.022292
    28  C   -0.017054
    29  H    0.178640
    30  C    0.115634
    31  C    0.301774
    32  C   -0.271478
    33  H    0.163200
    34  N   -0.670501
    35  H    0.348151
    36  C   -0.160397
    37  H    0.153531
    38  C   -0.165608
    39  H    0.153509
    40  C   -0.165735
    41  H    0.150669
    42  N   -0.600684
    43  H    0.365286
    44  C   -0.074716
    45  H    0.183487
    46  C    0.648252
    47  C    0.119841
    48  H    0.144271
    49  O   -0.529867
    50  C   -0.466646
    51  H    0.163378
    52  H    0.157664
    53  H    0.171883
    54  O   -0.633910
    55  H    0.410731
    56  N   -0.629657
    57  H    0.354311
    58  C   -0.032362
    59  H    0.204306
    60  C    0.587109
    61  C   -0.280194
    62  H    0.194364
    63  H    0.166992
    64  O   -0.466432
    65  C   -0.312205
    66  H    0.152979
    67  H    0.162633
    68  C   -0.129041
    69  H    0.158455
    70  H    0.151754
    71  N   -0.627023
    72  H    0.366297
    73  N   -0.748261
    74  H    0.337560
    75  H    0.338495
    76  N   -0.737765
    77  H    0.306437
    78  C    0.632627
    79  O   -0.560503
    80  H    0.427640
    81  H    0.442251
 Sum of Mulliken charges =   1.00000

 Dipole moment (field-independent basis, Debye):
    X=            -11.6513    Y=              7.4215    Z=             -4.3616  Tot=             14.4864
 Quadrupole moment (field-independent basis, Debye-Ang):
   XX=           -103.6099   YY=           -163.9665   ZZ=           -233.9389
   XY=            -28.4727   XZ=            -27.0270   YZ=            -26.4019

 Normal termination of Gaussian 16 at Thu May 26 18:14:31 2022.
