 Gaussian 16, Revision C.01,
 Gaussian 16:  ES64L-G16RevC.01  3-Jul-2019

 -------------------------------------------------------------------
 # B3LYP/6-31G* guess=read geom=check nosymm integral(ultrafinegrid)
 -------------------------------------------------------------------

 ------------------------------------------------------
 Candidate Structure: Conf:674 Charge calc in gas phase
 ------------------------------------------------------
 Structure from the checkpoint file:  "conf-674.chk"
 Charge =  1 Multiplicity = 1

                          Input orientation:
 ---------------------------------------------------------------------
 Center     Atomic      Atomic             Coordinates (Angstroms)
 Number     Number       Type             X           Y           Z
 ---------------------------------------------------------------------
      1          7           0       -4.058951   -1.173440    3.583491
      2          1           0       -4.681186   -1.426062    2.780240
      3          1           0       -3.341966   -1.906552    3.661845
      4          1           0       -4.617581   -1.151598    4.443225
      5          6           0       -3.380489    0.163851    3.310946
      6          1           0       -4.183358    0.848412    3.036552
      7          6           0       -2.506907   -0.059034    2.089403
      8          6           0       -2.604572    0.680688    4.526634
      9          1           0       -3.287169    0.813253    5.375713
     10          1           0       -1.835703   -0.046105    4.815446
     11          8           0       -1.808865   -1.221385    2.175801
     12          6           0       -1.935222    2.039954    4.206682
     13          1           0       -1.207706    1.929949    3.395342
     14          1           0       -1.405205    2.378045    5.099546
     15          6           0       -2.988976    3.105702    3.877085
     16          8           0       -3.362428    3.217609    2.584899
     17          8           0       -3.516177    3.767828    4.737308
     18          7           0       -2.578017    0.788175    1.153700
     19          1           0       -2.891239    2.590123    1.989425
     20          6           0       -2.002287    0.495580   -0.155584
     21          1           0       -1.982569   -0.594262   -0.297453
     22          6           0       -0.548519    0.992480   -0.130614
     23          6           0       -2.912861    1.116041   -1.251908
     24          1           0       -2.730632    0.561386   -2.181777
     25          1           0       -2.590246    2.143405   -1.448336
     26          8           0       -0.233681    2.014994    0.472960
     27          6           0       -4.369761    1.093114   -0.858481
     28          6           0       -5.210389    2.175632   -0.937446
     29          1           0       -5.011599    3.164904   -1.326500
     30          6           0       -5.138296    0.042127   -0.226446
     31          6           0       -6.429746    0.579362    0.064241
     32          6           0       -4.871153   -1.280617    0.175409
     33          1           0       -3.926307   -1.757352   -0.071882
     34          7           0       -6.445900    1.869911   -0.404204
     35          1           0       -7.224518    2.508705   -0.340673
     36          6           0       -7.105277   -1.431641    1.165287
     37          1           0       -7.854044   -2.021234    1.686274
     38          6           0       -7.413537   -0.141542    0.752206
     39          1           0       -8.387004    0.294100    0.959421
     40          6           0       -5.841420   -2.001373    0.878068
     41          1           0       -5.659853   -3.045882    1.124993
     42          7           0        0.346493    0.152412   -0.718354
     43          1           0       -0.012158   -0.674500   -1.179905
     44          6           0        1.740563    0.097447   -0.293052
     45          1           0        1.929839    1.037468    0.232051
     46          6           0        2.683876   -0.026778   -1.511761
     47          6           0        1.943835   -1.085343    0.674622
     48          1           0        1.873020   -2.018771    0.104938
     49          8           0        3.267676   -1.078572   -1.762951
     50          6           0        3.281607   -1.021766    1.399306
     51          1           0        4.097945   -1.060465    0.674718
     52          1           0        3.399662   -1.878667    2.074683
     53          1           0        3.366462   -0.098296    1.983213
     54          8           0        0.847411   -1.046463    1.641591
     55          1           0        1.175807   -1.468488    2.450817
     56          7           0        2.780206    1.090314   -2.267128
     57          1           0        2.315683    1.949499   -1.962905
     58          6           0        3.725904    1.155822   -3.367567
     59          1           0        3.648625    0.231809   -3.948433
     60          6           0        5.160653    1.226795   -2.828852
     61          6           0        3.416033    2.358572   -4.284565
     62          1           0        2.382306    2.238145   -4.626534
     63          1           0        4.057899    2.287865   -5.167704
     64          8           0        5.475480    1.508379   -1.695813
     65          6           0        3.586898    3.729589   -3.592406
     66          1           0        3.617405    3.601306   -2.507031
     67          1           0        4.554375    4.171876   -3.858707
     68          6           0        2.500959    4.766236   -3.950807
     69          1           0        2.639340    5.656983   -3.319770
     70          1           0        2.644792    5.103832   -4.981818
     71          7           0        1.117266    4.292840   -3.888794
     72          1           0        0.572455    4.382415   -4.732900
     73          7           0        1.174867    3.684093   -1.623379
     74          1           0        0.577708    3.392937   -0.849456
     75          1           0        1.681630    4.535795   -1.400469
     76          7           0       -0.738471    3.221683   -2.849552
     77          1           0       -1.111795    3.218964   -3.801010
     78          6           0        0.442551    3.739113   -2.820359
     79          8           0        6.050560    0.966304   -3.811091
     80          1           0        6.939574    1.042545   -3.415093
     81          1           0       -0.912331   -1.175928    1.735609
 ---------------------------------------------------------------------

 SCF Done:  E(RB3LYP) =  -2053.88346877     A.U. after    1 cycles

 Alpha  occ. eigenvalues --  -19.31479 -19.27633 -19.26270 -19.26217 -19.21908
 Alpha  occ. eigenvalues --  -19.20809 -19.20607 -19.19308 -14.60646 -14.47246
 Alpha  occ. eigenvalues --  -14.46472 -14.45227 -14.42974 -14.42863 -14.41797
 Alpha  occ. eigenvalues --  -14.35769 -10.41998 -10.39788 -10.39711 -10.39254
 Alpha  occ. eigenvalues --  -10.38524 -10.36576 -10.35850 -10.34319 -10.33708
 Alpha  occ. eigenvalues --  -10.33650 -10.32541 -10.31834 -10.30981 -10.30887
 Alpha  occ. eigenvalues --  -10.30544 -10.30536 -10.29424 -10.28999 -10.28956
 Alpha  occ. eigenvalues --  -10.28802 -10.28446 -10.28138 -10.27544 -10.26828
 Alpha  occ. eigenvalues --  -10.26767 -10.26333  -1.20376  -1.17139  -1.16977
 Alpha  occ. eigenvalues --   -1.14779  -1.14136  -1.13415  -1.11193  -1.08930
 Alpha  occ. eigenvalues --   -1.08184  -1.07313  -1.05076  -1.04398  -1.02828
 Alpha  occ. eigenvalues --   -0.99839  -0.96155  -0.94470  -0.93912  -0.91665
 Alpha  occ. eigenvalues --   -0.90158  -0.88310  -0.86997  -0.86434  -0.84452
 Alpha  occ. eigenvalues --   -0.83519  -0.82224  -0.81673  -0.79557  -0.78200
 Alpha  occ. eigenvalues --   -0.75455  -0.75051  -0.74711  -0.72230  -0.72113
 Alpha  occ. eigenvalues --   -0.71638  -0.71070  -0.69898  -0.69443  -0.68968
 Alpha  occ. eigenvalues --   -0.68727  -0.68047  -0.66871  -0.66195  -0.64993
 Alpha  occ. eigenvalues --   -0.64865  -0.63628  -0.63396  -0.62304  -0.62101
 Alpha  occ. eigenvalues --   -0.61756  -0.60550  -0.58915  -0.58330  -0.58160
 Alpha  occ. eigenvalues --   -0.57803  -0.57559  -0.57069  -0.56890  -0.56138
 Alpha  occ. eigenvalues --   -0.56074  -0.55061  -0.54759  -0.54146  -0.53598
 Alpha  occ. eigenvalues --   -0.53318  -0.53183  -0.52927  -0.52870  -0.52736
 Alpha  occ. eigenvalues --   -0.52383  -0.52003  -0.51560  -0.51499  -0.51228
 Alpha  occ. eigenvalues --   -0.50452  -0.50251  -0.50192  -0.49964  -0.49226
 Alpha  occ. eigenvalues --   -0.48517  -0.48140  -0.47846  -0.47711  -0.47347
 Alpha  occ. eigenvalues --   -0.47341  -0.47024  -0.46918  -0.46398  -0.45979
 Alpha  occ. eigenvalues --   -0.45050  -0.44852  -0.44683  -0.44385  -0.44168
 Alpha  occ. eigenvalues --   -0.43761  -0.42901  -0.42614  -0.42072  -0.41364
 Alpha  occ. eigenvalues --   -0.40536  -0.39631  -0.39283  -0.38480  -0.38408
 Alpha  occ. eigenvalues --   -0.36805  -0.36324  -0.35397  -0.34506  -0.34487
 Alpha  occ. eigenvalues --   -0.34274  -0.33718  -0.33098  -0.32469  -0.32170
 Alpha  occ. eigenvalues --   -0.29824  -0.29477
 Alpha virt. eigenvalues --   -0.13640  -0.11327  -0.10106  -0.08963  -0.08377
 Alpha virt. eigenvalues --   -0.07231  -0.06573  -0.05612  -0.05128  -0.04106
 Alpha virt. eigenvalues --   -0.02800  -0.02521  -0.02106  -0.01744  -0.01374

 Mulliken charges:
               1
     1  N   -0.756740
     2  H    0.414587
     3  H    0.418546
     4  H    0.414617
     5  C   -0.105217
     6  H    0.246108
     7  C    0.549214
     8  C   -0.292820
     9  H    0.187611
    10  H    0.171316
    11  O   -0.684880
    12  C   -0.385158
    13  H    0.193733
    14  H    0.205420
    15  C    0.573730
    16  O   -0.585202
    17  O   -0.430057
    18  N   -0.421490
    19  H    0.448360
    20  C   -0.118025
    21  H    0.129646
    22  C    0.663323
    23  C   -0.370079
    24  H    0.160393
    25  H    0.222307
    26  O   -0.537594
    27  C    0.091450
    28  C    0.013551
    29  H    0.181455
    30  C    0.086295
    31  C    0.318879
    32  C   -0.240839
    33  H    0.138861
    34  N   -0.679497
    35  H    0.347555
    36  C   -0.158374
    37  H    0.149893
    38  C   -0.155931
    39  H    0.154271
    40  C   -0.230856
    41  H    0.144658
    42  N   -0.590311
    43  H    0.339659
    44  C   -0.101733
    45  H    0.198153
    46  C    0.641483
    47  C    0.156962
    48  H    0.164191
    49  O   -0.531249
    50  C   -0.506712
    51  H    0.218499
    52  H    0.153206
    53  H    0.167329
    54  O   -0.681981
    55  H    0.416831
    56  N   -0.634321
    57  H    0.415809
    58  C   -0.055322
    59  H    0.196777
    60  C    0.611108
    61  C   -0.290877
    62  H    0.165405
    63  H    0.176814
    64  O   -0.468734
    65  C   -0.297427
    66  H    0.163926
    67  H    0.162394
    68  C   -0.144173
    69  H    0.156434
    70  H    0.164452
    71  N   -0.602241
    72  H    0.330537
    73  N   -0.810438
    74  H    0.385983
    75  H    0.334308
    76  N   -0.669075
    77  H    0.267639
    78  C    0.596285
    79  O   -0.566302
    80  H    0.419782
    81  H    0.473910
 Sum of Mulliken charges =   1.00000

 Dipole moment (field-independent basis, Debye):
    X=            -10.2769    Y=             -1.1606    Z=              4.5178  Tot=             11.2860
 Quadrupole moment (field-independent basis, Debye-Ang):
   XX=           -142.7111   YY=           -219.4723   ZZ=           -172.0571
   XY=             31.4941   XZ=            -42.8284   YZ=            -64.0848

 Normal termination of Gaussian 16 at Thu May 26 18:14:29 2022.
