 Gaussian 16, Revision C.01,
 Gaussian 16:  ES64L-G16RevC.01  3-Jul-2019

 -------------------------------------------------------------------
 # B3LYP/6-31G* guess=read geom=check nosymm integral(ultrafinegrid)
 -------------------------------------------------------------------

 ------------------------------------------------------
 Candidate Structure: Conf:474 Charge calc in gas phase
 ------------------------------------------------------
 Structure from the checkpoint file:  "conf-474.chk"
 Charge =  1 Multiplicity = 1

                          Input orientation:
 ---------------------------------------------------------------------
 Center     Atomic      Atomic             Coordinates (Angstroms)
 Number     Number       Type             X           Y           Z
 ---------------------------------------------------------------------
      1          7           0       -3.121328   -0.402044    4.390503
      2          1           0       -3.291714   -1.329375    4.001897
      3          1           0       -1.398465   -0.245907    4.348744
      4          1           0       -3.652784   -0.314723    5.254980
      5          6           0       -3.535718    0.624131    3.417906
      6          1           0       -4.630569    0.655436    3.295167
      7          6           0       -2.982169    0.192286    2.043092
      8          6           0       -3.084042    2.030481    3.889902
      9          1           0       -3.171709    2.743720    3.063437
     10          1           0       -3.792801    2.379260    4.649052
     11          8           0       -2.501719   -0.925599    1.868247
     12          6           0       -1.662918    2.130300    4.502374
     13          1           0       -1.677944    1.739864    5.524853
     14          1           0       -1.378097    3.183485    4.552104
     15          6           0       -0.575224    1.396211    3.727095
     16          8           0       -0.516381    0.068952    3.952165
     17          8           0        0.195497    1.932280    2.956607
     18          7           0       -3.090897    1.083960    1.016837
     19          1           0       -3.423108    2.025955    1.174655
     20          6           0       -2.636368    0.740174   -0.330594
     21          1           0       -2.796620   -0.332724   -0.459929
     22          6           0       -1.133099    1.040329   -0.390223
     23          6           0       -3.387290    1.519953   -1.425110
     24          1           0       -3.172880    2.589627   -1.318854
     25          1           0       -4.460523    1.378105   -1.243380
     26          8           0       -0.621091    2.099941   -0.583932
     27          6           0       -3.003207    1.039555   -2.793639
     28          6           0       -2.248843    1.717579   -3.723165
     29          1           0       -1.814623    2.706696   -3.667423
     30          6           0       -3.337538   -0.236840   -3.382940
     31          6           0       -2.747924   -0.261438   -4.675640
     32          6           0       -4.083040   -1.351808   -2.956169
     33          1           0       -4.569351   -1.360510   -1.983077
     34          7           0       -2.092576    0.943369   -4.849109
     35          1           0       -1.607198    1.227872   -5.686317
     36          6           0       -3.610386   -2.444648   -5.082775
     37          1           0       -3.730371   -3.311295   -5.725877
     38          6           0       -2.874588   -1.356761   -5.535984
     39          1           0       -2.419144   -1.357578   -6.522302
     40          6           0       -4.210742   -2.441997   -3.806765
     41          1           0       -4.787201   -3.306134   -3.489997
     42          7           0       -0.241380   -0.157627   -0.111970
     43          1           0       -0.077523   -0.632949   -1.034988
     44          6           0        1.148128    0.167093    0.355199
     45          1           0        1.098705    1.074929    0.959196
     46          6           0        1.964213    0.314071   -0.935740
     47          6           0        1.631640   -1.050828    1.225083
     48          1           0        1.962915   -1.840378    0.540667
     49          8           0        1.541309   -0.238306   -1.959099
     50          6           0        2.769079   -0.656415    2.162815
     51          1           0        3.652963   -0.321423    1.610152
     52          1           0        3.057685   -1.525279    2.760887
     53          1           0        2.453015    0.146621    2.837467
     54          8           0        0.516628   -1.598739    1.905080
     55          1           0        0.306061   -1.055617    2.695830
     56          7           0        3.117976    0.984726   -0.846186
     57          1           0        3.412034    1.409147    0.028467
     58          6           0        4.087625    1.079254   -1.936929
     59          1           0        4.079609    0.136590   -2.492690
     60          6           0        5.443618    1.255258   -1.256432
     61          6           0        3.741329    2.241982   -2.902487
     62          1           0        3.795764    3.186295   -2.344943
     63          1           0        2.690518    2.095690   -3.181133
     64          8           0        5.569058    1.613779   -0.103158
     65          6           0        4.607137    2.316168   -4.166317
     66          1           0        5.650957    2.515340   -3.907604
     67          1           0        4.586641    1.348886   -4.687832
     68          6           0        4.126611    3.420902   -5.123219
     69          1           0        3.100776    3.218911   -5.455823
     70          1           0        4.099782    4.377007   -4.591924
     71          7           0        4.949641    3.575597   -6.323658
     72          1           0        4.848538    2.806731   -6.976797
     73          7           0        6.482453    5.009356   -5.282110
     74          1           0        7.431814    5.360731   -5.357053
     75          1           0        5.809550    5.767760   -5.345783
     76          7           0        7.279871    3.578132   -6.921002
     77          1           0        7.031051    2.757651   -7.477351
     78          6           0        6.283832    4.002789   -6.235985
     79          8           0        6.466156    0.982014   -2.075544
     80          1           0        7.294077    1.157295   -1.586220
     81          1           0       -0.661183   -0.822343    0.580044
 ---------------------------------------------------------------------

 SCF Done:  E(RB3LYP) =  -2053.91280888     A.U. after    3 cycles

 Alpha  occ. eigenvalues --  -19.31131 -19.29792 -19.28718 -19.25691 -19.25370
 Alpha  occ. eigenvalues --  -19.24393 -19.24372 -19.24356 -14.55972 -14.50543
 Alpha  occ. eigenvalues --  -14.48043 -14.46713 -14.46626 -14.40791 -14.39216
 Alpha  occ. eigenvalues --  -14.33661 -10.46364 -10.42780 -10.42664 -10.42417
 Alpha  occ. eigenvalues --  -10.41357 -10.37643 -10.36681 -10.36314 -10.36056
 Alpha  occ. eigenvalues --  -10.34456 -10.33100 -10.32873 -10.31390 -10.31320
 Alpha  occ. eigenvalues --  -10.31147 -10.30207 -10.29239 -10.28541 -10.27837
 Alpha  occ. eigenvalues --  -10.27725 -10.27032 -10.26835 -10.26791 -10.26224
 Alpha  occ. eigenvalues --  -10.26166 -10.25944  -1.22698  -1.20920  -1.19910
 Alpha  occ. eigenvalues --   -1.17778  -1.16525  -1.13581  -1.12059  -1.11693
 Alpha  occ. eigenvalues --   -1.09546  -1.06729  -1.06539  -1.04598  -1.03087
 Alpha  occ. eigenvalues --   -1.02786  -0.94246  -0.93170  -0.91825  -0.90973
 Alpha  occ. eigenvalues --   -0.90601  -0.89459  -0.88224  -0.86816  -0.83385
 Alpha  occ. eigenvalues --   -0.83229  -0.82132  -0.81613  -0.80417  -0.78136
 Alpha  occ. eigenvalues --   -0.76484  -0.75440  -0.74513  -0.72446  -0.72288
 Alpha  occ. eigenvalues --   -0.71674  -0.71224  -0.70515  -0.70399  -0.69848
 Alpha  occ. eigenvalues --   -0.67751  -0.67657  -0.67123  -0.65333  -0.65294
 Alpha  occ. eigenvalues --   -0.64352  -0.63700  -0.63224  -0.62517  -0.62105
 Alpha  occ. eigenvalues --   -0.61948  -0.60699  -0.59837  -0.59734  -0.59418
 Alpha  occ. eigenvalues --   -0.58964  -0.58246  -0.57636  -0.56963  -0.56812
 Alpha  occ. eigenvalues --   -0.56554  -0.56102  -0.56011  -0.55302  -0.54884
 Alpha  occ. eigenvalues --   -0.54802  -0.54360  -0.54221  -0.54000  -0.53842
 Alpha  occ. eigenvalues --   -0.53325  -0.52928  -0.51893  -0.51615  -0.51462
 Alpha  occ. eigenvalues --   -0.51277  -0.51157  -0.50994  -0.50900  -0.50009
 Alpha  occ. eigenvalues --   -0.49737  -0.49701  -0.49116  -0.48966  -0.48831
 Alpha  occ. eigenvalues --   -0.48659  -0.47813  -0.47622  -0.47431  -0.47001
 Alpha  occ. eigenvalues --   -0.46683  -0.46612  -0.45485  -0.43779  -0.43593
 Alpha  occ. eigenvalues --   -0.43411  -0.43153  -0.42588  -0.42016  -0.41759
 Alpha  occ. eigenvalues --   -0.41739  -0.41415  -0.41087  -0.40304  -0.39726
 Alpha  occ. eigenvalues --   -0.39540  -0.38831  -0.38280  -0.37757  -0.37531
 Alpha  occ. eigenvalues --   -0.37297  -0.35891  -0.31836  -0.30909  -0.30500
 Alpha  occ. eigenvalues --   -0.29008  -0.28012
 Alpha virt. eigenvalues --   -0.17306  -0.12341  -0.10229  -0.09639  -0.09416
 Alpha virt. eigenvalues --   -0.09010  -0.05951  -0.05503  -0.04180  -0.03501
 Alpha virt. eigenvalues --   -0.02522  -0.01688  -0.01515  -0.01211  -0.00300

 Mulliken charges:
               1
     1  N   -0.775340
     2  H    0.362709
     3  H    0.469880
     4  H    0.343802
     5  C   -0.088695
     6  H    0.190899
     7  C    0.629488
     8  C   -0.296410
     9  H    0.159395
    10  H    0.186250
    11  O   -0.521143
    12  C   -0.359813
    13  H    0.185577
    14  H    0.202733
    15  C    0.593092
    16  O   -0.623248
    17  O   -0.469002
    18  N   -0.613916
    19  H    0.356676
    20  C   -0.051019
    21  H    0.209218
    22  C    0.614906
    23  C   -0.377980
    24  H    0.173907
    25  H    0.182155
    26  O   -0.367955
    27  C    0.028413
    28  C    0.013900
    29  H    0.168006
    30  C    0.081416
    31  C    0.314094
    32  C   -0.220210
    33  H    0.120410
    34  N   -0.683484
    35  H    0.341526
    36  C   -0.149141
    37  H    0.147316
    38  C   -0.155615
    39  H    0.142763
    40  C   -0.135497
    41  H    0.140891
    42  N   -0.735200
    43  H    0.419119
    44  C   -0.136397
    45  H    0.241615
    46  C    0.659270
    47  C    0.131751
    48  H    0.171865
    49  O   -0.544289
    50  C   -0.499931
    51  H    0.167718
    52  H    0.192213
    53  H    0.181925
    54  O   -0.659130
    55  H    0.450683
    56  N   -0.613222
    57  H    0.371859
    58  C   -0.047005
    59  H    0.205546
    60  C    0.593485
    61  C   -0.273800
    62  H    0.158245
    63  H    0.165703
    64  O   -0.464903
    65  C   -0.272405
    66  H    0.186303
    67  H    0.138573
    68  C   -0.137698
    69  H    0.139896
    70  H    0.156427
    71  N   -0.581310
    72  H    0.311191
    73  N   -0.741558
    74  H    0.342296
    75  H    0.323694
    76  N   -0.621577
    77  H    0.266154
    78  C    0.543559
    79  O   -0.544949
    80  H    0.433856
    81  H    0.449476
 Sum of Mulliken charges =   1.00000

 Dipole moment (field-independent basis, Debye):
    X=             -6.6909    Y=              4.8505    Z=              2.6622  Tot=              8.6823
 Quadrupole moment (field-independent basis, Debye-Ang):
   XX=           -192.2369   YY=           -224.3011   ZZ=           -171.0512
   XY=             -9.5949   XZ=            -24.0448   YZ=              2.5677

 Normal termination of Gaussian 16 at Thu May 26 18:13:48 2022.
