 Gaussian 16, Revision C.01,
 Gaussian 16:  ES64L-G16RevC.01  3-Jul-2019

 -------------------------------------------------------------------
 # B3LYP/6-31G* guess=read geom=check nosymm integral(ultrafinegrid)
 -------------------------------------------------------------------

 ------------------------------------------------------
 Candidate Structure: Conf:796 Charge calc in gas phase
 ------------------------------------------------------
 Structure from the checkpoint file:  "conf-796.chk"
 Charge =  1 Multiplicity = 1

                          Input orientation:
 ---------------------------------------------------------------------
 Center     Atomic      Atomic             Coordinates (Angstroms)
 Number     Number       Type             X           Y           Z
 ---------------------------------------------------------------------
      1          7           0       -5.333148    1.789128    3.532204
      2          1           0       -5.485532    2.535685    2.856861
      3          1           0       -6.033641    1.069042    3.363745
      4          1           0       -4.956617    2.679452    5.307492
      5          6           0       -3.979902    1.252397    3.460239
      6          1           0       -3.291654    2.071692    3.695840
      7          6           0       -3.590267    0.712796    2.092144
      8          6           0       -3.773859    0.120988    4.506295
      9          1           0       -4.311597   -0.777256    4.178618
     10          1           0       -2.708045   -0.131561    4.533281
     11          8           0       -4.518572    0.030921    1.479685
     12          6           0       -4.249177    0.497949    5.926905
     13          1           0       -3.929091   -0.288436    6.613977
     14          1           0       -5.342473    0.548440    5.956286
     15          6           0       -3.647014    1.816099    6.419154
     16          8           0       -4.238622    2.933547    5.929958
     17          8           0       -2.691554    1.879656    7.150029
     18          7           0       -2.382026    0.899382    1.638482
     19          1           0       -1.696440    1.414837    2.216363
     20          6           0       -1.683423    0.280007    0.501007
     21          1           0       -1.979443   -0.772884    0.442117
     22          6           0       -0.188181    0.386961    0.907513
     23          6           0       -1.958506    0.994883   -0.850570
     24          1           0       -1.334267    0.497376   -1.604190
     25          1           0       -1.595296    2.025879   -0.776436
     26          8           0        0.123881    1.147720    1.831292
     27          6           0       -3.399891    0.977643   -1.259880
     28          6           0       -4.213859    2.073400   -1.432446
     29          1           0       -3.976729    3.125109   -1.342715
     30          6           0       -4.218679   -0.188799   -1.534294
     31          6           0       -5.521227    0.290700   -1.863417
     32          6           0       -3.983068   -1.583324   -1.564216
     33          1           0       -2.995036   -1.990210   -1.363325
     34          7           0       -5.479983    1.667478   -1.787058
     35          1           0       -6.238360    2.286849   -2.034141
     36          6           0       -6.308255   -1.931588   -2.209087
     37          1           0       -7.101589   -2.625147   -2.469830
     38          6           0       -6.572498   -0.568282   -2.201727
     39          1           0       -7.555849   -0.184747   -2.457522
     40          6           0       -5.027893   -2.434622   -1.895391
     41          1           0       -4.855835   -3.505912   -1.928241
     42          7           0        0.662753   -0.333992    0.176919
     43          1           0        0.360194   -0.941576   -0.581516
     44          6           0        2.098946   -0.387372    0.417312
     45          1           0        2.433899    0.607091    0.732208
     46          6           0        2.707422   -0.793433   -0.938247
     47          6           0        2.435700   -1.429772    1.540197
     48          1           0        2.268801   -2.428084    1.120171
     49          8           0        2.042983   -1.480897   -1.715124
     50          6           0        3.876720   -1.307200    2.035341
     51          1           0        4.607774   -1.491811    1.241855
     52          1           0        4.045827   -2.038260    2.830572
     53          1           0        4.063318   -0.307635    2.451054
     54          8           0        1.503455   -1.330504    2.602943
     55          1           0        1.599502   -0.454481    3.013553
     56          7           0        3.964996   -0.375667   -1.193510
     57          1           0        4.472715    0.154142   -0.498373
     58          6           0        4.682911   -0.790059   -2.400355
     59          1           0        4.371070   -1.817499   -2.620824
     60          6           0        6.190397   -0.835951   -2.170049
     61          6           0        4.342629    0.073875   -3.635170
     62          1           0        3.266272   -0.034599   -3.811639
     63          1           0        4.858041   -0.372553   -4.492692
     64          8           0        6.986768   -1.101540   -3.035464
     65          6           0        4.717996    1.554414   -3.506134
     66          1           0        4.292972    1.968987   -2.581710
     67          1           0        5.807230    1.668951   -3.434988
     68          6           0        4.206262    2.374388   -4.700871
     69          1           0        4.605120    1.943786   -5.627421
     70          1           0        3.114480    2.302292   -4.754707
     71          7           0        4.595023    3.786974   -4.649849
     72          1           0        5.269475    4.066908   -5.349117
     73          7           0        2.751744    4.423766   -3.356968
     74          1           0        2.207449    5.241346   -3.099237
     75          1           0        3.173763    4.000584   -2.535381
     76          7           0        3.673816    6.001096   -4.783287
     77          1           0        4.310543    6.113491   -5.574750
     78          6           0        3.702256    4.806082   -4.320029
     79          8           0        6.546630   -0.541220   -0.892973
     80          1           0        7.521458   -0.593917   -0.854248
     81          1           0       -4.324057   -0.194931    0.530341
 ---------------------------------------------------------------------

 SCF Done:  E(RB3LYP) =  -2053.89237957     A.U. after    3 cycles

 Alpha  occ. eigenvalues --  -19.37009 -19.29428 -19.26046 -19.25513 -19.24089
 Alpha  occ. eigenvalues --  -19.22973 -19.22717 -19.20615 -14.55183 -14.50280
 Alpha  occ. eigenvalues --  -14.48895 -14.47342 -14.47108 -14.40842 -14.39775
 Alpha  occ. eigenvalues --  -14.33685 -10.48771 -10.42707 -10.41444 -10.39962
 Alpha  occ. eigenvalues --  -10.39397 -10.39310 -10.38411 -10.34720 -10.34546
 Alpha  occ. eigenvalues --  -10.34405 -10.34125 -10.33698 -10.33554 -10.33330
 Alpha  occ. eigenvalues --  -10.32737 -10.31295 -10.31100 -10.30717 -10.30277
 Alpha  occ. eigenvalues --  -10.29971 -10.29671 -10.29441 -10.28927 -10.27318
 Alpha  occ. eigenvalues --  -10.27206 -10.26300  -1.27058  -1.19952  -1.17768
 Alpha  occ. eigenvalues --   -1.16811  -1.14760  -1.12130  -1.11614  -1.10942
 Alpha  occ. eigenvalues --   -1.10283  -1.08853  -1.05381  -1.04589  -1.03450
 Alpha  occ. eigenvalues --   -1.02908  -0.96124  -0.94956  -0.94339  -0.91534
 Alpha  occ. eigenvalues --   -0.90449  -0.89773  -0.89100  -0.87131  -0.86038
 Alpha  occ. eigenvalues --   -0.85252  -0.83862  -0.82803  -0.81465  -0.80476
 Alpha  occ. eigenvalues --   -0.78989  -0.75500  -0.75119  -0.74228  -0.73989
 Alpha  occ. eigenvalues --   -0.72361  -0.71660  -0.71083  -0.70777  -0.70016
 Alpha  occ. eigenvalues --   -0.68861  -0.68303  -0.67460  -0.66642  -0.65538
 Alpha  occ. eigenvalues --   -0.65487  -0.64820  -0.64584  -0.62919  -0.62193
 Alpha  occ. eigenvalues --   -0.61605  -0.60665  -0.60411  -0.59931  -0.59833
 Alpha  occ. eigenvalues --   -0.59198  -0.58502  -0.58046  -0.57407  -0.57000
 Alpha  occ. eigenvalues --   -0.56702  -0.56620  -0.56423  -0.55904  -0.55442
 Alpha  occ. eigenvalues --   -0.55242  -0.54836  -0.54432  -0.54125  -0.54003
 Alpha  occ. eigenvalues --   -0.53834  -0.53328  -0.52776  -0.52226  -0.52195
 Alpha  occ. eigenvalues --   -0.51897  -0.51518  -0.51159  -0.50986  -0.50303
 Alpha  occ. eigenvalues --   -0.50189  -0.49961  -0.49752  -0.49400  -0.49110
 Alpha  occ. eigenvalues --   -0.48261  -0.47354  -0.47272  -0.47204  -0.46850
 Alpha  occ. eigenvalues --   -0.46683  -0.45843  -0.45808  -0.45212  -0.44981
 Alpha  occ. eigenvalues --   -0.44749  -0.44424  -0.43204  -0.42791  -0.41848
 Alpha  occ. eigenvalues --   -0.41274  -0.40965  -0.40652  -0.39920  -0.39374
 Alpha  occ. eigenvalues --   -0.38791  -0.38494  -0.37608  -0.37266  -0.36105
 Alpha  occ. eigenvalues --   -0.35130  -0.34341  -0.34207  -0.32606  -0.32318
 Alpha  occ. eigenvalues --   -0.31204  -0.27903
 Alpha virt. eigenvalues --   -0.17928  -0.13202  -0.11350  -0.09565  -0.08837
 Alpha virt. eigenvalues --   -0.08098  -0.07357  -0.06612  -0.05795  -0.04772
 Alpha virt. eigenvalues --   -0.03388  -0.02899  -0.02737  -0.01922  -0.01288

 Mulliken charges:
               1
     1  N   -0.733849
     2  H    0.337740
     3  H    0.343982
     4  H    0.440054
     5  C   -0.085766
     6  H    0.207122
     7  C    0.614540
     8  C   -0.295784
     9  H    0.177610
    10  H    0.188440
    11  O   -0.559837
    12  C   -0.366794
    13  H    0.204045
    14  H    0.174102
    15  C    0.578334
    16  O   -0.582191
    17  O   -0.425523
    18  N   -0.558595
    19  H    0.407280
    20  C   -0.121082
    21  H    0.199362
    22  C    0.674010
    23  C   -0.340610
    24  H    0.195203
    25  H    0.182510
    26  O   -0.555993
    27  C    0.039701
    28  C    0.010653
    29  H    0.182102
    30  C   -0.053416
    31  C    0.343409
    32  C   -0.218110
    33  H    0.139958
    34  N   -0.673365
    35  H    0.353895
    36  C   -0.146125
    37  H    0.164804
    38  C   -0.152763
    39  H    0.159473
    40  C   -0.126610
    41  H    0.159775
    42  N   -0.604140
    43  H    0.365034
    44  C   -0.096059
    45  H    0.173760
    46  C    0.629106
    47  C    0.153580
    48  H    0.162394
    49  O   -0.535548
    50  C   -0.488326
    51  H    0.164945
    52  H    0.191444
    53  H    0.147880
    54  O   -0.615998
    55  H    0.403398
    56  N   -0.611670
    57  H    0.359274
    58  C   -0.060853
    59  H    0.216940
    60  C    0.597477
    61  C   -0.272936
    62  H    0.166219
    63  H    0.179989
    64  O   -0.438087
    65  C   -0.264191
    66  H    0.119579
    67  H    0.157568
    68  C   -0.140390
    69  H    0.153912
    70  H    0.171420
    71  N   -0.594713
    72  H    0.321782
    73  N   -0.742820
    74  H    0.334737
    75  H    0.313273
    76  N   -0.627737
    77  H    0.269293
    78  C    0.547672
    79  O   -0.587435
    80  H    0.430895
    81  H    0.467641
 Sum of Mulliken charges =   1.00000

 Dipole moment (field-independent basis, Debye):
    X=            -11.2539    Y=              0.1589    Z=             -1.0061  Tot=             11.2999
 Quadrupole moment (field-independent basis, Debye-Ang):
   XX=            -88.2422   YY=           -254.6911   ZZ=           -256.1731
   XY=            -11.9701   XZ=             -7.4700   YZ=            -11.7943

 Normal termination of Gaussian 16 at Thu May 26 18:14:40 2022.
