 Gaussian 16, Revision C.01,
 Gaussian 16:  ES64L-G16RevC.01  3-Jul-2019

 -------------------------------------------------------------------
 # B3LYP/6-31G* guess=read geom=check nosymm integral(ultrafinegrid)
 -------------------------------------------------------------------

 ------------------------------------------------------
 Candidate Structure: Conf:472 Charge calc in gas phase
 ------------------------------------------------------
 Structure from the checkpoint file:  "conf-472.chk"
 Charge =  1 Multiplicity = 1

                          Input orientation:
 ---------------------------------------------------------------------
 Center     Atomic      Atomic             Coordinates (Angstroms)
 Number     Number       Type             X           Y           Z
 ---------------------------------------------------------------------
      1          7           0       -2.883023   -0.573208    5.102530
      2          1           0       -3.619333   -1.276268    4.969973
      3          1           0       -1.983240   -1.020512    4.868046
      4          1           0       -2.884787   -0.284695    6.087380
      5          6           0       -3.056716    0.620578    4.162118
      6          1           0       -4.119256    0.866165    4.156896
      7          6           0       -2.612954    0.180399    2.771902
      8          6           0       -2.215755    1.795132    4.699148
      9          1           0       -2.554408    2.030349    5.717710
     10          1           0       -1.163157    1.490533    4.749654
     11          8           0       -1.636440   -0.753319    2.869495
     12          6           0       -2.321839    3.069350    3.832251
     13          1           0       -1.902712    2.875251    2.840157
     14          1           0       -1.723665    3.847266    4.311169
     15          6           0       -3.761298    3.590442    3.762807
     16          8           0       -4.577153    2.977629    2.872530
     17          8           0       -4.176611    4.452293    4.496388
     18          7           0       -3.163050    0.748780    1.782986
     19          1           0       -4.106062    2.286544    2.341205
     20          6           0       -2.731395    0.540585    0.402745
     21          1           0       -2.996240   -0.483972    0.108388
     22          6           0       -1.203053    0.711611    0.310674
     23          6           0       -3.478148    1.525412   -0.537597
     24          1           0       -3.048146    1.412588   -1.541991
     25          1           0       -3.246255    2.546452   -0.212900
     26          8           0       -0.584117    1.422379    1.101286
     27          6           0       -4.958551    1.299599   -0.571232
     28          6           0       -5.928056    2.104955   -0.021541
     29          1           0       -5.826930    3.035264    0.520651
     30          6           0       -5.645777    0.181086   -1.173132
     31          6           0       -7.035915    0.374507   -0.944098
     32          6           0       -5.232005   -0.954607   -1.893081
     33          1           0       -4.179565   -1.124113   -2.111747
     34          7           0       -7.171794    1.552273   -0.235238
     35          1           0       -8.046835    1.979089    0.028385
     36          6           0       -7.560357   -1.640806   -2.104651
     37          1           0       -8.285780   -2.357674   -2.477960
     38          6           0       -8.002852   -0.525521   -1.402907
     39          1           0       -9.061428   -0.358285   -1.223486
     40          6           0       -6.188311   -1.852928   -2.349652
     41          1           0       -5.878603   -2.728868   -2.912467
     42          7           0       -0.606519   -0.027415   -0.653790
     43          1           0       -1.141186   -0.585353   -1.311143
     44          6           0        0.829528   -0.224673   -0.705703
     45          1           0        1.308141    0.657172   -0.272223
     46          6           0        1.188139   -0.435013   -2.189250
     47          6           0        1.230015   -1.490048    0.099695
     48          1           0        0.862364   -2.363584   -0.456408
     49          8           0        0.422389   -1.077547   -2.904024
     50          6           0        2.733672   -1.595950    0.332394
     51          1           0        3.291184   -1.618872   -0.608774
     52          1           0        2.977110   -2.518229    0.873873
     53          1           0        3.088334   -0.745966    0.925799
     54          8           0        0.536772   -1.435641    1.371497
     55          1           0        0.890113   -2.157236    1.915289
     56          7           0        2.352043    0.111140   -2.610000
     57          1           0        2.986783    0.511567   -1.929036
     58          6           0        2.933651   -0.180604   -3.916081
     59          1           0        2.387213   -1.034025   -4.331126
     60          6           0        4.384013   -0.595146   -3.681841
     61          6           0        2.842787    1.004707   -4.902929
     62          1           0        3.365744    0.726986   -5.822707
     63          1           0        3.381339    1.863770   -4.479366
     64          8           0        4.951817   -0.523955   -2.610907
     65          6           0        1.400224    1.407860   -5.230518
     66          1           0        0.842204    0.532779   -5.592405
     67          1           0        0.886211    1.739839   -4.320737
     68          6           0        1.319459    2.536191   -6.264894
     69          1           0        0.274263    2.877115   -6.351374
     70          1           0        1.905634    3.394061   -5.914064
     71          7           0        1.870233    2.119897   -7.546634
     72          1           0        1.458601    1.264089   -7.907083
     73          7           0        2.446710    2.455098   -9.762471
     74          1           0        2.692125    3.151812  -10.457305
     75          1           0        3.170988    1.751235   -9.663102
     76          7           0        1.959410    4.342312   -8.501131
     77          1           0        1.533346    4.647060   -7.626293
     78          6           0        2.075861    3.067918   -8.562080
     79          8           0        4.967305   -1.031308   -4.809128
     80          1           0        5.893563   -1.252298   -4.591476
     81          1           0       -0.995359   -0.834881    2.110771
 ---------------------------------------------------------------------

 SCF Done:  E(RB3LYP) =  -2053.87982965     A.U. after    3 cycles

 Alpha  occ. eigenvalues --  -19.32849 -19.28871 -19.28268 -19.26612 -19.23487
 Alpha  occ. eigenvalues --  -19.22422 -19.21870 -19.21289 -14.63127 -14.46836
 Alpha  occ. eigenvalues --  -14.46319 -14.46300 -14.45011 -14.40000 -14.37974
 Alpha  occ. eigenvalues --  -14.32792 -10.43567 -10.41556 -10.41441 -10.40070
 Alpha  occ. eigenvalues --  -10.39583 -10.39237 -10.35936 -10.34624 -10.34201
 Alpha  occ. eigenvalues --  -10.34158 -10.32999 -10.32160 -10.30550 -10.29133
 Alpha  occ. eigenvalues --  -10.28892 -10.28778 -10.28366 -10.28327 -10.27057
 Alpha  occ. eigenvalues --  -10.26210 -10.25756 -10.25649 -10.25582 -10.25478
 Alpha  occ. eigenvalues --  -10.25016 -10.24798  -1.21771  -1.19959  -1.17371
 Alpha  occ. eigenvalues --   -1.16985  -1.15197  -1.14206  -1.13711  -1.11023
 Alpha  occ. eigenvalues --   -1.09394  -1.05192  -1.04889  -1.03330  -1.02755
 Alpha  occ. eigenvalues --   -1.01921  -0.95358  -0.93537  -0.90964  -0.90378
 Alpha  occ. eigenvalues --   -0.89120  -0.88275  -0.87390  -0.86768  -0.84374
 Alpha  occ. eigenvalues --   -0.82654  -0.81061  -0.80332  -0.79844  -0.78687
 Alpha  occ. eigenvalues --   -0.77178  -0.75214  -0.74630  -0.74028  -0.73501
 Alpha  occ. eigenvalues --   -0.73012  -0.71384  -0.69396  -0.69269  -0.68995
 Alpha  occ. eigenvalues --   -0.68288  -0.67950  -0.67119  -0.66199  -0.65062
 Alpha  occ. eigenvalues --   -0.63649  -0.63278  -0.62882  -0.62557  -0.61324
 Alpha  occ. eigenvalues --   -0.60714  -0.60149  -0.59360  -0.59029  -0.58692
 Alpha  occ. eigenvalues --   -0.58531  -0.58192  -0.57890  -0.56320  -0.56026
 Alpha  occ. eigenvalues --   -0.55599  -0.55292  -0.54976  -0.54462  -0.54057
 Alpha  occ. eigenvalues --   -0.53996  -0.53537  -0.53038  -0.52779  -0.52338
 Alpha  occ. eigenvalues --   -0.52247  -0.51752  -0.51424  -0.50878  -0.50160
 Alpha  occ. eigenvalues --   -0.49995  -0.49907  -0.49822  -0.49574  -0.49346
 Alpha  occ. eigenvalues --   -0.49004  -0.48755  -0.48363  -0.48125  -0.47998
 Alpha  occ. eigenvalues --   -0.47696  -0.47376  -0.47039  -0.46295  -0.45574
 Alpha  occ. eigenvalues --   -0.45261  -0.44779  -0.44689  -0.44163  -0.42564
 Alpha  occ. eigenvalues --   -0.42194  -0.41708  -0.41275  -0.40894  -0.40750
 Alpha  occ. eigenvalues --   -0.40465  -0.40272  -0.40105  -0.39758  -0.39208
 Alpha  occ. eigenvalues --   -0.37449  -0.36933  -0.36007  -0.35523  -0.35099
 Alpha  occ. eigenvalues --   -0.34850  -0.34167  -0.30668  -0.29904  -0.29091
 Alpha  occ. eigenvalues --   -0.27536  -0.27395
 Alpha virt. eigenvalues --   -0.14375  -0.12455  -0.09302  -0.08412  -0.08234
 Alpha virt. eigenvalues --   -0.07844  -0.07699  -0.07568  -0.06125  -0.04361
 Alpha virt. eigenvalues --   -0.04229  -0.03996  -0.02833  -0.01047  -0.00873

 Mulliken charges:
               1
     1  N   -0.738420
     2  H    0.427545
     3  H    0.431677
     4  H    0.422413
     5  C   -0.133841
     6  H    0.242745
     7  C    0.612639
     8  C   -0.298780
     9  H    0.183479
    10  H    0.185976
    11  O   -0.704227
    12  C   -0.388799
    13  H    0.213303
    14  H    0.205999
    15  C    0.570154
    16  O   -0.611760
    17  O   -0.424833
    18  N   -0.467637
    19  H    0.459222
    20  C   -0.080776
    21  H    0.173788
    22  C    0.586818
    23  C   -0.376847
    24  H    0.168724
    25  H    0.167573
    26  O   -0.526730
    27  C    0.066483
    28  C   -0.003649
    29  H    0.180195
    30  C    0.085062
    31  C    0.311632
    32  C   -0.219390
    33  H    0.107437
    34  N   -0.688844
    35  H    0.340012
    36  C   -0.151460
    37  H    0.140243
    38  C   -0.159664
    39  H    0.138141
    40  C   -0.138234
    41  H    0.132645
    42  N   -0.604536
    43  H    0.357906
    44  C   -0.069890
    45  H    0.191372
    46  C    0.619036
    47  C    0.155668
    48  H    0.158195
    49  O   -0.529528
    50  C   -0.502398
    51  H    0.191893
    52  H    0.159616
    53  H    0.175277
    54  O   -0.664740
    55  H    0.414006
    56  N   -0.590792
    57  H    0.351728
    58  C   -0.070081
    59  H    0.210830
    60  C    0.592673
    61  C   -0.257776
    62  H    0.188460
    63  H    0.147293
    64  O   -0.470014
    65  C   -0.288316
    66  H    0.152370
    67  H    0.146095
    68  C   -0.132378
    69  H    0.148463
    70  H    0.157223
    71  N   -0.603310
    72  H    0.321273
    73  N   -0.749751
    74  H    0.340617
    75  H    0.318358
    76  N   -0.637665
    77  H    0.277636
    78  C    0.575977
    79  O   -0.551334
    80  H    0.429051
    81  H    0.501482
 Sum of Mulliken charges =   1.00000

 Dipole moment (field-independent basis, Debye):
    X=             -5.2511    Y=             -8.2273    Z=             13.1449  Tot=             16.3722
 Quadrupole moment (field-independent basis, Debye-Ang):
   XX=           -166.3630   YY=           -258.9457   ZZ=           -152.1497
   XY=              4.3848   XZ=            -57.2092   YZ=             -6.4484

 Normal termination of Gaussian 16 at Thu May 26 18:13:45 2022.
