 Gaussian 16, Revision C.01,
 Gaussian 16:  ES64L-G16RevC.01  3-Jul-2019

 -------------------------------------------------------------------
 # B3LYP/6-31G* guess=read geom=check nosymm integral(ultrafinegrid)
 -------------------------------------------------------------------

 ------------------------------------------------------
 Candidate Structure: Conf:549 Charge calc in gas phase
 ------------------------------------------------------
 Structure from the checkpoint file:  "conf-549.chk"
 Charge =  1 Multiplicity = 1

                          Input orientation:
 ---------------------------------------------------------------------
 Center     Atomic      Atomic             Coordinates (Angstroms)
 Number     Number       Type             X           Y           Z
 ---------------------------------------------------------------------
      1          7           0       -3.838107   -1.505969    3.780793
      2          1           0       -3.876168   -2.277757    3.117217
      3          1           0       -2.998607   -1.625448    4.345716
      4          1           0       -5.722770   -1.249389    4.462395
      5          6           0       -3.850520   -0.209300    3.111368
      6          1           0       -4.788085   -0.143341    2.549445
      7          6           0       -2.695263    0.000275    2.132059
      8          6           0       -3.813420    0.945988    4.146083
      9          1           0       -2.811594    1.002716    4.588261
     10          1           0       -3.984093    1.887828    3.613287
     11          8           0       -1.543428   -0.372904    2.585447
     12          6           0       -4.852981    0.802119    5.279885
     13          1           0       -4.863297    1.729183    5.857323
     14          1           0       -4.564778   -0.012251    5.952409
     15          6           0       -6.268734    0.568646    4.751409
     16          8           0       -7.089658    1.445839    4.633811
     17          8           0       -6.535902   -0.701550    4.370864
     18          7           0       -2.975825    0.524338    0.961456
     19          1           0       -3.972067    0.707387    0.809525
     20          6           0       -2.149256    0.910355   -0.203739
     21          1           0       -2.069983    0.028721   -0.850059
     22          6           0       -0.771512    1.383441    0.263098
     23          6           0       -2.887285    2.042793   -0.977646
     24          1           0       -2.287376    2.252205   -1.870273
     25          1           0       -2.855817    2.943509   -0.354619
     26          8           0       -0.672318    2.266625    1.117656
     27          6           0       -4.294555    1.681085   -1.353566
     28          6           0       -4.704769    1.087229   -2.526809
     29          1           0       -4.132449    0.837784   -3.410449
     30          6           0       -5.474720    1.803259   -0.522523
     31          6           0       -6.557500    1.244407   -1.256497
     32          6           0       -5.729910    2.326873    0.764951
     33          1           0       -4.943317    2.824462    1.329745
     34          7           0       -6.052824    0.826484   -2.472127
     35          1           0       -6.598206    0.434536   -3.225657
     36          6           0       -8.065467    1.671108    0.540167
     37          1           0       -9.058181    1.621564    0.976110
     38          6           0       -7.856041    1.176340   -0.740838
     39          1           0       -8.670669    0.747540   -1.317527
     40          6           0       -7.015787    2.245769    1.286959
     41          1           0       -7.219634    2.621937    2.284087
     42          7           0        0.269505    0.743502   -0.304028
     43          1           0        0.152877    0.009470   -0.999027
     44          6           0        1.652814    0.959438    0.091251
     45          1           0        1.814995    2.032182    0.247682
     46          6           0        2.501668    0.414694   -1.077120
     47          6           0        1.952306    0.189278    1.412445
     48          1           0        1.901517   -0.883539    1.202324
     49          8           0        2.062492   -0.520542   -1.743415
     50          6           0        3.292828    0.546159    2.040713
     51          1           0        4.121966    0.246986    1.392804
     52          1           0        3.397489    0.023458    2.995278
     53          1           0        3.364902    1.624037    2.234564
     54          8           0        0.881778    0.420609    2.359183
     55          1           0        0.730502    1.384858    2.416974
     56          7           0        3.690151    1.018534   -1.291871
     57          1           0        3.973134    1.777498   -0.686448
     58          6           0        4.630899    0.569845   -2.312963
     59          1           0        4.074050   -0.143215   -2.930714
     60          6           0        5.814727   -0.219868   -1.740048
     61          6           0        5.124412    1.727737   -3.202853
     62          1           0        4.252704    2.147729   -3.719078
     63          1           0        5.777151    1.290320   -3.965177
     64          8           0        6.804118   -0.487011   -2.377859
     65          6           0        5.872133    2.832991   -2.445869
     66          1           0        5.231757    3.276183   -1.671680
     67          1           0        6.754146    2.411903   -1.945050
     68          6           0        6.319793    3.980035   -3.368606
     69          1           0        7.014652    3.606512   -4.128943
     70          1           0        5.452098    4.374090   -3.907367
     71          7           0        6.988527    5.079720   -2.672118
     72          1           0        7.944194    4.869250   -2.408958
     73          7           0        4.978272    6.077691   -1.997598
     74          1           0        4.611446    6.755202   -1.336149
     75          1           0        4.833307    6.396868   -2.951572
     76          7           0        6.818562    6.301827   -0.607972
     77          1           0        7.765791    5.954713   -0.444182
     78          6           0        6.327957    5.834492   -1.696124
     79          8           0        5.630128   -0.615949   -0.457527
     80          1           0        6.422031   -1.136279   -0.218362
     81          1           0       -0.634827   -0.071179    2.218790
 ---------------------------------------------------------------------

 SCF Done:  E(RB3LYP) =  -2053.90326046     A.U. after    3 cycles

 Alpha  occ. eigenvalues --  -19.34744 -19.29855 -19.29564 -19.25882 -19.25255
 Alpha  occ. eigenvalues --  -19.23790 -19.23335 -19.20588 -14.54542 -14.49786
 Alpha  occ. eigenvalues --  -14.48234 -14.48008 -14.46542 -14.41332 -14.40104
 Alpha  occ. eigenvalues --  -14.34365 -10.47748 -10.42742 -10.41615 -10.41216
 Alpha  occ. eigenvalues --  -10.39238 -10.38532 -10.37435 -10.37252 -10.36450
 Alpha  occ. eigenvalues --  -10.34163 -10.33843 -10.32361 -10.32189 -10.31877
 Alpha  occ. eigenvalues --  -10.31510 -10.29643 -10.29536 -10.29039 -10.28948
 Alpha  occ. eigenvalues --  -10.28683 -10.28276 -10.28232 -10.27938 -10.27087
 Alpha  occ. eigenvalues --  -10.27064 -10.26888  -1.24853  -1.20198  -1.18005
 Alpha  occ. eigenvalues --   -1.16708  -1.16010  -1.15761  -1.11340  -1.11149
 Alpha  occ. eigenvalues --   -1.08697  -1.07925  -1.06094  -1.04596  -1.03590
 Alpha  occ. eigenvalues --   -1.03488  -0.94896  -0.94575  -0.93103  -0.91195
 Alpha  occ. eigenvalues --   -0.90390  -0.90213  -0.88771  -0.88087  -0.84935
 Alpha  occ. eigenvalues --   -0.83871  -0.82861  -0.82563  -0.81280  -0.79209
 Alpha  occ. eigenvalues --   -0.78370  -0.75683  -0.74985  -0.74372  -0.73580
 Alpha  occ. eigenvalues --   -0.72459  -0.71611  -0.71344  -0.71119  -0.68707
 Alpha  occ. eigenvalues --   -0.68229  -0.68001  -0.67406  -0.65992  -0.65859
 Alpha  occ. eigenvalues --   -0.65065  -0.63955  -0.63796  -0.63629  -0.62933
 Alpha  occ. eigenvalues --   -0.62029  -0.61049  -0.60563  -0.60426  -0.58875
 Alpha  occ. eigenvalues --   -0.58666  -0.58082  -0.57829  -0.57400  -0.56854
 Alpha  occ. eigenvalues --   -0.56475  -0.56153  -0.55865  -0.55606  -0.55025
 Alpha  occ. eigenvalues --   -0.54907  -0.54418  -0.54126  -0.53873  -0.53179
 Alpha  occ. eigenvalues --   -0.52797  -0.52472  -0.52283  -0.52051  -0.51894
 Alpha  occ. eigenvalues --   -0.51538  -0.51149  -0.50870  -0.50805  -0.50582
 Alpha  occ. eigenvalues --   -0.50353  -0.49819  -0.49557  -0.49408  -0.49124
 Alpha  occ. eigenvalues --   -0.48892  -0.48604  -0.47667  -0.46896  -0.46755
 Alpha  occ. eigenvalues --   -0.46584  -0.46340  -0.45909  -0.44733  -0.44354
 Alpha  occ. eigenvalues --   -0.44055  -0.43740  -0.43081  -0.42770  -0.42717
 Alpha  occ. eigenvalues --   -0.42509  -0.42260  -0.41203  -0.39915  -0.39423
 Alpha  occ. eigenvalues --   -0.39196  -0.38757  -0.38333  -0.37523  -0.37321
 Alpha  occ. eigenvalues --   -0.35465  -0.34167  -0.32595  -0.31774  -0.31733
 Alpha  occ. eigenvalues --   -0.30210  -0.28620
 Alpha virt. eigenvalues --   -0.16736  -0.12754  -0.10821  -0.10027  -0.08669
 Alpha virt. eigenvalues --   -0.07393  -0.06944  -0.05504  -0.03985  -0.03890
 Alpha virt. eigenvalues --   -0.03374  -0.02298  -0.01563  -0.01462  -0.01118

 Mulliken charges:
               1
     1  N   -0.736480
     2  H    0.338541
     3  H    0.343737
     4  H    0.441528
     5  C   -0.098451
     6  H    0.206032
     7  C    0.646992
     8  C   -0.294635
     9  H    0.176227
    10  H    0.185106
    11  O   -0.592010
    12  C   -0.367565
    13  H    0.200588
    14  H    0.174114
    15  C    0.586363
    16  O   -0.438867
    17  O   -0.580457
    18  N   -0.592881
    19  H    0.399613
    20  C   -0.027707
    21  H    0.186829
    22  C    0.586889
    23  C   -0.386074
    24  H    0.184181
    25  H    0.203585
    26  O   -0.544410
    27  C    0.030948
    28  C    0.016495
    29  H    0.170074
    30  C    0.046448
    31  C    0.318974
    32  C   -0.266389
    33  H    0.137715
    34  N   -0.679950
    35  H    0.348810
    36  C   -0.150717
    37  H    0.162687
    38  C   -0.152733
    39  H    0.151642
    40  C   -0.134059
    41  H    0.180675
    42  N   -0.605228
    43  H    0.368235
    44  C   -0.096381
    45  H    0.186506
    46  C    0.630159
    47  C    0.143911
    48  H    0.177559
    49  O   -0.523901
    50  C   -0.495047
    51  H    0.196158
    52  H    0.191324
    53  H    0.158227
    54  O   -0.657227
    55  H    0.434625
    56  N   -0.600669
    57  H    0.352226
    58  C   -0.081048
    59  H    0.228603
    60  C    0.604523
    61  C   -0.272022
    62  H    0.155395
    63  H    0.186657
    64  O   -0.440571
    65  C   -0.290058
    66  H    0.148805
    67  H    0.151317
    68  C   -0.139753
    69  H    0.164028
    70  H    0.154032
    71  N   -0.579768
    72  H    0.317574
    73  N   -0.746887
    74  H    0.338932
    75  H    0.326075
    76  N   -0.626648
    77  H    0.268254
    78  C    0.541361
    79  O   -0.570307
    80  H    0.426689
    81  H    0.492934
 Sum of Mulliken charges =   1.00000

 Dipole moment (field-independent basis, Debye):
    X=             -2.2075    Y=              0.5210    Z=             -0.7737  Tot=              2.3965
 Quadrupole moment (field-independent basis, Debye-Ang):
   XX=           -173.8514   YY=           -246.0967   ZZ=           -201.0942
   XY=             13.5059   XZ=             13.0427   YZ=            -25.7760

 Normal termination of Gaussian 16 at Thu May 26 18:15:02 2022.
