 Gaussian 16, Revision C.01,
 Gaussian 16:  ES64L-G16RevC.01  3-Jul-2019

 -------------------------------------------------------------------
 # B3LYP/6-31G* guess=read geom=check nosymm integral(ultrafinegrid)
 -------------------------------------------------------------------

 ------------------------------------------------------
 Candidate Structure: Conf:797 Charge calc in gas phase
 ------------------------------------------------------
 Structure from the checkpoint file:  "conf-797.chk"
 Charge =  1 Multiplicity = 1

                          Input orientation:
 ---------------------------------------------------------------------
 Center     Atomic      Atomic             Coordinates (Angstroms)
 Number     Number       Type             X           Y           Z
 ---------------------------------------------------------------------
      1          7           0       -2.857194   -2.816941    3.556639
      2          1           0       -2.855085   -3.390494    2.714575
      3          1           0       -1.318994   -2.655155    4.430245
      4          1           0       -3.546987   -3.212354    4.193520
      5          6           0       -3.186411   -1.412103    3.296216
      6          1           0       -4.247217   -1.264455    3.042263
      7          6           0       -2.368480   -0.891446    2.131466
      8          6           0       -2.864449   -0.573408    4.575257
      9          1           0       -3.486450    0.328946    4.557767
     10          1           0       -3.219719   -1.168442    5.425190
     11          8           0       -1.257545   -1.510204    1.883715
     12          6           0       -1.407496   -0.121182    4.795854
     13          1           0       -1.385147    0.446025    5.733182
     14          1           0       -1.116506    0.611355    4.032219
     15          6           0       -0.225334   -1.107314    4.908764
     16          8           0        0.882143   -0.653726    5.106883
     17          8           0       -0.425381   -2.420612    4.801463
     18          7           0       -2.765411    0.164458    1.460534
     19          1           0       -3.642993    0.593643    1.741905
     20          6           0       -2.037132    0.826974    0.334864
     21          1           0       -1.996341    0.106848   -0.489567
     22          6           0       -0.616122    1.170829    0.846235
     23          6           0       -2.769859    2.098230   -0.123072
     24          1           0       -2.712130    2.837342    0.683538
     25          1           0       -3.828977    1.856192   -0.291250
     26          8           0       -0.426740    2.069998    1.638909
     27          6           0       -2.133902    2.607820   -1.380819
     28          6           0       -1.144704    3.566863   -1.486178
     29          1           0       -0.688322    4.163486   -0.707110
     30          6           0       -2.375102    2.120010   -2.715020
     31          6           0       -1.495739    2.839190   -3.571433
     32          6           0       -3.242099    1.161839   -3.272427
     33          1           0       -3.940848    0.607858   -2.647873
     34          7           0       -0.768512    3.716062   -2.792800
     35          1           0        0.021968    4.290981   -3.129460
     36          6           0       -2.325692    1.661433   -5.474224
     37          1           0       -2.326446    1.469197   -6.543140
     38          6           0       -1.463838    2.618054   -4.953535
     39          1           0       -0.794172    3.181043   -5.597138
     40          6           0       -3.208754    0.940775   -4.642679
     41          1           0       -3.875898    0.207323   -5.086370
     42          7           0        0.347381    0.234939    0.476603
     43          1           0        0.306053   -0.109361   -0.499220
     44          6           0        1.760334    0.525401    0.785849
     45          1           0        1.876563    1.611376    0.877960
     46          6           0        2.555741    0.050763   -0.450221
     47          6           0        2.212919   -0.072582    2.136124
     48          1           0        1.481164    0.239519    2.890415
     49          8           0        1.949455   -0.370341   -1.440230
     50          6           0        2.360894   -1.592673    2.162204
     51          1           0        1.437277   -2.098966    1.859361
     52          1           0        2.572763   -1.920006    3.185127
     53          1           0        3.171278   -1.919794    1.503763
     54          8           0        3.460740    0.581199    2.402290
     55          1           0        3.778253    0.280365    3.268758
     56          7           0        3.891765    0.187550   -0.362636
     57          1           0        4.268019    0.437215    0.550090
     58          6           0        4.792267   -0.152076   -1.456187
     59          1           0        4.180876   -0.670623   -2.204364
     60          6           0        5.881882   -1.141564   -1.038157
     61          6           0        5.419047    1.101464   -2.104753
     62          1           0        6.186872    0.764056   -2.808183
     63          1           0        5.935607    1.678616   -1.324584
     64          8           0        6.853768   -1.386911   -1.711828
     65          6           0        4.375072    1.975385   -2.807915
     66          1           0        3.950655    1.428259   -3.660525
     67          1           0        3.545992    2.190926   -2.125247
     68          6           0        4.944169    3.315263   -3.298320
     69          1           0        5.379837    3.868524   -2.458584
     70          1           0        5.761340    3.157244   -4.010064
     71          7           0        3.955154    4.163839   -3.975987
     72          1           0        3.777804    3.891678   -4.935134
     73          7           0        2.979589    4.920857   -1.986725
     74          1           0        2.225526    5.505547   -1.644860
     75          1           0        3.884229    5.301377   -1.732398
     76          7           0        1.673263    4.863960   -3.896373
     77          1           0        1.663051    4.540316   -4.864349
     78          6           0        2.823007    4.649519   -3.342712
     79          8           0        5.638837   -1.731991    0.155892
     80          1           0        6.379278   -2.351135    0.308072
     81          1           0       -0.590053   -1.008124    1.290689
 ---------------------------------------------------------------------

 SCF Done:  E(RB3LYP) =  -2053.90076157     A.U. after    2 cycles

 Alpha  occ. eigenvalues --  -19.37436 -19.28492 -19.26929 -19.26479 -19.25118
 Alpha  occ. eigenvalues --  -19.22535 -19.22324 -19.21333 -14.57056 -14.49948
 Alpha  occ. eigenvalues --  -14.48983 -14.45778 -14.43761 -14.43440 -14.42714
 Alpha  occ. eigenvalues --  -14.37306 -10.50331 -10.43535 -10.40783 -10.40672
 Alpha  occ. eigenvalues --  -10.40384 -10.39412 -10.38977 -10.36914 -10.34275
 Alpha  occ. eigenvalues --  -10.34246 -10.34081 -10.32990 -10.31739 -10.31546
 Alpha  occ. eigenvalues --  -10.30669 -10.29755 -10.28605 -10.27533 -10.26664
 Alpha  occ. eigenvalues --  -10.26664 -10.26645 -10.25917 -10.25823 -10.25621
 Alpha  occ. eigenvalues --  -10.25113 -10.25007  -1.27987  -1.19189  -1.18727
 Alpha  occ. eigenvalues --   -1.17761  -1.14446  -1.13387  -1.12257  -1.10126
 Alpha  occ. eigenvalues --   -1.09494  -1.06255  -1.06109  -1.05598  -1.04596
 Alpha  occ. eigenvalues --   -1.02712  -0.97034  -0.95143  -0.92823  -0.92144
 Alpha  occ. eigenvalues --   -0.90610  -0.89447  -0.87675  -0.87151  -0.84628
 Alpha  occ. eigenvalues --   -0.83138  -0.81577  -0.81401  -0.80292  -0.79633
 Alpha  occ. eigenvalues --   -0.77890  -0.76073  -0.75871  -0.75054  -0.72963
 Alpha  occ. eigenvalues --   -0.70804  -0.70064  -0.69781  -0.69085  -0.68854
 Alpha  occ. eigenvalues --   -0.68147  -0.67839  -0.67100  -0.66915  -0.65867
 Alpha  occ. eigenvalues --   -0.65518  -0.64226  -0.63558  -0.63496  -0.63222
 Alpha  occ. eigenvalues --   -0.62588  -0.60653  -0.60552  -0.60251  -0.59073
 Alpha  occ. eigenvalues --   -0.58691  -0.58003  -0.57490  -0.57084  -0.56804
 Alpha  occ. eigenvalues --   -0.56444  -0.56195  -0.55871  -0.55635  -0.55179
 Alpha  occ. eigenvalues --   -0.54556  -0.54202  -0.53886  -0.53689  -0.53523
 Alpha  occ. eigenvalues --   -0.53040  -0.52737  -0.52442  -0.51769  -0.51612
 Alpha  occ. eigenvalues --   -0.51454  -0.50816  -0.50205  -0.50142  -0.49893
 Alpha  occ. eigenvalues --   -0.49461  -0.49440  -0.48877  -0.48442  -0.48319
 Alpha  occ. eigenvalues --   -0.48014  -0.47886  -0.47693  -0.47567  -0.46950
 Alpha  occ. eigenvalues --   -0.45987  -0.45689  -0.45649  -0.45380  -0.44311
 Alpha  occ. eigenvalues --   -0.44167  -0.43285  -0.42507  -0.42103  -0.40819
 Alpha  occ. eigenvalues --   -0.40764  -0.40657  -0.40221  -0.40126  -0.39750
 Alpha  occ. eigenvalues --   -0.39080  -0.37718  -0.37385  -0.36294  -0.35879
 Alpha  occ. eigenvalues --   -0.35284  -0.34816  -0.34598  -0.34071  -0.30795
 Alpha  occ. eigenvalues --   -0.29219  -0.27710
 Alpha virt. eigenvalues --   -0.19217  -0.14236  -0.09376  -0.08310  -0.08151
 Alpha virt. eigenvalues --   -0.07671  -0.07607  -0.06043  -0.04321  -0.03946
 Alpha virt. eigenvalues --   -0.03566  -0.02741  -0.02203  -0.02065  -0.01112

 Mulliken charges:
               1
     1  N   -0.763167
     2  H    0.351974
     3  H    0.468325
     4  H    0.357417
     5  C   -0.067958
     6  H    0.184686
     7  C    0.652871
     8  C   -0.296682
     9  H    0.175735
    10  H    0.193383
    11  O   -0.562934
    12  C   -0.408480
    13  H    0.220436
    14  H    0.189334
    15  C    0.594231
    16  O   -0.462901
    17  O   -0.591819
    18  N   -0.574343
    19  H    0.386843
    20  C   -0.056074
    21  H    0.209677
    22  C    0.597189
    23  C   -0.403012
    24  H    0.192497
    25  H    0.166404
    26  O   -0.453425
    27  C    0.013172
    28  C    0.010737
    29  H    0.160464
    30  C    0.092541
    31  C    0.300626
    32  C   -0.218712
    33  H    0.100913
    34  N   -0.698076
    35  H    0.394790
    36  C   -0.149825
    37  H    0.139813
    38  C   -0.157489
    39  H    0.135157
    40  C   -0.135862
    41  H    0.133177
    42  N   -0.707517
    43  H    0.392514
    44  C   -0.059431
    45  H    0.219707
    46  C    0.612691
    47  C    0.118760
    48  H    0.167876
    49  O   -0.541716
    50  C   -0.494190
    51  H    0.136390
    52  H    0.192267
    53  H    0.181452
    54  O   -0.640416
    55  H    0.423265
    56  N   -0.600327
    57  H    0.377583
    58  C   -0.073922
    59  H    0.221379
    60  C    0.593073
    61  C   -0.268374
    62  H    0.186864
    63  H    0.144607
    64  O   -0.442350
    65  C   -0.270208
    66  H    0.148750
    67  H    0.165241
    68  C   -0.154192
    69  H    0.152217
    70  H    0.169971
    71  N   -0.580402
    72  H    0.326178
    73  N   -0.739923
    74  H    0.342373
    75  H    0.338354
    76  N   -0.695245
    77  H    0.284961
    78  C    0.610369
    79  O   -0.568466
    80  H    0.425131
    81  H    0.483075
 Sum of Mulliken charges =   1.00000

 Dipole moment (field-independent basis, Debye):
    X=             -4.8065    Y=              0.2891    Z=              5.2165  Tot=              7.0992
 Quadrupole moment (field-independent basis, Debye-Ang):
   XX=           -161.7003   YY=           -216.1301   ZZ=           -202.5588
   XY=             36.6990   XZ=            -47.3257   YZ=            -21.7758

 Normal termination of Gaussian 16 at Thu May 26 18:14:46 2022.
