 Gaussian 16, Revision C.01,
 Gaussian 16:  ES64L-G16RevC.01  3-Jul-2019

 -------------------------------------------------------------------
 # B3LYP/6-31G* guess=read geom=check nosymm integral(ultrafinegrid)
 -------------------------------------------------------------------

 -----------------------------------------------------
 Candidate Structure: Conf:95 Charge calc in gas phase
 -----------------------------------------------------
 Structure from the checkpoint file:  "conf-95.chk"
 Charge =  1 Multiplicity = 1

                          Input orientation:
 ---------------------------------------------------------------------
 Center     Atomic      Atomic             Coordinates (Angstroms)
 Number     Number       Type             X           Y           Z
 ---------------------------------------------------------------------
      1          7           0       -3.974765    3.174958    3.884283
      2          1           0       -4.899893    2.737087    3.820373
      3          1           0       -3.323588    2.486074    4.320889
      4          1           0       -4.048441    4.020848    4.458344
      5          6           0       -3.350771    3.463514    2.516619
      6          1           0       -4.161859    3.719625    1.828634
      7          6           0       -2.715580    2.101975    2.164140
      8          6           0       -2.373773    4.637711    2.693941
      9          1           0       -2.936814    5.447912    3.182307
     10          1           0       -1.565976    4.321348    3.362947
     11          8           0       -2.315039    1.400852    3.123605
     12          6           0       -1.773496    5.166445    1.388598
     13          1           0       -1.274809    6.119122    1.597189
     14          1           0       -2.559013    5.393572    0.654699
     15          6           0       -0.738332    4.214048    0.738918
     16          8           0       -0.609770    3.077289    1.280840
     17          8           0       -0.143771    4.663648   -0.264557
     18          7           0       -2.860969    1.662208    0.912261
     19          1           0       -3.007754    2.370383    0.191083
     20          6           0       -2.294561    0.422202    0.373207
     21          1           0       -2.740880   -0.420493    0.920100
     22          6           0       -0.786781    0.262976    0.650421
     23          6           0       -2.730420    0.340297   -1.128433
     24          1           0       -3.783381    0.037482   -1.116918
     25          1           0       -2.204307   -0.489742   -1.612320
     26          8           0       -0.338422    0.269096    1.864787
     27          6           0       -2.584343    1.638805   -1.875221
     28          6           0       -1.468093    2.136128   -2.520293
     29          1           0       -0.511484    1.669120   -2.714526
     30          6           0       -3.572458    2.697285   -1.915822
     31          6           0       -2.964518    3.800892   -2.579870
     32          6           0       -4.897792    2.831021   -1.447329
     33          1           0       -5.407251    1.996138   -0.969785
     34          7           0       -1.698750    3.410789   -2.955875
     35          1           0       -0.954791    4.029207   -3.288033
     36          6           0       -4.923764    5.125906   -2.275756
     37          1           0       -5.466706    6.057790   -2.404226
     38          6           0       -3.625856    5.021878   -2.760357
     39          1           0       -3.122728    5.854042   -3.241322
     40          6           0       -5.557528    4.040176   -1.632738
     41          1           0       -6.584782    4.148663   -1.294963
     42          7           0        0.041672   -0.049529   -0.304936
     43          1           0       -0.261364   -0.051590   -1.277416
     44          6           0        1.478665   -0.310734   -0.170775
     45          1           0        1.848837    0.233366    0.701088
     46          6           0        2.063953    0.204565   -1.502797
     47          6           0        1.748644   -1.832705   -0.013259
     48          1           0        1.511679   -2.307086   -0.979004
     49          8           0        1.367533    0.116781   -2.518278
     50          6           0        3.202193   -2.119126    0.363989
     51          1           0        3.909222   -1.764254   -0.392314
     52          1           0        3.352566   -3.200200    0.463521
     53          1           0        3.445504   -1.655088    1.326244
     54          8           0        0.844881   -2.280683    0.988181
     55          1           0        1.022083   -3.220418    1.151906
     56          7           0        3.304559    0.716338   -1.471753
     57          1           0        3.861536    0.671415   -0.625180
     58          6           0        4.012023    1.149041   -2.675097
     59          1           0        3.579917    0.611000   -3.524490
     60          6           0        5.467581    0.729715   -2.502378
     61          6           0        3.894925    2.673280   -2.933563
     62          1           0        4.383105    2.880596   -3.892629
     63          1           0        4.459979    3.214987   -2.163247
     64          8           0        5.931799    0.302493   -1.465655
     65          6           0        2.439482    3.150858   -2.940889
     66          1           0        1.850249    2.547595   -3.640786
     67          1           0        2.010614    2.989123   -1.943966
     68          6           0        2.277880    4.632478   -3.291339
     69          1           0        3.032180    5.240173   -2.764086
     70          1           0        2.440982    4.781352   -4.364875
     71          7           0        0.919950    5.047231   -2.942597
     72          1           0        0.685527    4.763204   -1.986572
     73          7           0       -0.597821    6.726520   -2.438603
     74          1           0       -0.754135    7.727590   -2.456573
     75          1           0       -0.625413    6.318664   -1.504339
     76          7           0        1.048830    7.229697   -3.994417
     77          1           0        1.824666    6.829183   -4.520364
     78          6           0        0.539933    6.388174   -3.173848
     79          8           0        6.175211    0.919371   -3.624916
     80          1           0        7.099119    0.662628   -3.437844
     81          1           0       -1.024571    0.625232    2.505106
 ---------------------------------------------------------------------

 SCF Done:  E(RB3LYP) =  -2053.88505308     A.U. after    3 cycles

 Alpha  occ. eigenvalues --  -19.32093 -19.29319 -19.28247 -19.25165 -19.23936
 Alpha  occ. eigenvalues --  -19.23533 -19.16933 -19.16246 -14.61394 -14.51931
 Alpha  occ. eigenvalues --  -14.50142 -14.47677 -14.44701 -14.39485 -14.37697
 Alpha  occ. eigenvalues --  -14.32582 -10.45985 -10.45219 -10.41958 -10.40922
 Alpha  occ. eigenvalues --  -10.40855 -10.38537 -10.36056 -10.35602 -10.34788
 Alpha  occ. eigenvalues --  -10.33871 -10.32426 -10.32021 -10.31845 -10.30059
 Alpha  occ. eigenvalues --  -10.29361 -10.28200 -10.28009 -10.27949 -10.27767
 Alpha  occ. eigenvalues --  -10.27231 -10.27007 -10.26908 -10.26201 -10.26174
 Alpha  occ. eigenvalues --  -10.25952 -10.25856  -1.23450  -1.20430  -1.20000
 Alpha  occ. eigenvalues --   -1.15777  -1.15091  -1.12934  -1.11575  -1.09675
 Alpha  occ. eigenvalues --   -1.08992  -1.07419  -1.05380  -1.04084  -1.01786
 Alpha  occ. eigenvalues --   -1.00997  -0.94219  -0.93243  -0.92214  -0.91584
 Alpha  occ. eigenvalues --   -0.90275  -0.88343  -0.88011  -0.86535  -0.84268
 Alpha  occ. eigenvalues --   -0.83149  -0.82479  -0.81198  -0.80340  -0.78124
 Alpha  occ. eigenvalues --   -0.77574  -0.76380  -0.74944  -0.74733  -0.73830
 Alpha  occ. eigenvalues --   -0.73435  -0.71530  -0.71223  -0.69934  -0.69345
 Alpha  occ. eigenvalues --   -0.68075  -0.67670  -0.67226  -0.66708  -0.65991
 Alpha  occ. eigenvalues --   -0.64311  -0.64010  -0.62866  -0.62765  -0.62014
 Alpha  occ. eigenvalues --   -0.61054  -0.60709  -0.59551  -0.59379  -0.59074
 Alpha  occ. eigenvalues --   -0.58416  -0.58185  -0.57472  -0.56818  -0.56670
 Alpha  occ. eigenvalues --   -0.56491  -0.56123  -0.55752  -0.55296  -0.54698
 Alpha  occ. eigenvalues --   -0.54380  -0.53898  -0.53363  -0.53231  -0.52690
 Alpha  occ. eigenvalues --   -0.52218  -0.51813  -0.51274  -0.51157  -0.50637
 Alpha  occ. eigenvalues --   -0.50470  -0.50282  -0.49892  -0.49618  -0.49358
 Alpha  occ. eigenvalues --   -0.49181  -0.48844  -0.48591  -0.48292  -0.48043
 Alpha  occ. eigenvalues --   -0.47946  -0.47545  -0.46928  -0.46190  -0.46112
 Alpha  occ. eigenvalues --   -0.45123  -0.44672  -0.43692  -0.43603  -0.43510
 Alpha  occ. eigenvalues --   -0.43393  -0.42679  -0.42021  -0.41740  -0.41418
 Alpha  occ. eigenvalues --   -0.41120  -0.40983  -0.40611  -0.40507  -0.38104
 Alpha  occ. eigenvalues --   -0.37708  -0.37063  -0.36621  -0.35631  -0.32083
 Alpha  occ. eigenvalues --   -0.31918  -0.31363  -0.30637  -0.30066  -0.29304
 Alpha  occ. eigenvalues --   -0.28410  -0.27312
 Alpha virt. eigenvalues --   -0.14584  -0.14089  -0.11436  -0.09756  -0.09100
 Alpha virt. eigenvalues --   -0.08618  -0.06830  -0.05631  -0.04740  -0.03835
 Alpha virt. eigenvalues --   -0.02819  -0.02450  -0.02061  -0.01608  -0.01309

 Mulliken charges:
               1
     1  N   -0.745572
     2  H    0.418305
     3  H    0.433840
     4  H    0.415792
     5  C   -0.119160
     6  H    0.220735
     7  C    0.689422
     8  C   -0.267406
     9  H    0.145366
    10  H    0.192019
    11  O   -0.623129
    12  C   -0.399478
    13  H    0.185945
    14  H    0.172588
    15  C    0.595000
    16  O   -0.603634
    17  O   -0.561568
    18  N   -0.575665
    19  H    0.395136
    20  C   -0.067031
    21  H    0.211972
    22  C    0.721443
    23  C   -0.431100
    24  H    0.192497
    25  H    0.182508
    26  O   -0.556323
    27  C    0.009628
    28  C    0.020676
    29  H    0.189057
    30  C    0.026649
    31  C    0.317602
    32  C   -0.235977
    33  H    0.115411
    34  N   -0.682946
    35  H    0.382616
    36  C   -0.162166
    37  H    0.143443
    38  C   -0.151383
    39  H    0.180028
    40  C   -0.143148
    41  H    0.129998
    42  N   -0.584906
    43  H    0.403118
    44  C   -0.079383
    45  H    0.211509
    46  C    0.638420
    47  C    0.154300
    48  H    0.148421
    49  O   -0.538401
    50  C   -0.493613
    51  H    0.175618
    52  H    0.169677
    53  H    0.174035
    54  O   -0.631179
    55  H    0.411285
    56  N   -0.594739
    57  H    0.362561
    58  C   -0.063840
    59  H    0.214056
    60  C    0.594557
    61  C   -0.273240
    62  H    0.179469
    63  H    0.156121
    64  O   -0.466350
    65  C   -0.299723
    66  H    0.165310
    67  H    0.155778
    68  C   -0.123612
    69  H    0.145747
    70  H    0.155344
    71  N   -0.677268
    72  H    0.384623
    73  N   -0.783062
    74  H    0.330577
    75  H    0.341486
    76  N   -0.642749
    77  H    0.276744
    78  C    0.570681
    79  O   -0.551326
    80  H    0.432082
    81  H    0.489883
 Sum of Mulliken charges =   1.00000

 Dipole moment (field-independent basis, Debye):
    X=             -8.2942    Y=              4.0761    Z=             10.9008  Tot=             14.2911
 Quadrupole moment (field-independent basis, Debye-Ang):
   XX=           -134.8303   YY=           -222.9057   ZZ=           -198.3359
   XY=            -49.4206   XZ=            -75.4199   YZ=             55.0171

 Normal termination of Gaussian 16 at Thu May 26 18:14:09 2022.
