 Gaussian 16, Revision C.01,
 Gaussian 16:  ES64L-G16RevC.01  3-Jul-2019

 -------------------------------------------------------------------
 # B3LYP/6-31G* guess=read geom=check nosymm integral(ultrafinegrid)
 -------------------------------------------------------------------

 ------------------------------------------------------
 Candidate Structure: Conf:538 Charge calc in gas phase
 ------------------------------------------------------
 Structure from the checkpoint file:  "conf-538.chk"
 Charge =  1 Multiplicity = 1

                          Input orientation:
 ---------------------------------------------------------------------
 Center     Atomic      Atomic             Coordinates (Angstroms)
 Number     Number       Type             X           Y           Z
 ---------------------------------------------------------------------
      1          7           0       -4.383516   -0.880189    2.305742
      2          1           0       -5.247809   -1.253705    1.901974
      3          1           0       -3.563481   -1.395292    1.884751
      4          1           0       -4.411907   -1.007826    3.321337
      5          6           0       -4.107220    0.557336    1.895680
      6          1           0       -5.055288    1.023096    1.616320
      7          6           0       -3.137741    0.395948    0.701924
      8          6           0       -3.417425    1.329709    3.038755
      9          1           0       -3.175726    2.321966    2.646923
     10          1           0       -4.124264    1.487601    3.860454
     11          8           0       -2.486847   -0.661395    0.634115
     12          6           0       -2.122545    0.666234    3.541766
     13          1           0       -1.564346    0.223801    2.717914
     14          1           0       -2.336904   -0.142453    4.256076
     15          6           0       -1.243354    1.679082    4.287240
     16          8           0       -1.725787    2.540568    4.983571
     17          8           0        0.074499    1.507569    4.150012
     18          7           0       -3.001840    1.440623   -0.108053
     19          1           0       -3.583961    2.257801    0.047455
     20          6           0       -1.796208    1.624060   -0.926234
     21          1           0       -1.648188    0.726256   -1.531841
     22          6           0       -0.618212    1.838145    0.057557
     23          6           0       -1.954560    2.872278   -1.839188
     24          1           0       -1.154746    2.829017   -2.586019
     25          1           0       -1.762854    3.766672   -1.233549
     26          8           0       -0.808455    2.442515    1.111344
     27          6           0       -3.301099    2.989194   -2.491957
     28          6           0       -3.710353    2.462813   -3.693603
     29          1           0       -3.149491    1.904259   -4.430992
     30          6           0       -4.453338    3.646800   -1.921754
     31          6           0       -5.532261    3.468181   -2.830805
     32          6           0       -4.677501    4.371864   -0.733863
     33          1           0       -3.861633    4.577951   -0.042111
     34          7           0       -5.045573    2.740598   -3.898271
     35          1           0       -5.563148    2.512639   -4.733724
     36          6           0       -7.003429    4.679485   -1.396294
     37          1           0       -7.982930    5.093817   -1.177049
     38          6           0       -6.809950    3.979668   -2.582224
     39          1           0       -7.622483    3.841094   -3.290119
     40          6           0       -5.948646    4.876228   -0.481636
     41          1           0       -6.129416    5.450350    0.422513
     42          7           0        0.580808    1.343753   -0.340873
     43          1           0        0.628113    0.829588   -1.238099
     44          6           0        1.782335    1.514005    0.482678
     45          1           0        1.578151    2.365801    1.142845
     46          6           0        3.010754    1.854076   -0.390291
     47          6           0        2.054366    0.272170    1.381382
     48          1           0        2.447367   -0.535636    0.749334
     49          8           0        4.127336    1.416046   -0.137970
     50          6           0        3.018604    0.552182    2.525672
     51          1           0        4.002093    0.808765    2.132395
     52          1           0        3.104798   -0.339297    3.154463
     53          1           0        2.653889    1.377320    3.148146
     54          8           0        0.823797   -0.176623    1.987280
     55          1           0        0.290341    0.873903    3.424173
     56          7           0        2.760968    2.667406   -1.454907
     57          1           0        1.862333    3.130518   -1.528461
     58          6           0        3.826891    3.245775   -2.262892
     59          1           0        4.756845    3.208719   -1.687722
     60          6           0        3.446541    4.696334   -2.537250
     61          6           0        4.018192    2.503470   -3.611933
     62          1           0        4.717759    3.075316   -4.231498
     63          1           0        3.047587    2.530326   -4.125117
     64          8           0        2.320460    5.135759   -2.428450
     65          6           0        4.503261    1.048572   -3.448035
     66          1           0        5.597850    1.013872   -3.508768
     67          1           0        4.245540    0.671276   -2.455574
     68          6           0        3.929057    0.082959   -4.499011
     69          1           0        4.202145    0.389185   -5.514139
     70          1           0        4.361625   -0.913990   -4.359103
     71          7           0        2.458188   -0.018487   -4.488355
     72          1           0        1.997602    0.697028   -5.035303
     73          7           0        2.334220   -1.302578   -2.539975
     74          1           0        1.681144   -1.741343   -1.903584
     75          1           0        2.959635   -1.963640   -2.982572
     76          7           0        0.569311    0.103476   -3.031648
     77          1           0        0.296415    0.848709   -3.673784
     78          6           0        1.734553   -0.370783   -3.365019
     79          8           0        4.495161    5.418829   -2.964148
     80          1           0        4.170377    6.320792   -3.151868
     81          1           0        0.183581   -0.344287    1.275045
 ---------------------------------------------------------------------

 SCF Done:  E(RB3LYP) =  -2053.92371724     A.U. after    1 cycles

 Alpha  occ. eigenvalues --  -19.28429 -19.27182 -19.24915 -19.24721 -19.22975
 Alpha  occ. eigenvalues --  -19.21438 -19.19985 -19.19695 -14.60672 -14.49674
 Alpha  occ. eigenvalues --  -14.46863 -14.45441 -14.44575 -14.44407 -14.44086
 Alpha  occ. eigenvalues --  -14.38795 -10.43643 -10.40905 -10.40837 -10.38856
 Alpha  occ. eigenvalues --  -10.38619 -10.38451 -10.37543 -10.34390 -10.32794
 Alpha  occ. eigenvalues --  -10.32638 -10.32394 -10.32025 -10.31233 -10.31052
 Alpha  occ. eigenvalues --  -10.30619 -10.30480 -10.29999 -10.27890 -10.27513
 Alpha  occ. eigenvalues --  -10.27468 -10.27437 -10.27413 -10.26779 -10.26683
 Alpha  occ. eigenvalues --  -10.26427 -10.24002  -1.19467  -1.19443  -1.15887
 Alpha  occ. eigenvalues --   -1.14479  -1.13500  -1.12119  -1.11467  -1.10536
 Alpha  occ. eigenvalues --   -1.07878  -1.07481  -1.06803  -1.06278  -1.02114
 Alpha  occ. eigenvalues --   -1.00513  -0.98205  -0.94114  -0.94049  -0.92508
 Alpha  occ. eigenvalues --   -0.90479  -0.88313  -0.86945  -0.85753  -0.84532
 Alpha  occ. eigenvalues --   -0.83000  -0.82143  -0.80762  -0.78969  -0.77418
 Alpha  occ. eigenvalues --   -0.76193  -0.75631  -0.74300  -0.73107  -0.72178
 Alpha  occ. eigenvalues --   -0.71155  -0.70876  -0.70634  -0.68398  -0.67995
 Alpha  occ. eigenvalues --   -0.67815  -0.67702  -0.66991  -0.66750  -0.66299
 Alpha  occ. eigenvalues --   -0.64760  -0.64520  -0.63090  -0.62879  -0.62476
 Alpha  occ. eigenvalues --   -0.61121  -0.60375  -0.60020  -0.59082  -0.58854
 Alpha  occ. eigenvalues --   -0.57860  -0.57596  -0.57134  -0.56894  -0.56521
 Alpha  occ. eigenvalues --   -0.55777  -0.55730  -0.55540  -0.54659  -0.54460
 Alpha  occ. eigenvalues --   -0.54171  -0.53790  -0.52873  -0.52577  -0.52171
 Alpha  occ. eigenvalues --   -0.51809  -0.51669  -0.51618  -0.51231  -0.51087
 Alpha  occ. eigenvalues --   -0.50650  -0.50525  -0.49967  -0.49923  -0.49588
 Alpha  occ. eigenvalues --   -0.49039  -0.48402  -0.47998  -0.47911  -0.47358
 Alpha  occ. eigenvalues --   -0.47239  -0.46752  -0.46464  -0.46117  -0.45528
 Alpha  occ. eigenvalues --   -0.44609  -0.44253  -0.43873  -0.43612  -0.43060
 Alpha  occ. eigenvalues --   -0.42889  -0.42452  -0.42223  -0.42122  -0.41962
 Alpha  occ. eigenvalues --   -0.41307  -0.40466  -0.39899  -0.38100  -0.37499
 Alpha  occ. eigenvalues --   -0.37185  -0.36833  -0.36303  -0.35690  -0.35280
 Alpha  occ. eigenvalues --   -0.35114  -0.34110  -0.33667  -0.32913  -0.32013
 Alpha  occ. eigenvalues --   -0.30970  -0.29161
 Alpha virt. eigenvalues --   -0.13041  -0.11508  -0.10108  -0.08263  -0.07878
 Alpha virt. eigenvalues --   -0.07101  -0.06478  -0.06368  -0.05317  -0.04997
 Alpha virt. eigenvalues --   -0.04544  -0.03709  -0.02793  -0.02254  -0.01265

 Mulliken charges:
               1
     1  N   -0.748227
     2  H    0.418372
     3  H    0.430510
     4  H    0.418579
     5  C   -0.137433
     6  H    0.216972
     7  C    0.662031
     8  C   -0.289374
     9  H    0.226183
    10  H    0.195214
    11  O   -0.554833
    12  C   -0.426316
    13  H    0.178452
    14  H    0.164913
    15  C    0.636238
    16  O   -0.450596
    17  O   -0.597578
    18  N   -0.581961
    19  H    0.366933
    20  C   -0.046041
    21  H    0.207445
    22  C    0.587516
    23  C   -0.415898
    24  H    0.170375
    25  H    0.191776
    26  O   -0.533444
    27  C    0.074323
    28  C    0.007629
    29  H    0.161306
    30  C    0.066239
    31  C    0.316226
    32  C   -0.260136
    33  H    0.144067
    34  N   -0.686681
    35  H    0.342493
    36  C   -0.153088
    37  H    0.147391
    38  C   -0.157813
    39  H    0.144937
    40  C   -0.141948
    41  H    0.143485
    42  N   -0.683046
    43  H    0.406813
    44  C   -0.080725
    45  H    0.212742
    46  C    0.625680
    47  C    0.140991
    48  H    0.143680
    49  O   -0.517404
    50  C   -0.487129
    51  H    0.204534
    52  H    0.165801
    53  H    0.170395
    54  O   -0.658793
    55  H    0.463937
    56  N   -0.605169
    57  H    0.348046
    58  C   -0.047561
    59  H    0.210919
    60  C    0.582415
    61  C   -0.264242
    62  H    0.175285
    63  H    0.117987
    64  O   -0.468995
    65  C   -0.284844
    66  H    0.160755
    67  H    0.201531
    68  C   -0.168810
    69  H    0.169202
    70  H    0.161321
    71  N   -0.579187
    72  H    0.325236
    73  N   -0.730309
    74  H    0.344964
    75  H    0.346874
    76  N   -0.726413
    77  H    0.275051
    78  C    0.625168
    79  O   -0.553726
    80  H    0.426811
    81  H    0.411973
 Sum of Mulliken charges =   1.00000

 Dipole moment (field-independent basis, Debye):
    X=            -13.3570    Y=             -0.4214    Z=             -8.0102  Tot=             15.5805
 Quadrupole moment (field-independent basis, Debye-Ang):
   XX=           -118.5601   YY=           -220.6079   ZZ=           -194.8839
   XY=              9.3549   XZ=            -38.9307   YZ=            -43.8038

 Normal termination of Gaussian 16 at Thu May 26 18:13:21 2022.
