 Gaussian 16, Revision C.01,
 Gaussian 16:  ES64L-G16RevC.01  3-Jul-2019

 -------------------------------------------------------------------
 # B3LYP/6-31G* guess=read geom=check nosymm integral(ultrafinegrid)
 -------------------------------------------------------------------

 ------------------------------------------------------
 Candidate Structure: Conf:883 Charge calc in gas phase
 ------------------------------------------------------
 Structure from the checkpoint file:  "conf-883.chk"
 Charge =  1 Multiplicity = 1

                          Input orientation:
 ---------------------------------------------------------------------
 Center     Atomic      Atomic             Coordinates (Angstroms)
 Number     Number       Type             X           Y           Z
 ---------------------------------------------------------------------
      1          7           0       -4.843693   -2.093441    0.392873
      2          1           0       -5.768130   -1.657900    0.494433
      3          1           0       -4.729959   -2.372930   -0.591052
      4          1           0       -4.794471   -2.946376    0.978798
      5          6           0       -3.690455   -1.200545    0.818935
      6          1           0       -3.990049   -0.713922    1.749983
      7          6           0       -3.370501   -0.209967   -0.257674
      8          6           0       -2.422509   -2.070753    1.043695
      9          1           0       -2.049562   -2.413394    0.070681
     10          1           0       -1.658076   -1.397214    1.438210
     11          8           0       -3.682155   -0.573012   -1.484608
     12          6           0       -2.574333   -3.233707    2.006234
     13          1           0       -3.134169   -4.086035    1.597970
     14          1           0       -3.041611   -2.926323    2.951236
     15          6           0       -1.099078   -3.811194    2.383154
     16          8           0       -1.146718   -4.906824    2.933008
     17          8           0       -0.142042   -3.052750    2.080434
     18          7           0       -2.628617    0.819928    0.015224
     19          1           0       -2.367492    1.066344    0.993592
     20          6           0       -1.592124    1.399646   -0.877271
     21          1           0       -1.252317    0.598771   -1.541938
     22          6           0       -0.462405    1.679446    0.163230
     23          6           0       -2.107043    2.586214   -1.711023
     24          1           0       -1.261504    2.956345   -2.306253
     25          1           0       -2.405956    3.395169   -1.035202
     26          8           0       -0.798042    1.873055    1.337266
     27          6           0       -3.268667    2.198728   -2.595348
     28          6           0       -3.196176    1.633623   -3.859735
     29          1           0       -2.325100    1.373919   -4.447228
     30          6           0       -4.676678    2.429363   -2.338187
     31          6           0       -5.391655    1.979338   -3.480533
     32          6           0       -5.393830    2.976845   -1.257276
     33          1           0       -4.874796    3.350315   -0.378309
     34          7           0       -4.462030    1.494475   -4.382235
     35          1           0       -4.668273    1.160996   -5.312790
     36          6           0       -7.465667    2.595624   -2.486564
     37          1           0       -8.547514    2.680134   -2.525338
     38          6           0       -6.787185    2.050561   -3.568494
     39          1           0       -7.318112    1.706821   -4.451571
     40          6           0       -6.776764    3.056201   -1.343374
     41          1           0       -7.341866    3.492430   -0.524973
     42          7           0        0.788359    1.594681   -0.291965
     43          1           0        0.970306    1.530737   -1.290889
     44          6           0        1.883427    1.150465    0.571921
     45          1           0        1.789047    1.664021    1.531944
     46          6           0        3.166526    1.515912   -0.186866
     47          6           0        1.810847   -0.407134    0.778790
     48          1           0        2.345385   -0.861849   -0.068035
     49          8           0        3.290769    1.148505   -1.354488
     50          6           0        2.480929   -0.812251    2.090729
     51          1           0        3.539985   -0.528300    2.101555
     52          1           0        2.413711   -1.895974    2.227217
     53          1           0        1.978643   -0.335832    2.940325
     54          8           0        0.448720   -0.798058    0.730121
     55          1           0        0.332836   -1.664831    1.204026
     56          7           0        4.092441    2.250905    0.468511
     57          1           0        3.987564    2.491458    1.448146
     58          6           0        5.361251    2.615837   -0.151942
     59          1           0        5.834641    1.710949   -0.552944
     60          6           0        6.249764    3.164874    0.954360
     61          6           0        5.193008    3.609303   -1.328535
     62          1           0        4.490207    3.143652   -2.022763
     63          1           0        6.154840    3.677978   -1.849020
     64          8           0        5.882692    3.363529    2.093573
     65          6           0        4.721277    5.016870   -0.926925
     66          1           0        4.019742    4.961208   -0.083210
     67          1           0        5.577985    5.606647   -0.575340
     68          6           0        4.031545    5.783828   -2.075877
     69          1           0        4.117904    6.862189   -1.905886
     70          1           0        4.531992    5.577960   -3.026241
     71          7           0        2.596561    5.502749   -2.221440
     72          1           0        2.048704    5.832481   -1.436020
     73          7           0        2.740085    3.898670   -3.912187
     74          1           0        2.253224    3.142919   -4.376581
     75          1           0        3.098920    4.597170   -4.551889
     76          7           0        0.951494    3.793367   -2.434376
     77          1           0        0.668241    4.168640   -1.526894
     78          6           0        2.042964    4.380479   -2.817318
     79          8           0        7.492868    3.422152    0.513270
     80          1           0        8.000071    3.771981    1.271019
     81          1           0       -3.469143    0.160642   -2.140493
 ---------------------------------------------------------------------

 SCF Done:  E(RB3LYP) =  -2053.81403076     A.U. after    2 cycles

 Alpha  occ. eigenvalues --  -19.38289 -19.27912 -19.23279 -19.22508 -19.19588
 Alpha  occ. eigenvalues --  -19.19386 -19.14028 -19.12999 -14.63916 -14.54588
 Alpha  occ. eigenvalues --  -14.50199 -14.45911 -14.44473 -14.42934 -14.42013
 Alpha  occ. eigenvalues --  -14.36867 -10.49896 -10.43669 -10.40428 -10.40396
 Alpha  occ. eigenvalues --  -10.37837 -10.36984 -10.36405 -10.34807 -10.33592
 Alpha  occ. eigenvalues --  -10.32455 -10.32017 -10.31916 -10.31663 -10.31610
 Alpha  occ. eigenvalues --  -10.31380 -10.30599 -10.30353 -10.30081 -10.29916
 Alpha  occ. eigenvalues --  -10.29832 -10.29323 -10.29015 -10.27558 -10.26259
 Alpha  occ. eigenvalues --  -10.25965 -10.23430  -1.28139  -1.18991  -1.18236
 Alpha  occ. eigenvalues --   -1.15834  -1.11917  -1.11381  -1.10129  -1.10080
 Alpha  occ. eigenvalues --   -1.07362  -1.06594  -1.05454  -1.02494  -1.00779
 Alpha  occ. eigenvalues --   -0.98816  -0.97018  -0.96429  -0.95160  -0.93011
 Alpha  occ. eigenvalues --   -0.92211  -0.89439  -0.87639  -0.86213  -0.84897
 Alpha  occ. eigenvalues --   -0.84735  -0.83464  -0.81851  -0.81111  -0.79554
 Alpha  occ. eigenvalues --   -0.78066  -0.76598  -0.76215  -0.75123  -0.74150
 Alpha  occ. eigenvalues --   -0.73612  -0.72818  -0.71031  -0.70674  -0.69981
 Alpha  occ. eigenvalues --   -0.69307  -0.68592  -0.67989  -0.67600  -0.66535
 Alpha  occ. eigenvalues --   -0.65383  -0.64848  -0.64388  -0.63709  -0.62635
 Alpha  occ. eigenvalues --   -0.61649  -0.60991  -0.59708  -0.59566  -0.58711
 Alpha  occ. eigenvalues --   -0.58052  -0.57477  -0.57031  -0.56744  -0.56506
 Alpha  occ. eigenvalues --   -0.56198  -0.55950  -0.55627  -0.55174  -0.55006
 Alpha  occ. eigenvalues --   -0.54845  -0.54191  -0.53772  -0.53683  -0.53367
 Alpha  occ. eigenvalues --   -0.52798  -0.52688  -0.52370  -0.52052  -0.51517
 Alpha  occ. eigenvalues --   -0.50829  -0.50168  -0.49717  -0.49647  -0.48701
 Alpha  occ. eigenvalues --   -0.48561  -0.48235  -0.47542  -0.47406  -0.46971
 Alpha  occ. eigenvalues --   -0.46459  -0.46324  -0.46167  -0.45965  -0.45484
 Alpha  occ. eigenvalues --   -0.45065  -0.44732  -0.44690  -0.43888  -0.43661
 Alpha  occ. eigenvalues --   -0.43083  -0.42743  -0.41867  -0.41392  -0.41324
 Alpha  occ. eigenvalues --   -0.40080  -0.39555  -0.38962  -0.37841  -0.36161
 Alpha  occ. eigenvalues --   -0.35728  -0.35255  -0.33996  -0.33962  -0.33610
 Alpha  occ. eigenvalues --   -0.33083  -0.32487  -0.31769  -0.30346  -0.28924
 Alpha  occ. eigenvalues --   -0.28602  -0.26882
 Alpha virt. eigenvalues --   -0.19726  -0.13766  -0.12932  -0.09659  -0.08831
 Alpha virt. eigenvalues --   -0.07885  -0.07442  -0.06680  -0.06529  -0.06115
 Alpha virt. eigenvalues --   -0.05539  -0.04583  -0.03157  -0.02841  -0.02490

 Mulliken charges:
               1
     1  N   -0.726397
     2  H    0.424599
     3  H    0.431513
     4  H    0.425211
     5  C   -0.144645
     6  H    0.236182
     7  C    0.641837
     8  C   -0.292422
     9  H    0.181320
    10  H    0.234747
    11  O   -0.597876
    12  C   -0.436929
    13  H    0.142832
    14  H    0.161774
    15  C    0.623261
    16  O   -0.510045
    17  O   -0.588644
    18  N   -0.546928
    19  H    0.410363
    20  C   -0.119788
    21  H    0.197275
    22  C    0.667449
    23  C   -0.356967
    24  H    0.243965
    25  H    0.180341
    26  O   -0.542657
    27  C   -0.069186
    28  C   -0.007871
    29  H    0.190552
    30  C    0.104490
    31  C    0.304118
    32  C   -0.219007
    33  H    0.139940
    34  N   -0.664598
    35  H    0.352193
    36  C   -0.151031
    37  H    0.157659
    38  C   -0.160185
    39  H    0.153979
    40  C   -0.142824
    41  H    0.151374
    42  N   -0.597686
    43  H    0.370732
    44  C   -0.061732
    45  H    0.174135
    46  C    0.618188
    47  C    0.179268
    48  H    0.144507
    49  O   -0.532860
    50  C   -0.493068
    51  H    0.142590
    52  H    0.201902
    53  H    0.159435
    54  O   -0.734538
    55  H    0.468771
    56  N   -0.626108
    57  H    0.360374
    58  C   -0.035276
    59  H    0.203347
    60  C    0.586066
    61  C   -0.296443
    62  H    0.219404
    63  H    0.165249
    64  O   -0.466053
    65  C   -0.273206
    66  H    0.138639
    67  H    0.153833
    68  C   -0.155329
    69  H    0.165135
    70  H    0.163766
    71  N   -0.584985
    72  H    0.318021
    73  N   -0.728311
    74  H    0.340409
    75  H    0.336380
    76  N   -0.706852
    77  H    0.265341
    78  C    0.611196
    79  O   -0.559777
    80  H    0.427534
    81  H    0.459029
 Sum of Mulliken charges =   1.00000

 Dipole moment (field-independent basis, Debye):
    X=            -16.9300    Y=             10.8231    Z=            -11.5012  Tot=             23.1526
 Quadrupole moment (field-independent basis, Debye-Ang):
   XX=            -63.0944   YY=           -230.6042   ZZ=           -213.7070
   XY=             55.9966   XZ=             18.4627   YZ=              6.6916

 Normal termination of Gaussian 16 at Thu May 26 18:14:36 2022.
