 Gaussian 16, Revision C.01,
 Gaussian 16:  ES64L-G16RevC.01  3-Jul-2019

 -------------------------------------------------------------------
 # B3LYP/6-31G* guess=read geom=check nosymm integral(ultrafinegrid)
 -------------------------------------------------------------------

 ------------------------------------------------------
 Candidate Structure: Conf:746 Charge calc in gas phase
 ------------------------------------------------------
 Structure from the checkpoint file:  "conf-746.chk"
 Charge =  1 Multiplicity = 1

                          Input orientation:
 ---------------------------------------------------------------------
 Center     Atomic      Atomic             Coordinates (Angstroms)
 Number     Number       Type             X           Y           Z
 ---------------------------------------------------------------------
      1          7           0       -3.664333    2.121108   -4.509897
      2          1           0       -4.499709    2.636108   -4.209685
      3          1           0       -2.847998    2.738046   -4.351360
      4          1           0       -3.760241    1.903233   -5.507708
      5          6           0       -3.430345    0.865381   -3.670955
      6          1           0       -4.408950    0.433384   -3.457762
      7          6           0       -2.750451    1.330424   -2.385662
      8          6           0       -2.554560   -0.112532   -4.480844
      9          1           0       -3.062407   -0.317888   -5.433497
     10          1           0       -1.588402    0.359938   -4.695807
     11          8           0       -2.060466    2.461083   -2.561005
     12          6           0       -2.293069   -1.454907   -3.763249
     13          1           0       -1.651152   -1.291361   -2.893970
     14          1           0       -1.751449   -2.098893   -4.459075
     15          6           0       -3.600109   -2.167777   -3.405049
     16          8           0       -4.106727   -2.997078   -4.119167
     17          8           0       -4.205735   -1.757610   -2.266715
     18          7           0       -2.863170    0.592427   -1.351914
     19          1           0       -3.674192   -1.068906   -1.795645
     20          6           0       -2.207620    0.941935   -0.070690
     21          1           0       -2.498631    1.961335    0.213304
     22          6           0       -0.693097    1.012143   -0.319899
     23          6           0       -2.710388   -0.049923    0.997974
     24          1           0       -2.493766   -1.072206    0.661924
     25          1           0       -3.805352    0.035512    0.989587
     26          8           0       -0.232156    1.977511   -0.980086
     27          6           0       -2.174068    0.165705    2.384212
     28          6           0       -1.490085   -0.762966    3.135045
     29          1           0       -1.209121   -1.778170    2.886423
     30          6           0       -2.309532    1.343003    3.212049
     31          6           0       -1.668310    1.056699    4.448385
     32          6           0       -2.923627    2.599102    3.048137
     33          1           0       -3.450127    2.847885    2.129789
     34          7           0       -1.169126   -0.229053    4.364389
     35          1           0       -0.745391   -0.739015    5.124674
     36          6           0       -2.223072    3.211684    5.300257
     37          1           0       -2.202833    3.950336    6.095992
     38          6           0       -1.614089    1.979164    5.498413
     39          1           0       -1.120780    1.739856    6.436420
     40          6           0       -2.874651    3.517759    4.087759
     41          1           0       -3.350845    4.486965    3.971625
     42          7           0        0.079782    0.005251    0.072963
     43          1           0       -0.247028   -0.653229    0.773803
     44          6           0        1.465680   -0.159357   -0.335253
     45          1           0        2.096872    0.582167    0.173970
     46          6           0        1.586628    0.007428   -1.867915
     47          6           0        1.895587   -1.600624    0.086185
     48          1           0        1.402974   -2.297708   -0.599658
     49          8           0        0.708318   -0.384876   -2.633431
     50          6           0        3.405367   -1.808606    0.060435
     51          1           0        3.830438   -1.621501   -0.929979
     52          1           0        3.638115   -2.838533    0.344431
     53          1           0        3.905344   -1.135359    0.770040
     54          8           0        1.343199   -1.912746    1.366942
     55          1           0        1.896299   -1.494802    2.048486
     56          7           0        2.750197    0.557867   -2.280795
     57          1           0        3.483994    0.776770   -1.616506
     58          6           0        3.133226    0.629388   -3.682889
     59          1           0        2.698422   -0.233805   -4.199180
     60          6           0        4.653012    0.504709   -3.732611
     61          6           0        2.632539    1.914283   -4.384764
     62          1           0        1.537547    1.902907   -4.316193
     63          1           0        2.893108    1.837820   -5.447029
     64          8           0        5.365374    0.466976   -2.751494
     65          6           0        3.189732    3.214921   -3.795160
     66          1           0        2.934103    3.278514   -2.729023
     67          1           0        4.284203    3.228510   -3.869149
     68          6           0        2.649702    4.459245   -4.518742
     69          1           0        2.894405    4.396432   -5.583329
     70          1           0        1.554472    4.490122   -4.450622
     71          7           0        3.149276    5.732651   -3.997201
     72          1           0        2.776179    5.958995   -3.081973
     73          7           0        5.094015    5.689521   -5.304605
     74          1           0        6.033835    6.068858   -5.360632
     75          1           0        4.548261    5.948842   -6.121082
     76          7           0        5.218267    6.673131   -3.210162
     77          1           0        4.715241    6.772713   -2.326023
     78          6           0        4.509080    6.071393   -4.091316
     79          8           0        5.106703    0.456548   -4.994431
     80          1           0        6.081277    0.402532   -4.952665
     81          1           0       -1.267406    2.471419   -1.860017
 ---------------------------------------------------------------------

 SCF Done:  E(RB3LYP) =  -2053.88745292     A.U. after    3 cycles

 Alpha  occ. eigenvalues --  -19.31037 -19.29418 -19.26318 -19.26280 -19.25518
 Alpha  occ. eigenvalues --  -19.24031 -19.22136 -19.20976 -14.62486 -14.48338
 Alpha  occ. eigenvalues --  -14.46439 -14.46327 -14.46065 -14.41488 -14.39810
 Alpha  occ. eigenvalues --  -14.34288 -10.43207 -10.42001 -10.41718 -10.41233
 Alpha  occ. eigenvalues --  -10.39736 -10.39594 -10.35426 -10.35072 -10.34678
 Alpha  occ. eigenvalues --  -10.34297 -10.33811 -10.33739 -10.30358 -10.30212
 Alpha  occ. eigenvalues --  -10.29979 -10.29667 -10.29604 -10.28446 -10.27993
 Alpha  occ. eigenvalues --  -10.27052 -10.26770 -10.26433 -10.26337 -10.26271
 Alpha  occ. eigenvalues --  -10.25709 -10.25450  -1.21282  -1.20516  -1.17124
 Alpha  occ. eigenvalues --   -1.17020  -1.15872  -1.13974  -1.13502  -1.11632
 Alpha  occ. eigenvalues --   -1.09108  -1.05987  -1.05188  -1.04302  -1.03436
 Alpha  occ. eigenvalues --   -1.03049  -0.94988  -0.94881  -0.91621  -0.90889
 Alpha  occ. eigenvalues --   -0.90194  -0.89529  -0.87797  -0.86855  -0.84671
 Alpha  occ. eigenvalues --   -0.83167  -0.81393  -0.81079  -0.80142  -0.78769
 Alpha  occ. eigenvalues --   -0.76396  -0.76062  -0.75457  -0.74243  -0.73254
 Alpha  occ. eigenvalues --   -0.72380  -0.71144  -0.70333  -0.69965  -0.69444
 Alpha  occ. eigenvalues --   -0.68748  -0.67939  -0.67095  -0.66890  -0.65922
 Alpha  occ. eigenvalues --   -0.65636  -0.63995  -0.62812  -0.62658  -0.61927
 Alpha  occ. eigenvalues --   -0.61569  -0.60457  -0.60351  -0.59713  -0.59215
 Alpha  occ. eigenvalues --   -0.58621  -0.58494  -0.57746  -0.57424  -0.56582
 Alpha  occ. eigenvalues --   -0.56184  -0.55772  -0.54827  -0.54752  -0.54470
 Alpha  occ. eigenvalues --   -0.53906  -0.53830  -0.53487  -0.53267  -0.53053
 Alpha  occ. eigenvalues --   -0.52323  -0.51840  -0.51682  -0.51460  -0.51333
 Alpha  occ. eigenvalues --   -0.50699  -0.50590  -0.50484  -0.50189  -0.49962
 Alpha  occ. eigenvalues --   -0.49177  -0.49058  -0.48670  -0.48541  -0.47947
 Alpha  occ. eigenvalues --   -0.47842  -0.47652  -0.47383  -0.46998  -0.46588
 Alpha  occ. eigenvalues --   -0.45929  -0.45815  -0.44670  -0.43703  -0.43497
 Alpha  occ. eigenvalues --   -0.42929  -0.42634  -0.42419  -0.42288  -0.41536
 Alpha  occ. eigenvalues --   -0.41131  -0.40949  -0.40063  -0.39811  -0.38914
 Alpha  occ. eigenvalues --   -0.38226  -0.38009  -0.37632  -0.35931  -0.35905
 Alpha  occ. eigenvalues --   -0.35142  -0.34554  -0.32456  -0.31518  -0.29949
 Alpha  occ. eigenvalues --   -0.28654  -0.28365
 Alpha virt. eigenvalues --   -0.13954  -0.12385  -0.11017  -0.09083  -0.08829
 Alpha virt. eigenvalues --   -0.08159  -0.07391  -0.07260  -0.05040  -0.04888
 Alpha virt. eigenvalues --   -0.03705  -0.03285  -0.02533  -0.01458  -0.01094

 Mulliken charges:
               1
     1  N   -0.741166
     2  H    0.426204
     3  H    0.434626
     4  H    0.420317
     5  C   -0.128614
     6  H    0.242398
     7  C    0.599956
     8  C   -0.303449
     9  H    0.180889
    10  H    0.191796
    11  O   -0.674240
    12  C   -0.375773
    13  H    0.204847
    14  H    0.203467
    15  C    0.566519
    16  O   -0.426983
    17  O   -0.601019
    18  N   -0.493382
    19  H    0.448480
    20  C   -0.092485
    21  H    0.189356
    22  C    0.674988
    23  C   -0.391354
    24  H    0.160845
    25  H    0.184391
    26  O   -0.599027
    27  C    0.046162
    28  C   -0.014222
    29  H    0.173845
    30  C    0.087402
    31  C    0.309685
    32  C   -0.214785
    33  H    0.115621
    34  N   -0.688636
    35  H    0.340253
    36  C   -0.148782
    37  H    0.144932
    38  C   -0.157653
    39  H    0.140909
    40  C   -0.135520
    41  H    0.135823
    42  N   -0.611095
    43  H    0.385353
    44  C   -0.044997
    45  H    0.167002
    46  C    0.646468
    47  C    0.106160
    48  H    0.179702
    49  O   -0.552311
    50  C   -0.490309
    51  H    0.177837
    52  H    0.192185
    53  H    0.152673
    54  O   -0.623955
    55  H    0.404310
    56  N   -0.604397
    57  H    0.358665
    58  C   -0.048607
    59  H    0.200439
    60  C    0.594563
    61  C   -0.267859
    62  H    0.144591
    63  H    0.169470
    64  O   -0.465411
    65  C   -0.279786
    66  H    0.139492
    67  H    0.178458
    68  C   -0.134054
    69  H    0.157580
    70  H    0.129259
    71  N   -0.581973
    72  H    0.309075
    73  N   -0.740346
    74  H    0.343862
    75  H    0.323637
    76  N   -0.619658
    77  H    0.264585
    78  C    0.543956
    79  O   -0.556953
    80  H    0.432168
    81  H    0.483599
 Sum of Mulliken charges =   1.00000

 Dipole moment (field-independent basis, Debye):
    X=             -4.7800    Y=              8.2249    Z=            -11.4307  Tot=             14.8714
 Quadrupole moment (field-independent basis, Debye-Ang):
   XX=           -204.9346   YY=           -241.1298   ZZ=           -122.4005
   XY=            -60.9503   XZ=             26.4266   YZ=            -52.0490

 Normal termination of Gaussian 16 at Thu May 26 18:14:50 2022.
