 Gaussian 16, Revision C.01,
 Gaussian 16:  ES64L-G16RevC.01  3-Jul-2019

 -------------------------------------------------------------------
 # B3LYP/6-31G* guess=read geom=check nosymm integral(ultrafinegrid)
 -------------------------------------------------------------------

 ------------------------------------------------------
 Candidate Structure: Conf:102 Charge calc in gas phase
 ------------------------------------------------------
 Structure from the checkpoint file:  "conf-102.chk"
 Charge =  1 Multiplicity = 1

                          Input orientation:
 ---------------------------------------------------------------------
 Center     Atomic      Atomic             Coordinates (Angstroms)
 Number     Number       Type             X           Y           Z
 ---------------------------------------------------------------------
      1          7           0       -5.568130    1.261916    3.405299
      2          1           0       -6.173505    1.697485    2.676850
      3          1           0       -5.602894    0.228973    3.272858
      4          1           0       -5.915120    1.524147    4.331607
      5          6           0       -4.112083    1.623527    3.180446
      6          1           0       -4.078396    2.662628    2.850869
      7          6           0       -3.734090    0.622406    2.050209
      8          6           0       -3.307974    1.406888    4.486822
      9          1           0       -3.985178    1.500252    5.346314
     10          1           0       -2.929313    0.379147    4.508086
     11          8           0       -4.190077   -0.521688    2.150763
     12          6           0       -2.156161    2.412857    4.719357
     13          1           0       -1.639103    2.141445    5.642341
     14          1           0       -2.566892    3.421294    4.833706
     15          6           0       -1.179334    2.448265    3.557557
     16          8           0       -1.463508    2.960177    2.485684
     17          8           0       -0.037407    1.823092    3.820061
     18          7           0       -2.997596    1.098436    1.045210
     19          1           0       -2.586246    2.028835    1.126604
     20          6           0       -2.643740    0.339744   -0.161684
     21          1           0       -2.640782   -0.721964    0.098098
     22          6           0       -1.245740    0.869635   -0.525203
     23          6           0       -3.653864    0.607568   -1.312308
     24          1           0       -3.318886    0.035096   -2.186376
     25          1           0       -3.574123    1.666266   -1.582581
     26          8           0       -1.092424    2.072768   -0.688663
     27          6           0       -5.067587    0.239013   -0.963169
     28          6           0       -5.671581   -0.973047   -1.193408
     29          1           0       -5.293066   -1.842022   -1.714681
     30          6           0       -6.028544    1.030931   -0.233067
     31          6           0       -7.184373    0.217491   -0.035538
     32          6           0       -6.036966    2.342884    0.276738
     33          1           0       -5.196073    3.008911    0.101420
     34          7           0       -6.933809   -0.992267   -0.638158
     35          1           0       -7.586759   -1.758471   -0.709906
     36          6           0       -8.273656    1.953510    1.191995
     37          1           0       -9.135588    2.335118    1.731539
     38          6           0       -8.305239    0.662131    0.675345
     39          1           0       -9.175451    0.026331    0.812689
     40          6           0       -7.150979    2.792296    0.989161
     41          1           0       -7.181031    3.817770    1.348949
     42          7           0       -0.225306   -0.037866   -0.530840
     43          1           0       -0.399404   -1.026899   -0.696353
     44          6           0        1.149988    0.380662   -0.773848
     45          1           0        1.120145    1.408437   -1.145149
     46          6           0        1.746436   -0.604410   -1.791371
     47          6           0        1.964087    0.334006    0.571609
     48          1           0        2.306259   -0.700304    0.722863
     49          8           0        1.318927   -1.756934   -1.839712
     50          6           0        3.151931    1.281475    0.585854
     51          1           0        3.876581    1.009844   -0.187908
     52          1           0        3.658808    1.226931    1.553831
     53          1           0        2.822282    2.313920    0.424840
     54          8           0        1.106899    0.682810    1.662668
     55          1           0        0.521986    1.759792    3.004111
     56          7           0        2.753273   -0.130308   -2.561957
     57          1           0        3.055301    0.828307   -2.446013
     58          6           0        3.549510   -0.978883   -3.445572
     59          1           0        3.224431   -2.006875   -3.268251
     60          6           0        5.035502   -0.919347   -3.098326
     61          6           0        3.360723   -0.629785   -4.939767
     62          1           0        4.100210   -1.202358   -5.508835
     63          1           0        3.601605    0.429681   -5.097531
     64          8           0        5.837464   -1.757828   -3.425279
     65          6           0        1.947462   -0.935340   -5.450218
     66          1           0        1.744220   -2.010293   -5.340069
     67          1           0        1.203418   -0.418761   -4.828554
     68          6           0        1.714487   -0.517635   -6.914154
     69          1           0        0.669117   -0.719132   -7.178686
     70          1           0        1.867879    0.559299   -7.017478
     71          7           0        2.566428   -1.190146   -7.895771
     72          1           0        2.488278   -2.200701   -7.879256
     73          7           0        4.006060    0.628396   -8.232017
     74          1           0        4.930750    0.862816   -8.578730
     75          1           0        3.284954    1.096890   -8.772842
     76          7           0        4.882970   -1.504525   -8.450422
     77          1           0        4.686691   -2.489932   -8.262587
     78          6           0        3.864298   -0.765507   -8.200559
     79          8           0        5.372099    0.212567   -2.423952
     80          1           0        6.339856    0.181109   -2.295784
     81          1           0        0.308531    0.134207    1.562005
 ---------------------------------------------------------------------

 SCF Done:  E(RB3LYP) =  -2053.92483777     A.U. after    1 cycles

 Alpha  occ. eigenvalues --  -19.28911 -19.27770 -19.25656 -19.25196 -19.24273
 Alpha  occ. eigenvalues --  -19.22311 -19.21416 -19.21057 -14.58871 -14.48704
 Alpha  occ. eigenvalues --  -14.48354 -14.46811 -14.45692 -14.39992 -14.38550
 Alpha  occ. eigenvalues --  -14.32888 -10.42749 -10.42493 -10.39809 -10.39678
 Alpha  occ. eigenvalues --  -10.39600 -10.38422 -10.34885 -10.34373 -10.34207
 Alpha  occ. eigenvalues --  -10.32950 -10.32751 -10.32472 -10.32154 -10.31921
 Alpha  occ. eigenvalues --  -10.31855 -10.29957 -10.29946 -10.29889 -10.29619
 Alpha  occ. eigenvalues --  -10.29526 -10.29335 -10.28581 -10.28169 -10.26565
 Alpha  occ. eigenvalues --  -10.26123 -10.25497  -1.20390  -1.18263  -1.17797
 Alpha  occ. eigenvalues --   -1.14777  -1.13142  -1.12820  -1.12685  -1.11525
 Alpha  occ. eigenvalues --   -1.09290  -1.08379  -1.05288  -1.02694  -1.02061
 Alpha  occ. eigenvalues --   -1.01942  -0.94921  -0.93994  -0.93477  -0.91221
 Alpha  occ. eigenvalues --   -0.88887  -0.88555  -0.87626  -0.86203  -0.85300
 Alpha  occ. eigenvalues --   -0.84383  -0.82727  -0.81698  -0.79949  -0.79033
 Alpha  occ. eigenvalues --   -0.76475  -0.74120  -0.73100  -0.72943  -0.72136
 Alpha  occ. eigenvalues --   -0.71148  -0.70248  -0.69886  -0.69609  -0.69276
 Alpha  occ. eigenvalues --   -0.68804  -0.68151  -0.67266  -0.66713  -0.65357
 Alpha  occ. eigenvalues --   -0.64781  -0.64320  -0.63222  -0.62179  -0.61776
 Alpha  occ. eigenvalues --   -0.60776  -0.59801  -0.59282  -0.58929  -0.58654
 Alpha  occ. eigenvalues --   -0.58330  -0.57966  -0.57554  -0.56958  -0.56501
 Alpha  occ. eigenvalues --   -0.56323  -0.55695  -0.55245  -0.54945  -0.54291
 Alpha  occ. eigenvalues --   -0.54071  -0.53871  -0.53724  -0.53258  -0.52470
 Alpha  occ. eigenvalues --   -0.52080  -0.51898  -0.51629  -0.51497  -0.50865
 Alpha  occ. eigenvalues --   -0.50785  -0.50517  -0.50367  -0.49814  -0.49022
 Alpha  occ. eigenvalues --   -0.48968  -0.48879  -0.48656  -0.48011  -0.47810
 Alpha  occ. eigenvalues --   -0.47575  -0.47342  -0.47295  -0.47140  -0.46742
 Alpha  occ. eigenvalues --   -0.45824  -0.45629  -0.44528  -0.44470  -0.44128
 Alpha  occ. eigenvalues --   -0.44010  -0.43207  -0.42534  -0.41832  -0.41203
 Alpha  occ. eigenvalues --   -0.40514  -0.39808  -0.39258  -0.38935  -0.38492
 Alpha  occ. eigenvalues --   -0.38048  -0.37752  -0.37021  -0.36566  -0.35926
 Alpha  occ. eigenvalues --   -0.34677  -0.33428  -0.33256  -0.30997  -0.30732
 Alpha  occ. eigenvalues --   -0.30183  -0.27133
 Alpha virt. eigenvalues --   -0.12349  -0.12069  -0.10751  -0.09195  -0.09100
 Alpha virt. eigenvalues --   -0.07850  -0.07320  -0.06567  -0.04661  -0.04283
 Alpha virt. eigenvalues --   -0.02732  -0.02146  -0.01397  -0.01297  -0.00491

 Mulliken charges:
               1
     1  N   -0.761895
     2  H    0.421243
     3  H    0.420550
     4  H    0.399395
     5  C   -0.097015
     6  H    0.216109
     7  C    0.635504
     8  C   -0.314106
     9  H    0.165200
    10  H    0.208650
    11  O   -0.540683
    12  C   -0.340214
    13  H    0.203574
    14  H    0.190339
    15  C    0.576949
    16  O   -0.486076
    17  O   -0.562927
    18  N   -0.619990
    19  H    0.412130
    20  C   -0.039639
    21  H    0.179912
    22  C    0.599747
    23  C   -0.361200
    24  H    0.169288
    25  H    0.186490
    26  O   -0.497365
    27  C    0.077816
    28  C    0.025229
    29  H    0.175007
    30  C    0.077402
    31  C    0.322515
    32  C   -0.245592
    33  H    0.152915
    34  N   -0.682186
    35  H    0.348112
    36  C   -0.168086
    37  H    0.155959
    38  C   -0.163317
    39  H    0.156004
    40  C   -0.218801
    41  H    0.152606
    42  N   -0.652842
    43  H    0.361455
    44  C   -0.073504
    45  H    0.194018
    46  C    0.618036
    47  C    0.145849
    48  H    0.153847
    49  O   -0.529376
    50  C   -0.484525
    51  H    0.170669
    52  H    0.180626
    53  H    0.169848
    54  O   -0.647906
    55  H    0.455509
    56  N   -0.596199
    57  H    0.351612
    58  C   -0.071847
    59  H    0.215349
    60  C    0.595752
    61  C   -0.275785
    62  H    0.193918
    63  H    0.157208
    64  O   -0.434903
    65  C   -0.265099
    66  H    0.144186
    67  H    0.134977
    68  C   -0.147037
    69  H    0.150396
    70  H    0.163783
    71  N   -0.582433
    72  H    0.311737
    73  N   -0.741908
    74  H    0.341601
    75  H    0.323449
    76  N   -0.626572
    77  H    0.266081
    78  C    0.551320
    79  O   -0.583757
    80  H    0.426383
    81  H    0.406533
 Sum of Mulliken charges =   1.00000

 Dipole moment (field-independent basis, Debye):
    X=            -20.1745    Y=              4.7589    Z=              8.6643  Tot=             22.4661
 Quadrupole moment (field-independent basis, Debye-Ang):
   XX=           -103.1040   YY=           -233.1823   ZZ=           -181.1675
   XY=              3.8352   XZ=            -43.4849   YZ=             16.4571

 Normal termination of Gaussian 16 at Thu May 26 18:13:24 2022.
