 Gaussian 16, Revision C.01,
 Gaussian 16:  ES64L-G16RevC.01  3-Jul-2019

 -------------------------------------------------------------------
 # B3LYP/6-31G* guess=read geom=check nosymm integral(ultrafinegrid)
 -------------------------------------------------------------------

 ------------------------------------------------------
 Candidate Structure: Conf:885 Charge calc in gas phase
 ------------------------------------------------------
 Structure from the checkpoint file:  "conf-885.chk"
 Charge =  1 Multiplicity = 1

                          Input orientation:
 ---------------------------------------------------------------------
 Center     Atomic      Atomic             Coordinates (Angstroms)
 Number     Number       Type             X           Y           Z
 ---------------------------------------------------------------------
      1          7           0       -2.495311   -1.891580    4.328502
      2          1           0       -2.405578   -2.778857    3.835990
      3          1           0       -0.987732   -1.048047    4.771767
      4          1           0       -3.021684   -2.067513    5.182665
      5          6           0       -3.176562   -0.859796    3.542177
      6          1           0       -4.254846   -1.051659    3.429828
      7          6           0       -2.586297   -0.788894    2.148662
      8          6           0       -2.993364    0.520544    4.254079
      9          1           0       -3.820586    1.173176    3.951714
     10          1           0       -3.136360    0.328804    5.324319
     11          8           0       -1.383209   -1.246805    2.006174
     12          6           0       -1.683799    1.295680    4.007327
     13          1           0       -1.746082    2.222489    4.588664
     14          1           0       -1.631881    1.635936    2.965375
     15          6           0       -0.287567    0.723937    4.335265
     16          8           0       -0.159663   -0.502154    4.844187
     17          8           0        0.680446    1.423172    4.127027
     18          7           0       -3.265837   -0.241834    1.167016
     19          1           0       -4.193069    0.113473    1.384776
     20          6           0       -2.785529   -0.035333   -0.231668
     21          1           0       -2.621911   -1.027627   -0.665626
     22          6           0       -1.456236    0.756277   -0.134571
     23          6           0       -3.853935    0.716831   -1.046798
     24          1           0       -3.951455    1.726357   -0.630284
     25          1           0       -4.812992    0.200215   -0.904643
     26          8           0       -1.441127    1.918778    0.216818
     27          6           0       -3.509295    0.773641   -2.507607
     28          6           0       -3.858462   -0.170103   -3.448792
     29          1           0       -4.443091   -1.074198   -3.339093
     30          6           0       -2.756622    1.794645   -3.202112
     31          6           0       -2.689668    1.395693   -4.564681
     32          6           0       -2.155797    3.010842   -2.822992
     33          1           0       -2.187429    3.349474   -1.792009
     34          7           0       -3.364098    0.194359   -4.676503
     35          1           0       -3.516060   -0.311314   -5.536376
     36          6           0       -1.459055    3.352165   -5.136245
     37          1           0       -0.953485    3.974371   -5.868731
     38          6           0       -2.043944    2.160331   -5.542264
     39          1           0       -2.007071    1.837951   -6.579049
     40          6           0       -1.516636    3.773108   -3.790976
     41          1           0       -1.054809    4.715220   -3.510387
     42          7           0       -0.333567   -0.041927   -0.276028
     43          1           0       -0.369876   -0.795620   -0.986414
     44          6           0        0.998699    0.583688   -0.371552
     45          1           0        0.881842    1.588633   -0.793744
     46          6           0        1.770917   -0.294481   -1.384612
     47          6           0        1.678716    0.761392    1.005705
     48          1           0        0.972348    1.302346    1.646782
     49          8           0        1.181420   -1.210512   -1.967842
     50          6           0        2.118641   -0.529126    1.693363
     51          1           0        1.277770   -1.213051    1.855304
     52          1           0        2.511646   -0.291751    2.687466
     53          1           0        2.884846   -1.051717    1.113379
     54          8           0        2.798159    1.614691    0.727328
     55          1           0        3.253591    1.792579    1.565857
     56          7           0        3.052877    0.050225   -1.599311
     57          1           0        3.462042    0.702927   -0.932042
     58          6           0        3.926132   -0.734306   -2.457296
     59          1           0        3.321312   -1.111002   -3.288384
     60          6           0        4.454615   -1.958549   -1.699733
     61          6           0        5.082781    0.123188   -3.007177
     62          1           0        5.767783   -0.530523   -3.553052
     63          1           0        5.654930    0.536997   -2.164133
     64          8           0        4.327744   -2.164396   -0.513818
     65          6           0        4.613019    1.258863   -3.925258
     66          1           0        4.017892    0.840283   -4.750584
     67          1           0        3.944172    1.936901   -3.381843
     68          6           0        5.771493    2.083253   -4.497688
     69          1           0        5.366150    2.954058   -5.039462
     70          1           0        6.378881    2.476601   -3.673721
     71          7           0        6.638766    1.267467   -5.335074
     72          1           0        6.144917    0.769634   -6.069909
     73          7           0        8.470289    0.922586   -6.706463
     74          1           0        9.397257    1.255521   -6.948176
     75          1           0        8.484153   -0.049786   -6.416117
     76          7           0        8.431999    2.887430   -5.469815
     77          1           0        7.819715    3.491065   -4.921635
     78          6           0        7.863715    1.784382   -5.787870
     79          8           0        5.104622   -2.793967   -2.534368
     80          1           0        5.431531   -3.539972   -1.995887
     81          1           0       -0.893169   -0.960503    1.158706
 ---------------------------------------------------------------------

 SCF Done:  E(RB3LYP) =  -2053.88592304     A.U. after    3 cycles

 Alpha  occ. eigenvalues --  -19.38026 -19.27823 -19.27092 -19.26424 -19.24846
 Alpha  occ. eigenvalues --  -19.22510 -19.22391 -19.21209 -14.57597 -14.50105
 Alpha  occ. eigenvalues --  -14.49146 -14.47154 -14.45359 -14.40135 -14.38073
 Alpha  occ. eigenvalues --  -14.32900 -10.50831 -10.43793 -10.40680 -10.40672
 Alpha  occ. eigenvalues --  -10.40276 -10.39795 -10.39225 -10.34261 -10.34221
 Alpha  occ. eigenvalues --  -10.33905 -10.32977 -10.32550 -10.32266 -10.31715
 Alpha  occ. eigenvalues --  -10.31525 -10.30413 -10.28491 -10.28472 -10.27320
 Alpha  occ. eigenvalues --  -10.27238 -10.26876 -10.26561 -10.26535 -10.26273
 Alpha  occ. eigenvalues --  -10.25908 -10.25831  -1.28573  -1.18937  -1.18825
 Alpha  occ. eigenvalues --   -1.17675  -1.14393  -1.13944  -1.11960  -1.09883
 Alpha  occ. eigenvalues --   -1.09423  -1.07074  -1.06477  -1.05811  -1.02399
 Alpha  occ. eigenvalues --   -1.02034  -0.95759  -0.93667  -0.92535  -0.91881
 Alpha  occ. eigenvalues --   -0.89419  -0.88534  -0.88253  -0.86900  -0.85511
 Alpha  occ. eigenvalues --   -0.82333  -0.81968  -0.81774  -0.81704  -0.80470
 Alpha  occ. eigenvalues --   -0.78671  -0.77028  -0.75334  -0.74473  -0.73113
 Alpha  occ. eigenvalues --   -0.71670  -0.70676  -0.69856  -0.68676  -0.68223
 Alpha  occ. eigenvalues --   -0.67972  -0.67740  -0.67180  -0.66626  -0.65862
 Alpha  occ. eigenvalues --   -0.65425  -0.64218  -0.63501  -0.63007  -0.62475
 Alpha  occ. eigenvalues --   -0.62160  -0.60317  -0.60020  -0.59116  -0.58957
 Alpha  occ. eigenvalues --   -0.58558  -0.58051  -0.57651  -0.57285  -0.57133
 Alpha  occ. eigenvalues --   -0.56852  -0.56261  -0.55940  -0.55724  -0.55136
 Alpha  occ. eigenvalues --   -0.54765  -0.53970  -0.53808  -0.53543  -0.53324
 Alpha  occ. eigenvalues --   -0.52816  -0.52532  -0.52260  -0.51938  -0.51681
 Alpha  occ. eigenvalues --   -0.50901  -0.50719  -0.50506  -0.50248  -0.49781
 Alpha  occ. eigenvalues --   -0.49726  -0.49473  -0.49201  -0.48674  -0.48147
 Alpha  occ. eigenvalues --   -0.47902  -0.47546  -0.47392  -0.47224  -0.46440
 Alpha  occ. eigenvalues --   -0.45639  -0.45247  -0.44931  -0.44295  -0.43774
 Alpha  occ. eigenvalues --   -0.43538  -0.42446  -0.41870  -0.41798  -0.41566
 Alpha  occ. eigenvalues --   -0.40835  -0.40765  -0.40586  -0.39977  -0.39908
 Alpha  occ. eigenvalues --   -0.38962  -0.37321  -0.36635  -0.36291  -0.36274
 Alpha  occ. eigenvalues --   -0.35189  -0.34803  -0.30778  -0.30697  -0.30013
 Alpha  occ. eigenvalues --   -0.29248  -0.27651
 Alpha virt. eigenvalues --   -0.19698  -0.14560  -0.10167  -0.09288  -0.08093
 Alpha virt. eigenvalues --   -0.07602  -0.07230  -0.06367  -0.05547  -0.04655
 Alpha virt. eigenvalues --   -0.03702  -0.02049  -0.01598  -0.01235  -0.00656

 Mulliken charges:
               1
     1  N   -0.761891
     2  H    0.351730
     3  H    0.467283
     4  H    0.357808
     5  C   -0.069141
     6  H    0.184387
     7  C    0.655596
     8  C   -0.297264
     9  H    0.174610
    10  H    0.194400
    11  O   -0.557836
    12  C   -0.411276
    13  H    0.221059
    14  H    0.192371
    15  C    0.593275
    16  O   -0.591539
    17  O   -0.458477
    18  N   -0.571884
    19  H    0.386769
    20  C   -0.050416
    21  H    0.198161
    22  C    0.599858
    23  C   -0.405920
    24  H    0.198820
    25  H    0.165782
    26  O   -0.456125
    27  C    0.031999
    28  C    0.012644
    29  H    0.159825
    30  C    0.082514
    31  C    0.310999
    32  C   -0.221294
    33  H    0.149022
    34  N   -0.680079
    35  H    0.344890
    36  C   -0.148983
    37  H    0.146002
    38  C   -0.156579
    39  H    0.143178
    40  C   -0.140456
    41  H    0.141539
    42  N   -0.698191
    43  H    0.388458
    44  C   -0.058043
    45  H    0.220951
    46  C    0.620788
    47  C    0.114438
    48  H    0.169705
    49  O   -0.547493
    50  C   -0.508139
    51  H    0.128476
    52  H    0.188330
    53  H    0.208252
    54  O   -0.640482
    55  H    0.423669
    56  N   -0.595035
    57  H    0.377065
    58  C   -0.053617
    59  H    0.201754
    60  C    0.595483
    61  C   -0.285873
    62  H    0.192925
    63  H    0.150542
    64  O   -0.454578
    65  C   -0.286291
    66  H    0.141282
    67  H    0.151120
    68  C   -0.132016
    69  H    0.149311
    70  H    0.158982
    71  N   -0.602910
    72  H    0.320527
    73  N   -0.750098
    74  H    0.340872
    75  H    0.318531
    76  N   -0.636673
    77  H    0.278262
    78  C    0.575547
    79  O   -0.557984
    80  H    0.424616
    81  H    0.482176
 Sum of Mulliken charges =   1.00000

 Dipole moment (field-independent basis, Debye):
    X=            -13.5468    Y=             -5.9572    Z=              1.9139  Tot=             14.9220
 Quadrupole moment (field-independent basis, Debye-Ang):
   XX=           -178.8718   YY=           -233.7392   ZZ=           -181.4931
   XY=             -6.0788   XZ=            -30.6195   YZ=              2.6740

 Normal termination of Gaussian 16 at Thu May 26 18:14:47 2022.
