 Gaussian 16, Revision C.01,
 Gaussian 16:  ES64L-G16RevC.01  3-Jul-2019

 -------------------------------------------------------------------
 # B3LYP/6-31G* guess=read geom=check nosymm integral(ultrafinegrid)
 -------------------------------------------------------------------

 ------------------------------------------------------
 Candidate Structure: Conf:448 Charge calc in gas phase
 ------------------------------------------------------
 Structure from the checkpoint file:  "conf-448.chk"
 Charge =  1 Multiplicity = 1

                          Input orientation:
 ---------------------------------------------------------------------
 Center     Atomic      Atomic             Coordinates (Angstroms)
 Number     Number       Type             X           Y           Z
 ---------------------------------------------------------------------
      1          7           0       -3.920536    1.717184    3.939680
      2          1           0       -4.674019    1.172886    3.523962
      3          1           0       -3.388542    1.100889    4.553463
      4          1           0       -4.240378    2.996254    5.241425
      5          6           0       -3.055792    2.328259    2.933615
      6          1           0       -3.698313    2.821468    2.195457
      7          6           0       -2.183888    1.317580    2.197846
      8          6           0       -2.124733    3.396159    3.561539
      9          1           0       -1.522240    2.925175    4.347522
     10          1           0       -1.416040    3.717441    2.789719
     11          8           0       -1.586197    0.466064    2.976996
     12          6           0       -2.869582    4.640289    4.105828
     13          1           0       -3.782030    4.819815    3.520120
     14          1           0       -2.232286    5.517650    3.982302
     15          6           0       -3.234182    4.604440    5.597766
     16          8           0       -2.836600    5.441261    6.370575
     17          8           0       -4.028136    3.594442    5.998852
     18          7           0       -2.098347    1.370569    0.893115
     19          1           0       -2.677079    2.077491    0.433690
     20          6           0       -1.239349    0.587544   -0.012474
     21          1           0       -1.672627   -0.417317   -0.086236
     22          6           0        0.169093    0.522506    0.604563
     23          6           0       -1.219473    1.238082   -1.425178
     24          1           0       -0.704484    0.531550   -2.084693
     25          1           0       -0.587325    2.134004   -1.408025
     26          8           0        0.585045    1.425373    1.321281
     27          6           0       -2.591349    1.560000   -1.942596
     28          6           0       -3.423731    0.745063   -2.676675
     29          1           0       -3.244233   -0.243357   -3.078679
     30          6           0       -3.333821    2.775635   -1.687417
     31          6           0       -4.614162    2.617309   -2.287367
     32          6           0       -3.039024    3.984577   -1.020883
     33          1           0       -2.047401    4.167415   -0.611688
     34          7           0       -4.632182    1.371591   -2.882001
     35          1           0       -5.390214    1.000877   -3.435874
     36          6           0       -5.282997    4.782547   -1.547095
     37          1           0       -6.022632    5.574868   -1.484677
     38          6           0       -5.596179    3.611280   -2.226745
     39          1           0       -6.566763    3.477352   -2.695831
     40          6           0       -4.017574    4.969965   -0.953490
     41          1           0       -3.797973    5.911350   -0.458561
     42          7           0        0.849145   -0.615405    0.335717
     43          1           0        0.451637   -1.342255   -0.248971
     44          6           0        2.009049   -1.011323    1.124171
     45          1           0        2.444872   -0.097868    1.535112
     46          6           0        2.944563   -1.739279    0.142884
     47          6           0        1.566591   -1.942231    2.271935
     48          1           0        1.231772   -2.887582    1.825633
     49          8           0        2.514828   -2.699777   -0.491709
     50          6           0        2.682640   -2.194658    3.278067
     51          1           0        3.542119   -2.667887    2.792041
     52          1           0        2.348295   -2.873778    4.071041
     53          1           0        3.010546   -1.257004    3.739543
     54          8           0        0.429718   -1.308315    2.914958
     55          1           0        0.259632   -1.778440    3.746561
     56          7           0        4.179588   -1.212289   -0.002998
     57          1           0        4.446251   -0.399552    0.536038
     58          6           0        5.085111   -1.631281   -1.073865
     59          1           0        5.164551   -2.723374   -1.048256
     60          6           0        6.494455   -1.091614   -0.848946
     61          6           0        4.576835   -1.225077   -2.483334
     62          1           0        3.719852   -1.863758   -2.719802
     63          1           0        5.374394   -1.467572   -3.194095
     64          8           0        7.427881   -1.359694   -1.563279
     65          6           0        4.167303    0.249110   -2.589370
     66          1           0        3.341377    0.449464   -1.895695
     67          1           0        4.999530    0.902016   -2.286286
     68          6           0        3.707435    0.648583   -4.001534
     69          1           0        4.553050    0.634138   -4.698540
     70          1           0        2.974840   -0.073862   -4.370007
     71          7           0        3.093366    1.982779   -4.044610
     72          1           0        3.694889    2.705151   -3.663236
     73          7           0        0.879667    1.241178   -4.251495
     74          1           0       -0.072138    1.588700   -4.195770
     75          1           0        1.114693    0.993330   -5.208048
     76          7           0        1.272653    3.120667   -2.958032
     77          1           0        2.016818    3.667760   -2.521946
     78          6           0        1.756223    2.182899   -3.694453
     79          8           0        6.585895   -0.257282    0.217941
     80          1           0        7.516497    0.035199    0.269407
     81          1           0       -0.826726   -0.098226    2.647191
 ---------------------------------------------------------------------

 SCF Done:  E(RB3LYP) =  -2053.89621349     A.U. after    2 cycles

 Alpha  occ. eigenvalues --  -19.35639 -19.29864 -19.29358 -19.24381 -19.23878
 Alpha  occ. eigenvalues --  -19.23400 -19.22595 -19.18620 -14.54563 -14.48929
 Alpha  occ. eigenvalues --  -14.48376 -14.47308 -14.46979 -14.42928 -14.42293
 Alpha  occ. eigenvalues --  -14.36727 -10.47869 -10.41901 -10.41839 -10.40025
 Alpha  occ. eigenvalues --  -10.38080 -10.37731 -10.37567 -10.36763 -10.36122
 Alpha  occ. eigenvalues --  -10.35354 -10.34083 -10.32663 -10.32029 -10.31320
 Alpha  occ. eigenvalues --  -10.31281 -10.30527 -10.29339 -10.29203 -10.29005
 Alpha  occ. eigenvalues --  -10.28799 -10.28734 -10.28602 -10.28136 -10.27945
 Alpha  occ. eigenvalues --  -10.27859 -10.27707  -1.25659  -1.20425  -1.16972
 Alpha  occ. eigenvalues --   -1.15674  -1.14931  -1.14585  -1.11467  -1.11398
 Alpha  occ. eigenvalues --   -1.08274  -1.06874  -1.05414  -1.05331  -1.03986
 Alpha  occ. eigenvalues --   -1.03714  -0.96674  -0.94401  -0.93567  -0.92252
 Alpha  occ. eigenvalues --   -0.90736  -0.90278  -0.88793  -0.88070  -0.84724
 Alpha  occ. eigenvalues --   -0.84014  -0.83437  -0.82629  -0.81392  -0.79197
 Alpha  occ. eigenvalues --   -0.78278  -0.76569  -0.74935  -0.73944  -0.73330
 Alpha  occ. eigenvalues --   -0.72238  -0.71838  -0.71714  -0.69758  -0.69209
 Alpha  occ. eigenvalues --   -0.68020  -0.67774  -0.67447  -0.66617  -0.65999
 Alpha  occ. eigenvalues --   -0.65030  -0.64475  -0.64187  -0.63413  -0.62833
 Alpha  occ. eigenvalues --   -0.62426  -0.61217  -0.59997  -0.59311  -0.59169
 Alpha  occ. eigenvalues --   -0.58987  -0.58390  -0.57949  -0.57544  -0.57152
 Alpha  occ. eigenvalues --   -0.56965  -0.56495  -0.56312  -0.55479  -0.55017
 Alpha  occ. eigenvalues --   -0.54878  -0.54404  -0.53907  -0.53819  -0.53340
 Alpha  occ. eigenvalues --   -0.52959  -0.52814  -0.52440  -0.52129  -0.51839
 Alpha  occ. eigenvalues --   -0.51669  -0.51280  -0.51098  -0.50608  -0.50282
 Alpha  occ. eigenvalues --   -0.49939  -0.49677  -0.49528  -0.49355  -0.49185
 Alpha  occ. eigenvalues --   -0.48530  -0.48203  -0.47735  -0.47426  -0.46849
 Alpha  occ. eigenvalues --   -0.46556  -0.45848  -0.45379  -0.45099  -0.44847
 Alpha  occ. eigenvalues --   -0.44647  -0.44030  -0.43531  -0.43305  -0.43192
 Alpha  occ. eigenvalues --   -0.42756  -0.41552  -0.41368  -0.39089  -0.38945
 Alpha  occ. eigenvalues --   -0.38159  -0.37602  -0.37521  -0.36590  -0.36525
 Alpha  occ. eigenvalues --   -0.35528  -0.34866  -0.33721  -0.32373  -0.32250
 Alpha  occ. eigenvalues --   -0.30659  -0.30538
 Alpha virt. eigenvalues --   -0.16899  -0.11802  -0.11168  -0.09573  -0.08544
 Alpha virt. eigenvalues --   -0.07950  -0.06621  -0.05097  -0.04570  -0.04000
 Alpha virt. eigenvalues --   -0.03552  -0.03319  -0.02871  -0.01962  -0.01573

 Mulliken charges:
               1
     1  N   -0.747205
     2  H    0.341888
     3  H    0.351804
     4  H    0.448095
     5  C   -0.079257
     6  H    0.189050
     7  C    0.657319
     8  C   -0.291513
     9  H    0.187624
    10  H    0.184481
    11  O   -0.598361
    12  C   -0.385296
    13  H    0.169711
    14  H    0.199315
    15  C    0.582089
    16  O   -0.431018
    17  O   -0.589331
    18  N   -0.581487
    19  H    0.396592
    20  C   -0.043752
    21  H    0.182127
    22  C    0.586612
    23  C   -0.419008
    24  H    0.187647
    25  H    0.235755
    26  O   -0.510184
    27  C    0.041629
    28  C    0.007337
    29  H    0.169289
    30  C    0.041194
    31  C    0.320055
    32  C   -0.247307
    33  H    0.150891
    34  N   -0.681394
    35  H    0.348085
    36  C   -0.150264
    37  H    0.155861
    38  C   -0.155013
    39  H    0.152247
    40  C   -0.138245
    41  H    0.149564
    42  N   -0.599525
    43  H    0.354861
    44  C   -0.079421
    45  H    0.192912
    46  C    0.637198
    47  C    0.155139
    48  H    0.167950
    49  O   -0.531014
    50  C   -0.493392
    51  H    0.185690
    52  H    0.170145
    53  H    0.177493
    54  O   -0.676706
    55  H    0.425371
    56  N   -0.622548
    57  H    0.362766
    58  C   -0.044265
    59  H    0.216580
    60  C    0.592998
    61  C   -0.291190
    62  H    0.178849
    63  H    0.184978
    64  O   -0.436928
    65  C   -0.279006
    66  H    0.144685
    67  H    0.139582
    68  C   -0.151819
    69  H    0.168834
    70  H    0.166713
    71  N   -0.578864
    72  H    0.317061
    73  N   -0.746854
    74  H    0.340085
    75  H    0.334564
    76  N   -0.646619
    77  H    0.272568
    78  C    0.554569
    79  O   -0.588263
    80  H    0.431551
    81  H    0.505646
 Sum of Mulliken charges =   1.00000

 Dipole moment (field-independent basis, Debye):
    X=             -3.2773    Y=             -1.6555    Z=             -2.4767  Tot=              4.4289
 Quadrupole moment (field-independent basis, Debye-Ang):
   XX=           -153.0124   YY=           -250.7176   ZZ=           -239.0795
   XY=              0.4287   XZ=             27.3118   YZ=            -42.6477

 Normal termination of Gaussian 16 at Thu May 26 18:13:34 2022.
