 Gaussian 16, Revision C.01,
 Gaussian 16:  ES64L-G16RevC.01  3-Jul-2019

 -------------------------------------------------------------------
 # B3LYP/6-31G* guess=read geom=check nosymm integral(ultrafinegrid)
 -------------------------------------------------------------------

 ------------------------------------------------------
 Candidate Structure: Conf:156 Charge calc in gas phase
 ------------------------------------------------------
 Structure from the checkpoint file:  "conf-156.chk"
 Charge =  1 Multiplicity = 1

                          Input orientation:
 ---------------------------------------------------------------------
 Center     Atomic      Atomic             Coordinates (Angstroms)
 Number     Number       Type             X           Y           Z
 ---------------------------------------------------------------------
      1          7           0       -2.185539    2.517551   -4.509500
      2          1           0       -0.526190    3.311139   -4.348506
      3          1           0       -2.641966    2.370997   -5.410714
      4          1           0       -2.775493    3.185256   -4.010620
      5          6           0       -2.176512    1.221221   -3.785003
      6          1           0       -3.169023    0.756509   -3.795194
      7          6           0       -1.813442    1.431536   -2.319128
      8          6           0       -1.181397    0.275445   -4.503650
      9          1           0       -1.511566    0.196358   -5.549000
     10          1           0       -0.191773    0.748207   -4.506803
     11          8           0       -1.207909    2.602261   -2.056053
     12          6           0       -1.031853   -1.148896   -3.931659
     13          1           0       -0.587259   -1.103228   -2.932806
     14          1           0       -0.345712   -1.701693   -4.577623
     15          6           0       -2.347708   -1.932216   -3.915290
     16          8           0       -3.176258   -1.670762   -2.882426
     17          8           0       -2.652139   -2.713864   -4.784599
     18          7           0       -2.104522    0.500116   -1.489780
     19          1           0       -2.798607   -0.967007   -2.286006
     20          6           0       -1.843274    0.629057   -0.047072
     21          1           0       -2.261189    1.577735    0.316380
     22          6           0       -0.328523    0.751555    0.166002
     23          6           0       -2.536215   -0.528442    0.704827
     24          1           0       -2.190197   -0.516477    1.747960
     25          1           0       -2.216114   -1.482146    0.265683
     26          8           0        0.231968    1.850382   -0.040787
     27          6           0       -4.032730   -0.433701    0.663137
     28          6           0       -4.885782   -1.186710   -0.107928
     29          1           0       -4.663192   -1.972553   -0.816988
     30          6           0       -4.855404    0.486250    1.411938
     31          6           0       -6.204915    0.233015    1.041284
     32          6           0       -4.592246    1.488315    2.363520
     33          1           0       -3.573651    1.700066    2.681719
     34          7           0       -6.186452   -0.787742    0.111286
     35          1           0       -6.998918   -1.209708   -0.311671
     36          6           0       -6.983232    1.932214    2.521420
     37          1           0       -7.793245    2.503137    2.965983
     38          6           0       -7.277070    0.945838    1.587132
     39          1           0       -8.302582    0.735780    1.295398
     40          6           0       -5.653962    2.200366    2.907268
     41          1           0       -5.461275    2.973494    3.645721
     42          7           0        0.365860   -0.344063    0.491972
     43          1           0       -0.103458   -1.206519    0.750125
     44          6           0        1.815643   -0.379944    0.607004
     45          1           0        2.123229    0.101905    1.546915
     46          6           0        2.480728    0.321833   -0.594920
     47          6           0        2.237902   -1.879461    0.626138
     48          1           0        2.089389   -2.259565   -0.389194
     49          8           0        2.224714    0.000172   -1.750334
     50          6           0        3.684722   -2.081094    1.058999
     51          1           0        4.379271   -1.552142    0.398847
     52          1           0        3.932116   -3.145921    1.034842
     53          1           0        3.845960   -1.712125    2.081048
     54          8           0        1.327325   -2.627445    1.430831
     55          1           0        1.586246   -2.534250    2.362946
     56          7           0        3.432987    1.235432   -0.263672
     57          1           0        3.483590    1.580764    0.685186
     58          6           0        4.196571    1.957168   -1.271575
     59          1           0        4.560400    1.233423   -2.007196
     60          6           0        5.432578    2.602063   -0.653308
     61          6           0        3.331578    3.008212   -2.024857
     62          1           0        2.846625    3.657013   -1.283826
     63          1           0        2.546700    2.423267   -2.516526
     64          8           0        6.417894    2.907347   -1.281721
     65          6           0        4.110479    3.856087   -3.042230
     66          1           0        4.774919    4.552437   -2.520428
     67          1           0        4.770755    3.220276   -3.645533
     68          6           0        3.224166    4.687192   -3.982111
     69          1           0        2.420456    5.196848   -3.441993
     70          1           0        3.823149    5.471467   -4.455949
     71          7           0        2.618984    3.909493   -5.075585
     72          1           0        3.247473    3.610069   -5.810314
     73          7           0        0.939250    2.985153   -6.367881
     74          1           0       -0.011662    2.654389   -6.450905
     75          1           0        1.429680    3.188447   -7.227028
     76          7           0        0.451795    3.659222   -4.217414
     77          1           0        0.758076    3.743004   -3.258742
     78          6           0        1.339466    3.527736   -5.196108
     79          8           0        5.285221    2.848771    0.669938
     80          1           0        6.109278    3.273243    0.978382
     81          1           0       -0.732547    2.536874   -1.168411
 ---------------------------------------------------------------------

 SCF Done:  E(RB3LYP) =  -2053.94201679     A.U. after    1 cycles

 Alpha  occ. eigenvalues --  -19.30649 -19.28415 -19.25193 -19.24519 -19.23517
 Alpha  occ. eigenvalues --  -19.23510 -19.21757 -19.18434 -14.52016 -14.51468
 Alpha  occ. eigenvalues --  -14.49374 -14.47135 -14.46555 -14.45900 -14.43808
 Alpha  occ. eigenvalues --  -14.42899 -10.47595 -10.42857 -10.39876 -10.39415
 Alpha  occ. eigenvalues --  -10.39205 -10.37194 -10.36237 -10.34976 -10.34320
 Alpha  occ. eigenvalues --  -10.33931 -10.33884 -10.32646 -10.30734 -10.30641
 Alpha  occ. eigenvalues --  -10.29928 -10.27874 -10.27817 -10.27592 -10.27490
 Alpha  occ. eigenvalues --  -10.27473 -10.24562 -10.24455 -10.24411 -10.24275
 Alpha  occ. eigenvalues --  -10.23898 -10.23646  -1.21355  -1.17965  -1.16069
 Alpha  occ. eigenvalues --   -1.14868  -1.14430  -1.13435  -1.12530  -1.12355
 Alpha  occ. eigenvalues --   -1.06444  -1.05762  -1.03733  -1.03618  -1.03475
 Alpha  occ. eigenvalues --   -1.03200  -1.02115  -1.00950  -0.92102  -0.89994
 Alpha  occ. eigenvalues --   -0.89313  -0.88534  -0.87455  -0.86450  -0.83846
 Alpha  occ. eigenvalues --   -0.81682  -0.80559  -0.79783  -0.79069  -0.77699
 Alpha  occ. eigenvalues --   -0.77565  -0.74853  -0.74375  -0.73603  -0.73228
 Alpha  occ. eigenvalues --   -0.72604  -0.70569  -0.69599  -0.69411  -0.68834
 Alpha  occ. eigenvalues --   -0.67947  -0.67823  -0.66341  -0.64976  -0.64896
 Alpha  occ. eigenvalues --   -0.64755  -0.63684  -0.63007  -0.62199  -0.61501
 Alpha  occ. eigenvalues --   -0.61309  -0.60982  -0.60580  -0.59554  -0.59306
 Alpha  occ. eigenvalues --   -0.58890  -0.58192  -0.57856  -0.57610  -0.57224
 Alpha  occ. eigenvalues --   -0.57026  -0.56379  -0.55873  -0.55304  -0.54640
 Alpha  occ. eigenvalues --   -0.54210  -0.53990  -0.53344  -0.53093  -0.52966
 Alpha  occ. eigenvalues --   -0.52714  -0.51532  -0.51069  -0.50929  -0.50555
 Alpha  occ. eigenvalues --   -0.50110  -0.49869  -0.49506  -0.49324  -0.49129
 Alpha  occ. eigenvalues --   -0.48748  -0.48440  -0.48044  -0.47721  -0.47431
 Alpha  occ. eigenvalues --   -0.47038  -0.46777  -0.46728  -0.46378  -0.46102
 Alpha  occ. eigenvalues --   -0.45985  -0.45433  -0.44953  -0.44241  -0.43923
 Alpha  occ. eigenvalues --   -0.42563  -0.42439  -0.42255  -0.42066  -0.41034
 Alpha  occ. eigenvalues --   -0.40385  -0.39775  -0.39220  -0.38986  -0.38888
 Alpha  occ. eigenvalues --   -0.38595  -0.38503  -0.37032  -0.36397  -0.36317
 Alpha  occ. eigenvalues --   -0.36057  -0.35252  -0.34894  -0.33115  -0.32048
 Alpha  occ. eigenvalues --   -0.27903  -0.26177
 Alpha virt. eigenvalues --   -0.11719  -0.10334  -0.10131  -0.09048  -0.07917
 Alpha virt. eigenvalues --   -0.07756  -0.06748  -0.05489  -0.04390  -0.03886
 Alpha virt. eigenvalues --   -0.03182  -0.03055  -0.02819  -0.02214  -0.00661

 Mulliken charges:
               1
     1  N   -0.789602
     2  H    0.448001
     3  H    0.331131
     4  H    0.345977
     5  C   -0.063540
     6  H    0.195503
     7  C    0.567371
     8  C   -0.279199
     9  H    0.156908
    10  H    0.148393
    11  O   -0.656410
    12  C   -0.369351
    13  H    0.174680
    14  H    0.184483
    15  C    0.573489
    16  O   -0.621680
    17  O   -0.443163
    18  N   -0.501230
    19  H    0.464652
    20  C   -0.083389
    21  H    0.184959
    22  C    0.654142
    23  C   -0.402551
    24  H    0.159473
    25  H    0.160509
    26  O   -0.593634
    27  C    0.055805
    28  C   -0.000889
    29  H    0.187249
    30  C    0.089637
    31  C    0.311271
    32  C   -0.217501
    33  H    0.111249
    34  N   -0.690514
    35  H    0.338000
    36  C   -0.151516
    37  H    0.136340
    38  C   -0.159861
    39  H    0.134778
    40  C   -0.138241
    41  H    0.128877
    42  N   -0.619801
    43  H    0.382956
    44  C   -0.032833
    45  H    0.148016
    46  C    0.655884
    47  C    0.106520
    48  H    0.186464
    49  O   -0.542478
    50  C   -0.484488
    51  H    0.170149
    52  H    0.191845
    53  H    0.147267
    54  O   -0.621718
    55  H    0.403834
    56  N   -0.626236
    57  H    0.360957
    58  C   -0.027281
    59  H    0.204506
    60  C    0.588493
    61  C   -0.299683
    62  H    0.162167
    63  H    0.175913
    64  O   -0.446796
    65  C   -0.269416
    66  H    0.183431
    67  H    0.167557
    68  C   -0.178541
    69  H    0.181492
    70  H    0.197408
    71  N   -0.597132
    72  H    0.360412
    73  N   -0.764750
    74  H    0.378730
    75  H    0.373324
    76  N   -0.784878
    77  H    0.372839
    78  C    0.803763
    79  O   -0.577583
    80  H    0.432357
    81  H    0.456721
 Sum of Mulliken charges =   1.00000

 Dipole moment (field-independent basis, Debye):
    X=              7.1854    Y=             15.1602    Z=            -12.7280  Tot=             21.0586
 Quadrupole moment (field-independent basis, Debye-Ang):
   XX=           -178.6320   YY=           -197.9867   ZZ=           -133.6405
   XY=             16.2113   XZ=            -11.4609   YZ=            -80.5455

 Normal termination of Gaussian 16 at Thu May 26 18:13:20 2022.
