 Gaussian 16, Revision C.01,
 Gaussian 16:  ES64L-G16RevC.01  3-Jul-2019

 -------------------------------------------------------------------
 # B3LYP/6-31G* guess=read geom=check nosymm integral(ultrafinegrid)
 -------------------------------------------------------------------

 ------------------------------------------------------
 Candidate Structure: Conf:981 Charge calc in gas phase
 ------------------------------------------------------
 Structure from the checkpoint file:  "conf-981.chk"
 Charge =  1 Multiplicity = 1

                          Input orientation:
 ---------------------------------------------------------------------
 Center     Atomic      Atomic             Coordinates (Angstroms)
 Number     Number       Type             X           Y           Z
 ---------------------------------------------------------------------
      1          7           0       -1.917108    3.256270    3.441575
      2          1           0       -2.844880    3.544681    3.134724
      3          1           0       -2.037803    2.426174    4.024747
      4          1           0       -0.955934    4.282792    4.560383
      5          6           0       -1.058647    2.922365    2.298653
      6          1           0       -1.207784    3.682165    1.525245
      7          6           0       -1.419197    1.549062    1.730385
      8          6           0        0.428319    2.921765    2.719726
      9          1           0        0.563835    2.208624    3.542299
     10          1           0        1.015702    2.527909    1.879953
     11          8           0       -1.622437    0.585959    2.506710
     12          6           0        0.984768    4.315545    3.098386
     13          1           0        0.459559    5.093594    2.526142
     14          1           0        2.040101    4.375123    2.824447
     15          6           0        0.935311    4.690608    4.588548
     16          8           0        1.925439    5.054691    5.178323
     17          8           0       -0.259452    4.610794    5.190984
     18          7           0       -1.494860    1.409471    0.393268
     19          1           0       -1.058159    2.127968   -0.221753
     20          6           0       -2.029014    0.177138   -0.202774
     21          1           0       -2.855413   -0.158445    0.435028
     22          6           0       -0.940757   -0.890298   -0.084878
     23          6           0       -2.567155    0.418409   -1.629762
     24          1           0       -2.722199   -0.562811   -2.095515
     25          1           0       -1.795896    0.927637   -2.224361
     26          8           0       -0.543681   -1.237525    1.101299
     27          6           0       -3.878984    1.154905   -1.674001
     28          6           0       -5.090462    0.540066   -1.897033
     29          1           0       -5.308212   -0.506042   -2.068064
     30          6           0       -4.154711    2.569466   -1.541947
     31          6           0       -5.561274    2.726955   -1.696843
     32          6           0       -3.377548    3.725827   -1.323967
     33          1           0       -2.302732    3.667936   -1.177008
     34          7           0       -6.098169    1.472124   -1.903380
     35          1           0       -7.073013    1.274139   -2.072300
     36          6           0       -5.398492    5.090017   -1.430704
     37          1           0       -5.857407    6.072982   -1.384843
     38          6           0       -6.195011    3.972563   -1.641290
     39          1           0       -7.270958    4.062616   -1.761845
     40          6           0       -4.003219    4.965781   -1.275382
     41          1           0       -3.406461    5.858499   -1.110353
     42          7           0       -0.367929   -1.415124   -1.132483
     43          1           0       -0.657630   -1.121243   -2.068397
     44          6           0        0.918366   -2.130117   -1.183909
     45          1           0        1.428736   -1.990791   -0.228189
     46          6           0        1.640811   -1.377768   -2.335252
     47          6           0        0.742972   -3.640278   -1.452827
     48          1           0        1.756028   -4.035549   -1.635531
     49          8           0        0.977025   -0.953567   -3.279378
     50          6           0        0.122178   -4.381539   -0.268586
     51          1           0        0.738713   -4.291811    0.632221
     52          1           0        0.033552   -5.447997   -0.504331
     53          1           0       -0.880229   -4.000381   -0.050346
     54          8           0       -0.054523   -3.729490   -2.621921
     55          1           0       -0.143355   -4.664107   -2.865668
     56          7           0        2.959782   -1.156868   -2.176410
     57          1           0        3.456588   -1.469784   -1.347350
     58          6           0        3.692648   -0.186331   -2.995028
     59          1           0        3.660647   -0.485220   -4.047766
     60          6           0        5.134735   -0.235656   -2.504719
     61          6           0        3.045358    1.215848   -2.833981
     62          1           0        3.013464    1.438936   -1.760461
     63          1           0        2.011107    1.090996   -3.164306
     64          8           0        5.469241   -0.732063   -1.449495
     65          6           0        3.672469    2.390676   -3.598566
     66          1           0        4.554166    2.772813   -3.070217
     67          1           0        4.027215    2.074045   -4.587008
     68          6           0        2.647231    3.524881   -3.812441
     69          1           0        3.148064    4.409510   -4.220772
     70          1           0        1.908224    3.200724   -4.548043
     71          7           0        1.923716    3.907236   -2.590473
     72          1           0        2.514966    4.110093   -1.793759
     73          7           0       -0.204632    3.267521   -3.313373
     74          1           0       -1.175247    3.204987   -3.029203
     75          1           0       -0.085326    3.886611   -4.106176
     76          7           0        0.234198    3.273639   -1.036755
     77          1           0        1.002307    3.367437   -0.371522
     78          6           0        0.656268    3.482472   -2.252243
     79          8           0        5.979971    0.350906   -3.363960
     80          1           0        6.876297    0.299616   -2.977335
     81          1           0       -1.026979   -0.650229    1.806543
 ---------------------------------------------------------------------

 SCF Done:  E(RB3LYP) =  -2053.91770283     A.U. after    1 cycles

 Alpha  occ. eigenvalues --  -19.33716 -19.31032 -19.26398 -19.25862 -19.25605
 Alpha  occ. eigenvalues --  -19.24172 -19.22307 -19.17294 -14.53534 -14.49268
 Alpha  occ. eigenvalues --  -14.48499 -14.47195 -14.46348 -14.45422 -14.44342
 Alpha  occ. eigenvalues --  -14.40784 -10.47046 -10.43623 -10.42151 -10.41616
 Alpha  occ. eigenvalues --  -10.40352 -10.38386 -10.37510 -10.36618 -10.36326
 Alpha  occ. eigenvalues --  -10.35661 -10.34286 -10.32941 -10.32492 -10.31621
 Alpha  occ. eigenvalues --  -10.30771 -10.29977 -10.29804 -10.29382 -10.28745
 Alpha  occ. eigenvalues --  -10.28443 -10.27832 -10.27667 -10.27377 -10.27282
 Alpha  occ. eigenvalues --  -10.26764 -10.26648  -1.24653  -1.22123  -1.17478
 Alpha  occ. eigenvalues --   -1.16691  -1.13678  -1.13513  -1.13277  -1.10304
 Alpha  occ. eigenvalues --   -1.09080  -1.07223  -1.05927  -1.05429  -1.04948
 Alpha  occ. eigenvalues --   -1.01045  -0.99817  -0.95834  -0.93688  -0.92514
 Alpha  occ. eigenvalues --   -0.91519  -0.90021  -0.88421  -0.87040  -0.85639
 Alpha  occ. eigenvalues --   -0.83940  -0.82307  -0.82004  -0.80168  -0.79437
 Alpha  occ. eigenvalues --   -0.78563  -0.77387  -0.74317  -0.73677  -0.72829
 Alpha  occ. eigenvalues --   -0.72308  -0.71542  -0.71066  -0.70333  -0.68968
 Alpha  occ. eigenvalues --   -0.68687  -0.68280  -0.67783  -0.66424  -0.66073
 Alpha  occ. eigenvalues --   -0.65212  -0.64459  -0.64077  -0.63472  -0.62859
 Alpha  occ. eigenvalues --   -0.62710  -0.61164  -0.60927  -0.60071  -0.59663
 Alpha  occ. eigenvalues --   -0.59386  -0.58516  -0.57946  -0.57735  -0.57466
 Alpha  occ. eigenvalues --   -0.57357  -0.56910  -0.56368  -0.56103  -0.55734
 Alpha  occ. eigenvalues --   -0.55433  -0.54924  -0.54780  -0.54571  -0.54059
 Alpha  occ. eigenvalues --   -0.53292  -0.52897  -0.52390  -0.52020  -0.51832
 Alpha  occ. eigenvalues --   -0.51640  -0.51515  -0.51310  -0.51016  -0.50885
 Alpha  occ. eigenvalues --   -0.50083  -0.49954  -0.49749  -0.49305  -0.49093
 Alpha  occ. eigenvalues --   -0.48973  -0.47820  -0.47726  -0.47514  -0.46997
 Alpha  occ. eigenvalues --   -0.46625  -0.45779  -0.45449  -0.45079  -0.44494
 Alpha  occ. eigenvalues --   -0.44130  -0.43877  -0.43418  -0.43026  -0.42514
 Alpha  occ. eigenvalues --   -0.42405  -0.42080  -0.40739  -0.39628  -0.39410
 Alpha  occ. eigenvalues --   -0.39254  -0.38966  -0.38207  -0.37016  -0.36753
 Alpha  occ. eigenvalues --   -0.36514  -0.36381  -0.35125  -0.33787  -0.31113
 Alpha  occ. eigenvalues --   -0.30951  -0.29546
 Alpha virt. eigenvalues --   -0.16445  -0.12154  -0.10937  -0.10165  -0.09896
 Alpha virt. eigenvalues --   -0.06654  -0.06290  -0.05466  -0.04448  -0.03869
 Alpha virt. eigenvalues --   -0.03555  -0.02871  -0.02507  -0.01872  -0.01411

 Mulliken charges:
               1
     1  N   -0.757879
     2  H    0.341780
     3  H    0.352167
     4  H    0.454291
     5  C   -0.055362
     6  H    0.183690
     7  C    0.610210
     8  C   -0.290034
     9  H    0.183991
    10  H    0.137553
    11  O   -0.585802
    12  C   -0.382877
    13  H    0.168390
    14  H    0.178345
    15  C    0.583929
    16  O   -0.443818
    17  O   -0.591296
    18  N   -0.629226
    19  H    0.436559
    20  C   -0.060636
    21  H    0.219114
    22  C    0.650676
    23  C   -0.446098
    24  H    0.177510
    25  H    0.185742
    26  O   -0.573183
    27  C    0.054594
    28  C    0.015360
    29  H    0.164016
    30  C    0.085087
    31  C    0.311142
    32  C   -0.257895
    33  H    0.145676
    34  N   -0.680296
    35  H    0.345446
    36  C   -0.149600
    37  H    0.148887
    38  C   -0.154869
    39  H    0.146926
    40  C   -0.148920
    41  H    0.136749
    42  N   -0.562349
    43  H    0.416570
    44  C   -0.112501
    45  H    0.197311
    46  C    0.654404
    47  C    0.148843
    48  H    0.152386
    49  O   -0.516847
    50  C   -0.467142
    51  H    0.167680
    52  H    0.171255
    53  H    0.163415
    54  O   -0.620619
    55  H    0.415439
    56  N   -0.632023
    57  H    0.363552
    58  C   -0.026024
    59  H    0.209415
    60  C    0.587881
    61  C   -0.292358
    62  H    0.135071
    63  H    0.206073
    64  O   -0.459932
    65  C   -0.282170
    66  H    0.155826
    67  H    0.172760
    68  C   -0.161553
    69  H    0.178589
    70  H    0.176535
    71  N   -0.590234
    72  H    0.328565
    73  N   -0.749073
    74  H    0.356767
    75  H    0.348463
    76  N   -0.738170
    77  H    0.286678
    78  C    0.641198
    79  O   -0.553986
    80  H    0.434186
    81  H    0.486086
 Sum of Mulliken charges =   1.00000

 Dipole moment (field-independent basis, Debye):
    X=             -2.9367    Y=             -0.8742    Z=            -12.6415  Tot=             13.0075
 Quadrupole moment (field-independent basis, Debye-Ang):
   XX=           -149.9727   YY=           -205.0704   ZZ=           -256.1708
   XY=            -13.0784   XZ=            -26.6826   YZ=            -38.8731

 Normal termination of Gaussian 16 at Thu May 26 18:14:21 2022.
