 Gaussian 16, Revision C.01,
 Gaussian 16:  ES64L-G16RevC.01  3-Jul-2019

 -------------------------------------------------------------------
 # B3LYP/6-31G* guess=read geom=check nosymm integral(ultrafinegrid)
 -------------------------------------------------------------------

 ------------------------------------------------------
 Candidate Structure: Conf:879 Charge calc in gas phase
 ------------------------------------------------------
 Structure from the checkpoint file:  "conf-879.chk"
 Charge =  1 Multiplicity = 1

                          Input orientation:
 ---------------------------------------------------------------------
 Center     Atomic      Atomic             Coordinates (Angstroms)
 Number     Number       Type             X           Y           Z
 ---------------------------------------------------------------------
      1          7           0       -5.042911    2.345372    2.254055
      2          1           0       -5.398260    1.892049    1.387088
      3          1           0       -5.128112    1.634120    3.004376
      4          1           0       -5.604872    3.173678    2.468776
      5          6           0       -3.554861    2.637525    2.166294
      6          1           0       -3.336037    3.127573    1.213162
      7          6           0       -2.960159    1.212011    2.235957
      8          6           0       -3.170440    3.540759    3.351199
      9          1           0       -3.826809    4.421272    3.328185
     10          1           0       -3.354582    3.011672    4.293162
     11          8           0       -3.481415    0.406901    3.018935
     12          6           0       -1.715539    4.049599    3.300768
     13          1           0       -1.619709    4.849558    4.044850
     14          1           0       -1.484306    4.458588    2.314681
     15          6           0       -0.665458    3.008130    3.639627
     16          8           0        0.301960    2.734284    2.965352
     17          8           0       -0.927681    2.410701    4.827429
     18          7           0       -1.956771    0.963665    1.396100
     19          1           0       -1.636850    1.701080    0.762711
     20          6           0       -1.328936   -0.341340    1.242072
     21          1           0       -1.046097   -0.716476    2.233138
     22          6           0       -0.048487   -0.104576    0.421410
     23          6           0       -2.292063   -1.384220    0.584721
     24          1           0       -3.018696   -1.671104    1.350153
     25          1           0       -1.715898   -2.288379    0.353714
     26          8           0        0.190763    0.988725   -0.092603
     27          6           0       -3.004655   -0.878336   -0.637044
     28          6           0       -2.499546   -0.795492   -1.913978
     29          1           0       -1.532811   -1.105510   -2.291443
     30          6           0       -4.335889   -0.326637   -0.687960
     31          6           0       -4.567343    0.093526   -2.028612
     32          6           0       -5.375842   -0.177676    0.251287
     33          1           0       -5.258804   -0.562505    1.261567
     34          7           0       -3.429187   -0.203780   -2.744569
     35          1           0       -3.319196   -0.089528   -3.741007
     36          6           0       -6.764314    0.852575   -1.478695
     37          1           0       -7.712298    1.297392   -1.765752
     38          6           0       -5.768989    0.686509   -2.433224
     39          1           0       -5.923806    1.001204   -3.461541
     40          6           0       -6.575465    0.414232   -0.148555
     41          1           0       -7.405068    0.480093    0.552665
     42          7           0        0.808945   -1.145844    0.312846
     43          1           0        0.533260   -2.062865    0.636353
     44          6           0        2.028313   -1.007437   -0.471731
     45          1           0        2.569369   -0.141853   -0.072757
     46          6           0        1.683818   -0.723316   -1.953938
     47          6           0        2.947885   -2.246915   -0.305062
     48          1           0        3.046981   -2.428176    0.776078
     49          8           0        0.685233   -1.203978   -2.487229
     50          6           0        2.433309   -3.512280   -0.983432
     51          1           0        1.433201   -3.789478   -0.630970
     52          1           0        3.115051   -4.339579   -0.769557
     53          1           0        2.379950   -3.375537   -2.066592
     54          8           0        4.218104   -1.937658   -0.875630
     55          1           0        4.775722   -1.532915   -0.193848
     56          7           0        2.555793    0.102901   -2.577549
     57          1           0        3.426694    0.324284   -2.113043
     58          6           0        2.421444    0.537257   -3.965318
     59          1           0        1.877236   -0.237848   -4.513345
     60          6           0        3.779364    0.678110   -4.646531
     61          6           0        1.648704    1.882173   -4.077495
     62          1           0        1.897396    2.354295   -5.034215
     63          1           0        2.015111    2.545817   -3.284742
     64          8           0        3.918738    0.763619   -5.842011
     65          6           0        0.122383    1.692378   -3.978693
     66          1           0       -0.255928    1.388322   -4.962591
     67          1           0       -0.112895    0.872817   -3.293430
     68          6           0       -0.652184    2.933698   -3.524476
     69          1           0       -0.351553    3.808167   -4.120730
     70          1           0       -1.722135    2.765892   -3.705833
     71          7           0       -0.429113    3.191022   -2.096556
     72          1           0        0.107093    2.480317   -1.609500
     73          7           0       -2.382955    4.472092   -1.930699
     74          1           0       -2.827870    5.148836   -1.323471
     75          1           0       -2.167094    4.857465   -2.841162
     76          7           0       -1.346543    3.777257    0.019139
     77          1           0       -0.507189    3.301686    0.355347
     78          6           0       -1.352112    3.803824   -1.284603
     79          8           0        4.806688    0.755666   -3.766208
     80          1           0        5.622461    0.863448   -4.291953
     81          1           0       -0.201429    1.781073    4.996833
 ---------------------------------------------------------------------

 SCF Done:  E(RB3LYP) =  -2053.93577787     A.U. after    1 cycles

 Alpha  occ. eigenvalues --  -19.28613 -19.28315 -19.24108 -19.23903 -19.23073
 Alpha  occ. eigenvalues --  -19.22970 -19.21966 -19.20575 -14.58105 -14.47308
 Alpha  occ. eigenvalues --  -14.47131 -14.46932 -14.44937 -14.42987 -14.42846
 Alpha  occ. eigenvalues --  -14.36420 -10.41203 -10.40985 -10.40431 -10.39982
 Alpha  occ. eigenvalues --  -10.37862 -10.37584 -10.36893 -10.34564 -10.34250
 Alpha  occ. eigenvalues --  -10.33011 -10.32585 -10.32309 -10.31074 -10.30716
 Alpha  occ. eigenvalues --  -10.30221 -10.29765 -10.29537 -10.28429 -10.28224
 Alpha  occ. eigenvalues --  -10.28163 -10.27813 -10.27750 -10.27636 -10.27197
 Alpha  occ. eigenvalues --  -10.27158 -10.26104  -1.19430  -1.18948  -1.16451
 Alpha  occ. eigenvalues --   -1.15089  -1.12449  -1.11895  -1.11448  -1.10427
 Alpha  occ. eigenvalues --   -1.09909  -1.06814  -1.06018  -1.04202  -1.03242
 Alpha  occ. eigenvalues --   -1.01580  -0.96963  -0.93287  -0.92692  -0.92305
 Alpha  occ. eigenvalues --   -0.90256  -0.88598  -0.87197  -0.85875  -0.84044
 Alpha  occ. eigenvalues --   -0.83117  -0.82869  -0.81185  -0.79635  -0.77825
 Alpha  occ. eigenvalues --   -0.76036  -0.75618  -0.71967  -0.71516  -0.71374
 Alpha  occ. eigenvalues --   -0.70856  -0.70097  -0.69615  -0.68937  -0.68635
 Alpha  occ. eigenvalues --   -0.68571  -0.68105  -0.67915  -0.67378  -0.65245
 Alpha  occ. eigenvalues --   -0.64458  -0.63395  -0.63163  -0.62918  -0.61438
 Alpha  occ. eigenvalues --   -0.60768  -0.59827  -0.59018  -0.58198  -0.57885
 Alpha  occ. eigenvalues --   -0.57518  -0.57186  -0.57008  -0.56599  -0.56346
 Alpha  occ. eigenvalues --   -0.55946  -0.55708  -0.55537  -0.54844  -0.54668
 Alpha  occ. eigenvalues --   -0.54248  -0.53920  -0.53568  -0.53047  -0.52574
 Alpha  occ. eigenvalues --   -0.52397  -0.52346  -0.51991  -0.51324  -0.51042
 Alpha  occ. eigenvalues --   -0.50724  -0.50375  -0.50175  -0.49609  -0.49297
 Alpha  occ. eigenvalues --   -0.48866  -0.48370  -0.47959  -0.47727  -0.47642
 Alpha  occ. eigenvalues --   -0.47431  -0.47055  -0.46765  -0.46551  -0.46435
 Alpha  occ. eigenvalues --   -0.45861  -0.45703  -0.44694  -0.44647  -0.43670
 Alpha  occ. eigenvalues --   -0.43127  -0.42913  -0.42583  -0.42446  -0.42195
 Alpha  occ. eigenvalues --   -0.40900  -0.39859  -0.38389  -0.37702  -0.37350
 Alpha  occ. eigenvalues --   -0.36931  -0.36726  -0.36502  -0.36443  -0.36279
 Alpha  occ. eigenvalues --   -0.35347  -0.34514  -0.34108  -0.33467  -0.31738
 Alpha  occ. eigenvalues --   -0.30101  -0.29409
 Alpha virt. eigenvalues --   -0.11322  -0.10672  -0.08964  -0.08748  -0.07664
 Alpha virt. eigenvalues --   -0.07604  -0.06977  -0.06793  -0.04112  -0.03655
 Alpha virt. eigenvalues --   -0.02647  -0.02274  -0.01971  -0.01542  -0.01446

 Mulliken charges:
               1
     1  N   -0.753585
     2  H    0.410447
     3  H    0.413463
     4  H    0.400793
     5  C   -0.123508
     6  H    0.241504
     7  C    0.640924
     8  C   -0.296821
     9  H    0.158509
    10  H    0.197414
    11  O   -0.556136
    12  C   -0.364151
    13  H    0.196613
    14  H    0.232734
    15  C    0.572239
    16  O   -0.457947
    17  O   -0.557353
    18  N   -0.615584
    19  H    0.395338
    20  C   -0.040234
    21  H    0.186942
    22  C    0.662984
    23  C   -0.389817
    24  H    0.191262
    25  H    0.161501
    26  O   -0.550142
    27  C    0.049743
    28  C   -0.001342
    29  H    0.228912
    30  C    0.093997
    31  C    0.319479
    32  C   -0.285402
    33  H    0.157837
    34  N   -0.695017
    35  H    0.342390
    36  C   -0.150665
    37  H    0.147895
    38  C   -0.151333
    39  H    0.147824
    40  C   -0.183962
    41  H    0.137698
    42  N   -0.622706
    43  H    0.345240
    44  C   -0.044505
    45  H    0.167868
    46  C    0.665846
    47  C    0.083072
    48  H    0.140651
    49  O   -0.547560
    50  C   -0.448454
    51  H    0.139520
    52  H    0.178576
    53  H    0.187653
    54  O   -0.612614
    55  H    0.405891
    56  N   -0.605344
    57  H    0.359270
    58  C   -0.051833
    59  H    0.207980
    60  C    0.585738
    61  C   -0.272417
    62  H    0.179569
    63  H    0.161173
    64  O   -0.442279
    65  C   -0.330951
    66  H    0.155693
    67  H    0.187144
    68  C   -0.132313
    69  H    0.154254
    70  H    0.153623
    71  N   -0.619978
    72  H    0.372133
    73  N   -0.739903
    74  H    0.335727
    75  H    0.338851
    76  N   -0.755620
    77  H    0.313634
    78  C    0.622890
    79  O   -0.578652
    80  H    0.428719
    81  H    0.418972
 Sum of Mulliken charges =   1.00000

 Dipole moment (field-independent basis, Debye):
    X=            -10.1207    Y=              8.2171    Z=              3.0646  Tot=             13.3918
 Quadrupole moment (field-independent basis, Debye-Ang):
   XX=           -134.5685   YY=           -199.0270   ZZ=           -204.5791
   XY=            -49.9306   XZ=            -14.6795   YZ=              0.7226

 Normal termination of Gaussian 16 at Thu May 26 18:14:30 2022.
