 Gaussian 16, Revision C.01,
 Gaussian 16:  ES64L-G16RevC.01  3-Jul-2019

 -------------------------------------------------------------------
 # B3LYP/6-31G* guess=read geom=check nosymm integral(ultrafinegrid)
 -------------------------------------------------------------------

 ------------------------------------------------------
 Candidate Structure: Conf:727 Charge calc in gas phase
 ------------------------------------------------------
 Structure from the checkpoint file:  "conf-727.chk"
 Charge =  1 Multiplicity = 1

                          Input orientation:
 ---------------------------------------------------------------------
 Center     Atomic      Atomic             Coordinates (Angstroms)
 Number     Number       Type             X           Y           Z
 ---------------------------------------------------------------------
      1          7           0       -6.022202    1.228217    3.336848
      2          1           0       -6.604352    1.340514    2.481090
      3          1           0       -5.741895    0.224606    3.404763
      4          1           0       -6.562186    1.519516    4.155717
      5          6           0       -4.713183    1.971475    3.177691
      6          1           0       -4.916881    2.879740    2.610121
      7          6           0       -3.873476    0.937447    2.369427
      8          6           0       -4.084708    2.292936    4.558771
      9          1           0       -4.876595    2.385229    5.313280
     10          1           0       -3.453255    1.453883    4.867814
     11          8           0       -4.067117   -0.254834    2.630927
     12          6           0       -3.267995    3.615454    4.578932
     13          1           0       -2.653531    3.638075    5.481866
     14          1           0       -3.946898    4.471964    4.583893
     15          6           0       -2.420770    3.706095    3.328421
     16          8           0       -2.882889    4.129764    2.274892
     17          8           0       -1.227684    3.141036    3.447663
     18          7           0       -3.034054    1.414753    1.446940
     19          1           0       -2.921018    2.424637    1.349349
     20          6           0       -2.265760    0.567674    0.546400
     21          1           0       -2.227226   -0.430895    0.990828
     22          6           0       -0.833222    1.136683    0.444616
     23          6           0       -2.978087    0.472556   -0.842455
     24          1           0       -2.347220   -0.106523   -1.525952
     25          1           0       -3.043129    1.482621   -1.266682
     26          8           0       -0.510251    2.209224    0.973279
     27          6           0       -4.337068   -0.163496   -0.744851
     28          6           0       -4.607220   -1.499296   -0.921288
     29          1           0       -3.948163   -2.297548   -1.235709
     30          6           0       -5.581247    0.445457   -0.336244
     31          6           0       -6.553409   -0.596499   -0.256885
     32          6           0       -5.982440    1.758420   -0.026700
     33          1           0       -5.289315    2.588961   -0.131333
     34          7           0       -5.927575   -1.763154   -0.628105
     35          1           0       -6.372623   -2.664375   -0.719622
     36          6           0       -8.226446    0.933133    0.496309
     37          1           0       -9.246229    1.146057    0.803766
     38          6           0       -7.869282   -0.369430    0.161293
     39          1           0       -8.591879   -1.178852    0.215630
     40          6           0       -7.292960    1.992788    0.393697
     41          1           0       -7.619173    3.010741    0.592455
     42          7           0        0.021749    0.385334   -0.267391
     43          1           0       -0.303931   -0.408326   -0.820075
     44          6           0        1.339985    0.830599   -0.692439
     45          1           0        1.295061    1.893131   -0.960075
     46          6           0        1.653366    0.001619   -1.962537
     47          6           0        2.398829    0.706195    0.430238
     48          1           0        1.997235    1.255504    1.292085
     49          8           0        0.829567   -0.810025   -2.392568
     50          6           0        2.724097   -0.728978    0.834240
     51          1           0        1.822730   -1.249182    1.175628
     52          1           0        3.438393   -0.735174    1.666642
     53          1           0        3.161377   -1.286451    0.000089
     54          8           0        3.547088    1.399983   -0.079012
     55          1           0        4.278876    1.281755    0.546352
     56          7           0        2.835077    0.257873   -2.556771
     57          1           0        3.511708    0.798774   -2.024015
     58          6           0        3.252300   -0.458235   -3.755596
     59          1           0        2.407361   -0.480145   -4.449023
     60          6           0        3.600068   -1.925694   -3.496442
     61          6           0        4.441023    0.278735   -4.408698
     62          1           0        5.305262    0.236246   -3.729407
     63          1           0        4.155625    1.333035   -4.505566
     64          8           0        3.484346   -2.803659   -4.317514
     65          6           0        4.834201   -0.252918   -5.791400
     66          1           0        5.176584   -1.292064   -5.725775
     67          1           0        3.946299   -0.263892   -6.437985
     68          6           0        5.937459    0.588316   -6.454451
     69          1           0        6.839824    0.560415   -5.830005
     70          1           0        6.199223    0.145181   -7.419701
     71          7           0        5.560774    1.992328   -6.659886
     72          1           0        6.038118    2.652420   -6.061225
     73          7           0        4.750387    1.605184   -8.822585
     74          1           0        4.477576    2.073821   -9.679543
     75          1           0        4.000261    1.031537   -8.451943
     76          7           0        5.473229    3.741614   -8.299683
     77          1           0        6.005864    4.271912   -7.607022
     78          6           0        5.284321    2.529874   -7.921655
     79          8           0        4.125577   -2.134610   -2.261837
     80          1           0        4.347865   -3.084805   -2.223741
     81          1           0       -0.848337    2.999870    2.537373
 ---------------------------------------------------------------------

 SCF Done:  E(RB3LYP) =  -2053.93327583     A.U. after    1 cycles

 Alpha  occ. eigenvalues --  -19.28917 -19.27118 -19.25442 -19.24613 -19.24418
 Alpha  occ. eigenvalues --  -19.23559 -19.21049 -19.20994 -14.58880 -14.48752
 Alpha  occ. eigenvalues --  -14.48377 -14.46506 -14.44278 -14.39675 -14.37995
 Alpha  occ. eigenvalues --  -14.32067 -10.42819 -10.42719 -10.40460 -10.39634
 Alpha  occ. eigenvalues --  -10.39071 -10.37856 -10.35180 -10.34371 -10.33513
 Alpha  occ. eigenvalues --  -10.32883 -10.32734 -10.32256 -10.31901 -10.31860
 Alpha  occ. eigenvalues --  -10.31529 -10.30710 -10.29897 -10.29840 -10.29597
 Alpha  occ. eigenvalues --  -10.29487 -10.29386 -10.28741 -10.27530 -10.26657
 Alpha  occ. eigenvalues --  -10.26250 -10.24886  -1.20660  -1.18036  -1.17735
 Alpha  occ. eigenvalues --   -1.15094  -1.12941  -1.12832  -1.11630  -1.11625
 Alpha  occ. eigenvalues --   -1.08688  -1.08422  -1.05607  -1.03187  -1.01478
 Alpha  occ. eigenvalues --   -1.01161  -0.94867  -0.94077  -0.92890  -0.91486
 Alpha  occ. eigenvalues --   -0.88769  -0.88197  -0.87312  -0.85983  -0.85108
 Alpha  occ. eigenvalues --   -0.84342  -0.82634  -0.81215  -0.79493  -0.78949
 Alpha  occ. eigenvalues --   -0.76763  -0.73612  -0.73120  -0.72967  -0.72591
 Alpha  occ. eigenvalues --   -0.71929  -0.71074  -0.69992  -0.69895  -0.69541
 Alpha  occ. eigenvalues --   -0.67702  -0.67445  -0.66776  -0.66063  -0.65150
 Alpha  occ. eigenvalues --   -0.64376  -0.63874  -0.63259  -0.62331  -0.60706
 Alpha  occ. eigenvalues --   -0.59748  -0.59737  -0.59080  -0.58775  -0.58513
 Alpha  occ. eigenvalues --   -0.58424  -0.57923  -0.57397  -0.56615  -0.56435
 Alpha  occ. eigenvalues --   -0.56199  -0.55778  -0.55448  -0.55038  -0.54810
 Alpha  occ. eigenvalues --   -0.54359  -0.53839  -0.53607  -0.53170  -0.52798
 Alpha  occ. eigenvalues --   -0.52502  -0.52177  -0.51871  -0.51776  -0.50909
 Alpha  occ. eigenvalues --   -0.50826  -0.50523  -0.49632  -0.49236  -0.49173
 Alpha  occ. eigenvalues --   -0.48928  -0.48777  -0.48648  -0.48373  -0.47726
 Alpha  occ. eigenvalues --   -0.47545  -0.47430  -0.46868  -0.46713  -0.45941
 Alpha  occ. eigenvalues --   -0.45786  -0.45377  -0.44532  -0.44181  -0.44067
 Alpha  occ. eigenvalues --   -0.43590  -0.42891  -0.41934  -0.41668  -0.40735
 Alpha  occ. eigenvalues --   -0.40089  -0.39858  -0.38847  -0.38762  -0.38445
 Alpha  occ. eigenvalues --   -0.38049  -0.37524  -0.37118  -0.36309  -0.36247
 Alpha  occ. eigenvalues --   -0.34739  -0.33404  -0.32850  -0.30821  -0.30604
 Alpha  occ. eigenvalues --   -0.29613  -0.26343
 Alpha virt. eigenvalues --   -0.12366  -0.11740  -0.11001  -0.09634  -0.09247
 Alpha virt. eigenvalues --   -0.08147  -0.06915  -0.06077  -0.04624  -0.04189
 Alpha virt. eigenvalues --   -0.02064  -0.01875  -0.01357  -0.01111  -0.00607

 Mulliken charges:
               1
     1  N   -0.761256
     2  H    0.419326
     3  H    0.421470
     4  H    0.400601
     5  C   -0.116045
     6  H    0.228538
     7  C    0.645008
     8  C   -0.316008
     9  H    0.168325
    10  H    0.211258
    11  O   -0.541879
    12  C   -0.326394
    13  H    0.202663
    14  H    0.192429
    15  C    0.570394
    16  O   -0.491232
    17  O   -0.563610
    18  N   -0.612305
    19  H    0.395057
    20  C   -0.078234
    21  H    0.208434
    22  C    0.644471
    23  C   -0.376492
    24  H    0.183079
    25  H    0.174712
    26  O   -0.564882
    27  C    0.078971
    28  C    0.024979
    29  H    0.178422
    30  C    0.080164
    31  C    0.323445
    32  C   -0.240474
    33  H    0.151199
    34  N   -0.681186
    35  H    0.348876
    36  C   -0.172456
    37  H    0.155938
    38  C   -0.160217
    39  H    0.156288
    40  C   -0.218595
    41  H    0.152901
    42  N   -0.619110
    43  H    0.372423
    44  C   -0.057405
    45  H    0.205854
    46  C    0.609496
    47  C    0.137279
    48  H    0.155953
    49  O   -0.544860
    50  C   -0.496969
    51  H    0.158905
    52  H    0.155652
    53  H    0.190055
    54  O   -0.637570
    55  H    0.412800
    56  N   -0.618930
    57  H    0.371407
    58  C   -0.016579
    59  H    0.198398
    60  C    0.600774
    61  C   -0.307564
    62  H    0.145270
    63  H    0.173190
    64  O   -0.448608
    65  C   -0.258636
    66  H    0.163870
    67  H    0.140849
    68  C   -0.159641
    69  H    0.144665
    70  H    0.189891
    71  N   -0.595780
    72  H    0.314130
    73  N   -0.736917
    74  H    0.342662
    75  H    0.319871
    76  N   -0.633037
    77  H    0.261645
    78  C    0.559139
    79  O   -0.572156
    80  H    0.418975
    81  H    0.464921
 Sum of Mulliken charges =   1.00000

 Dipole moment (field-independent basis, Debye):
    X=            -17.0447    Y=              1.6262    Z=             12.3560  Tot=             21.1148
 Quadrupole moment (field-independent basis, Debye-Ang):
   XX=            -61.5538   YY=           -237.7058   ZZ=           -219.4184
   XY=            -20.2483   XZ=            -53.8808   YZ=             38.1337

 Normal termination of Gaussian 16 at Thu May 26 18:14:22 2022.
