 Gaussian 16, Revision C.01,
 Gaussian 16:  ES64L-G16RevC.01  3-Jul-2019

 -------------------------------------------------------------------
 # B3LYP/6-31G* guess=read geom=check nosymm integral(ultrafinegrid)
 -------------------------------------------------------------------

 ------------------------------------------------------
 Candidate Structure: Conf:966 Charge calc in gas phase
 ------------------------------------------------------
 Structure from the checkpoint file:  "conf-966.chk"
 Charge =  1 Multiplicity = 1

                          Input orientation:
 ---------------------------------------------------------------------
 Center     Atomic      Atomic             Coordinates (Angstroms)
 Number     Number       Type             X           Y           Z
 ---------------------------------------------------------------------
      1          7           0       -2.548765   -1.018930    4.226634
      2          1           0       -3.055165   -1.075642    5.114019
      3          1           0       -2.581357   -1.915647    3.716684
      4          1           0       -1.524366   -0.834723    4.381351
      5          6           0       -3.083461    0.046509    3.296519
      6          1           0       -4.169567   -0.092454    3.258887
      7          6           0       -2.515185   -0.358267    1.905890
      8          6           0       -2.778603    1.476136    3.805579
      9          1           0       -2.924809    2.155408    2.960431
     10          1           0       -3.538299    1.750335    4.545539
     11          8           0       -1.943851   -1.455123    1.807330
     12          6           0       -1.385012    1.752347    4.431182
     13          1           0       -1.335639    1.344478    5.446814
     14          1           0       -1.263490    2.835088    4.505797
     15          6           0       -0.226237    1.195930    3.617203
     16          8           0        0.008278   -0.103023    3.955228
     17          8           0        0.376854    1.785457    2.757432
     18          7           0       -2.721553    0.490525    0.899449
     19          1           0       -3.308010    1.310025    1.022434
     20          6           0       -2.250409    0.253223   -0.478147
     21          1           0       -2.419400   -0.805241   -0.697846
     22          6           0       -0.740595    0.600656   -0.478834
     23          6           0       -3.025636    1.162860   -1.457682
     24          1           0       -2.843246    0.772210   -2.467039
     25          1           0       -2.561181    2.153789   -1.419149
     26          8           0       -0.366990    1.765776   -0.492861
     27          6           0       -4.495444    1.272374   -1.174787
     28          6           0       -5.157430    2.432625   -0.837931
     29          1           0       -4.774679    3.441768   -0.756387
     30          6           0       -5.492781    0.226625   -1.204677
     31          6           0       -6.737756    0.829255   -0.875921
     32          6           0       -5.461952   -1.151668   -1.487060
     33          1           0       -4.532414   -1.642806   -1.764669
     34          7           0       -6.497479    2.171500   -0.646645
     35          1           0       -7.207629    2.872245   -0.495641
     36          6           0       -7.866086   -1.257315   -1.101443
     37          1           0       -8.775133   -1.850809   -1.074628
     38          6           0       -7.931248    0.101514   -0.818916
     39          1           0       -8.875117    0.580171   -0.572975
     40          6           0       -6.643984   -1.878294   -1.433470
     41          1           0       -6.633250   -2.940338   -1.660484
     42          7           0        0.103256   -0.457417   -0.336080
     43          1           0       -0.239093   -1.390771   -0.527438
     44          6           0        1.514182   -0.275844    0.022438
     45          1           0        1.560053    0.683073    0.547047
     46          6           0        2.399377   -0.227844   -1.245026
     47          6           0        1.957288   -1.402028    0.977494
     48          1           0        1.997140   -2.344297    0.418075
     49          8           0        3.065125   -1.196444   -1.604315
     50          6           0        3.311477   -1.133551    1.612591
     51          1           0        4.084341   -1.108118    0.841322
     52          1           0        3.554018   -1.932478    2.319112
     53          1           0        3.309298   -0.178535    2.150463
     54          8           0        0.998808   -1.559999    2.053791
     55          1           0        0.610421   -0.549278    3.265405
     56          7           0        2.348318    0.949000   -1.909860
     57          1           0        1.786984    1.720481   -1.556627
     58          6           0        3.146762    1.197507   -3.101625
     59          1           0        4.156011    0.805487   -2.930351
     60          6           0        3.239962    2.708472   -3.273788
     61          6           0        2.592799    0.518675   -4.378953
     62          1           0        2.611821   -0.562336   -4.199382
     63          1           0        3.300892    0.728497   -5.188527
     64          8           0        2.595349    3.515099   -2.639076
     65          6           0        1.183346    0.971381   -4.775692
     66          1           0        0.480109    0.732729   -3.966196
     67          1           0        1.157175    2.060745   -4.904590
     68          6           0        0.680040    0.307910   -6.073511
     69          1           0        0.736807   -0.783542   -5.979982
     70          1           0       -0.378135    0.550007   -6.225747
     71          7           0        1.394929    0.678203   -7.284522
     72          1           0        2.329889    0.298190   -7.369058
     73          7           0        2.186287    2.157926   -8.878478
     74          1           0        1.979189    3.023096   -9.365726
     75          1           0        2.273757    1.382226   -9.527779
     76          7           0        0.409677    2.867050   -7.565699
     77          1           0       -0.132908    2.638257   -6.733533
     78          6           0        1.252098    1.943170   -7.858681
     79          8           0        4.111351    3.038689   -4.242931
     80          1           0        4.089910    4.010791   -4.332631
     81          1           0        0.109661   -1.698495    1.676967
 ---------------------------------------------------------------------

 SCF Done:  E(RB3LYP) =  -2053.92384991     A.U. after    2 cycles

 Alpha  occ. eigenvalues --  -19.31017 -19.27985 -19.26953 -19.26916 -19.25941
 Alpha  occ. eigenvalues --  -19.22614 -19.21482 -19.19485 -14.60452 -14.51447
 Alpha  occ. eigenvalues --  -14.47483 -14.47148 -14.43479 -14.40043 -14.38083
 Alpha  occ. eigenvalues --  -14.32777 -10.45281 -10.44207 -10.42454 -10.39832
 Alpha  occ. eigenvalues --  -10.39460 -10.36812 -10.36360 -10.35905 -10.34085
 Alpha  occ. eigenvalues --  -10.33971 -10.32565 -10.32365 -10.31560 -10.31221
 Alpha  occ. eigenvalues --  -10.30797 -10.29916 -10.28312 -10.28098 -10.27457
 Alpha  occ. eigenvalues --  -10.27379 -10.27353 -10.26817 -10.26505 -10.25983
 Alpha  occ. eigenvalues --  -10.25863 -10.25200  -1.21787  -1.20149  -1.17991
 Alpha  occ. eigenvalues --   -1.15086  -1.14639  -1.13858  -1.12774  -1.11306
 Alpha  occ. eigenvalues --   -1.09102  -1.07748  -1.07011  -1.03222  -1.02021
 Alpha  occ. eigenvalues --   -1.00103  -0.96057  -0.93439  -0.92589  -0.91402
 Alpha  occ. eigenvalues --   -0.88711  -0.88305  -0.88198  -0.86409  -0.85740
 Alpha  occ. eigenvalues --   -0.82202  -0.81767  -0.81193  -0.80340  -0.79512
 Alpha  occ. eigenvalues --   -0.76481  -0.75380  -0.74431  -0.74061  -0.73464
 Alpha  occ. eigenvalues --   -0.71996  -0.71072  -0.70972  -0.69310  -0.68731
 Alpha  occ. eigenvalues --   -0.68323  -0.67941  -0.67231  -0.64953  -0.64668
 Alpha  occ. eigenvalues --   -0.64472  -0.64167  -0.62851  -0.62386  -0.62028
 Alpha  occ. eigenvalues --   -0.61603  -0.60917  -0.60550  -0.59589  -0.59253
 Alpha  occ. eigenvalues --   -0.58875  -0.58459  -0.57457  -0.57210  -0.57015
 Alpha  occ. eigenvalues --   -0.56561  -0.56212  -0.55666  -0.55016  -0.54622
 Alpha  occ. eigenvalues --   -0.54526  -0.54121  -0.53477  -0.52715  -0.52613
 Alpha  occ. eigenvalues --   -0.52143  -0.51864  -0.51624  -0.51576  -0.50998
 Alpha  occ. eigenvalues --   -0.50818  -0.50553  -0.50259  -0.50067  -0.49490
 Alpha  occ. eigenvalues --   -0.49240  -0.48878  -0.48612  -0.48481  -0.47603
 Alpha  occ. eigenvalues --   -0.47322  -0.47070  -0.46472  -0.46425  -0.46265
 Alpha  occ. eigenvalues --   -0.45721  -0.44742  -0.44093  -0.43898  -0.43814
 Alpha  occ. eigenvalues --   -0.43548  -0.42396  -0.42146  -0.42005  -0.41473
 Alpha  occ. eigenvalues --   -0.41304  -0.41132  -0.40305  -0.39650  -0.39025
 Alpha  occ. eigenvalues --   -0.38602  -0.37492  -0.36397  -0.36029  -0.35039
 Alpha  occ. eigenvalues --   -0.33077  -0.32553  -0.31104  -0.30535  -0.30212
 Alpha  occ. eigenvalues --   -0.29565  -0.27243
 Alpha virt. eigenvalues --   -0.14644  -0.11616  -0.11082  -0.09927  -0.09484
 Alpha virt. eigenvalues --   -0.06787  -0.06390  -0.05995  -0.05263  -0.04976
 Alpha virt. eigenvalues --   -0.03673  -0.02942  -0.02684  -0.02187  -0.01157

 Mulliken charges:
               1
     1  N   -0.752291
     2  H    0.409461
     3  H    0.422708
     4  H    0.446328
     5  C   -0.146657
     6  H    0.235509
     7  C    0.672260
     8  C   -0.298082
     9  H    0.201574
    10  H    0.192978
    11  O   -0.567010
    12  C   -0.371692
    13  H    0.179945
    14  H    0.224042
    15  C    0.587499
    16  O   -0.644328
    17  O   -0.413069
    18  N   -0.584410
    19  H    0.353188
    20  C   -0.050752
    21  H    0.177527
    22  C    0.636915
    23  C   -0.398951
    24  H    0.184038
    25  H    0.200334
    26  O   -0.501005
    27  C    0.025903
    28  C   -0.016876
    29  H    0.171540
    30  C    0.089385
    31  C    0.305297
    32  C   -0.216632
    33  H    0.122062
    34  N   -0.682207
    35  H    0.343245
    36  C   -0.150397
    37  H    0.147317
    38  C   -0.161404
    39  H    0.143119
    40  C   -0.139284
    41  H    0.140470
    42  N   -0.631001
    43  H    0.341419
    44  C   -0.084488
    45  H    0.211831
    46  C    0.638451
    47  C    0.114713
    48  H    0.168673
    49  O   -0.530233
    50  C   -0.476135
    51  H    0.197425
    52  H    0.174316
    53  H    0.160688
    54  O   -0.690645
    55  H    0.468781
    56  N   -0.625905
    57  H    0.378554
    58  C   -0.030572
    59  H    0.199587
    60  C    0.585826
    61  C   -0.281515
    62  H    0.171470
    63  H    0.165188
    64  O   -0.463400
    65  C   -0.272206
    66  H    0.125442
    67  H    0.162997
    68  C   -0.159482
    69  H    0.148995
    70  H    0.157051
    71  N   -0.586099
    72  H    0.324120
    73  N   -0.752169
    74  H    0.339264
    75  H    0.321358
    76  N   -0.644945
    77  H    0.270598
    78  C    0.577717
    79  O   -0.558645
    80  H    0.427562
    81  H    0.437814
 Sum of Mulliken charges =   1.00000

 Dipole moment (field-independent basis, Debye):
    X=            -14.7118    Y=             -1.1549    Z=             12.1229  Tot=             19.0981
 Quadrupole moment (field-independent basis, Debye-Ang):
   XX=           -151.9074   YY=           -233.3562   ZZ=           -153.8001
   XY=             -6.3054   XZ=            -59.4518   YZ=              5.4503

 Normal termination of Gaussian 16 at Thu May 26 18:14:34 2022.
