 Gaussian 16, Revision C.01,
 Gaussian 16:  ES64L-G16RevC.01  3-Jul-2019

 -------------------------------------------------------------------
 # B3LYP/6-31G* guess=read geom=check nosymm integral(ultrafinegrid)
 -------------------------------------------------------------------

 -----------------------------------------------------
 Candidate Structure: Conf:90 Charge calc in gas phase
 -----------------------------------------------------
 Structure from the checkpoint file:  "conf-90.chk"
 Charge =  1 Multiplicity = 1

                          Input orientation:
 ---------------------------------------------------------------------
 Center     Atomic      Atomic             Coordinates (Angstroms)
 Number     Number       Type             X           Y           Z
 ---------------------------------------------------------------------
      1          7           0       -2.147577    1.528180    5.139290
      2          1           0       -2.453813    0.580726    5.352696
      3          1           0       -1.136453    1.561204    5.258483
      4          1           0       -3.517005    2.771622    5.997733
      5          6           0       -2.551328    1.949278    3.804579
      6          1           0       -3.646516    1.924427    3.771592
      7          6           0       -2.050710    1.048606    2.682558
      8          6           0       -2.088701    3.403633    3.514733
      9          1           0       -1.001278    3.416138    3.367614
     10          1           0       -2.547820    3.729200    2.574725
     11          8           0       -0.870835    0.520809    2.840036
     12          6           0       -2.455019    4.402308    4.635027
     13          1           0       -2.230979    5.411391    4.282106
     14          1           0       -1.844674    4.211247    5.523560
     15          6           0       -3.941366    4.357587    4.997391
     16          8           0       -4.301805    3.333100    5.807197
     17          8           0       -4.755202    5.138330    4.571731
     18          7           0       -2.805819    0.870559    1.627237
     19          1           0       -3.672152    1.421785    1.606361
     20          6           0       -2.600889    0.027089    0.420827
     21          1           0       -2.613269   -1.018070    0.754318
     22          6           0       -1.217549    0.329927   -0.203538
     23          6           0       -3.779530    0.270903   -0.571240
     24          1           0       -4.592099   -0.407442   -0.287065
     25          1           0       -3.438330   -0.048894   -1.559830
     26          8           0       -1.019277    1.218356   -1.003109
     27          6           0       -4.279996    1.686539   -0.598665
     28          6           0       -3.875088    2.707031   -1.428045
     29          1           0       -3.168695    2.684273   -2.245225
     30          6           0       -5.219968    2.267528    0.338243
     31          6           0       -5.315813    3.652417    0.025449
     32          6           0       -5.968605    1.764590    1.426205
     33          1           0       -5.971310    0.701253    1.660471
     34          7           0       -4.495800    3.877580   -1.063422
     35          1           0       -4.393470    4.760336   -1.542207
     36          6           0       -6.802429    4.016377    1.854672
     37          1           0       -7.402660    4.679601    2.468264
     38          6           0       -6.103743    4.534882    0.770826
     39          1           0       -6.159181    5.590992    0.523494
     40          6           0       -6.743504    2.644737    2.174268
     41          1           0       -7.322807    2.271236    3.012988
     42          7           0       -0.199330   -0.451495    0.350273
     43          1           0       -0.443270   -1.431740    0.535932
     44          6           0        1.136265   -0.432778   -0.271616
     45          1           0        1.596071    0.547433   -0.120907
     46          6           0        1.027960   -0.807849   -1.759677
     47          6           0        1.964459   -1.567751    0.414997
     48          1           0        2.848753   -1.746432   -0.212120
     49          8           0        0.338893   -1.780182   -2.079417
     50          6           0        2.412038   -1.233648    1.831590
     51          1           0        3.060083   -0.351272    1.838418
     52          1           0        2.971158   -2.078296    2.242938
     53          1           0        1.558221   -1.049266    2.492804
     54          8           0        1.152852   -2.737721    0.477753
     55          1           0        0.935779   -2.987787   -0.442709
     56          7           0        1.782054   -0.093962   -2.619959
     57          1           0        2.357847    0.655677   -2.258641
     58          6           0        2.012601   -0.509535   -3.999181
     59          1           0        1.155919   -1.128247   -4.284053
     60          6           0        3.242545   -1.413593   -4.152643
     61          6           0        2.114283    0.702016   -4.944616
     62          1           0        2.484434    0.338101   -5.906870
     63          1           0        2.878909    1.396944   -4.569928
     64          8           0        3.570154   -1.907487   -5.202674
     65          6           0        0.775609    1.430032   -5.125140
     66          1           0        0.059446    0.750308   -5.610174
     67          1           0        0.345439    1.679944   -4.144650
     68          6           0        0.881173    2.729108   -5.946364
     69          1           0       -0.110186    3.195666   -6.001515
     70          1           0        1.537077    3.435117   -5.431185
     71          7           0        1.379295    2.566150   -7.311282
     72          1           0        0.814522    1.949536   -7.884190
     73          7           0        3.547605    3.328560   -6.846405
     74          1           0        4.496197    3.303138   -7.207716
     75          1           0        3.204590    4.284363   -6.805716
     76          7           0        3.287487    1.746775   -8.519648
     77          1           0        2.621566    1.083765   -8.921712
     78          6           0        2.741135    2.483622   -7.624143
     79          8           0        3.925289   -1.598609   -2.994409
     80          1           0        4.678320   -2.179745   -3.218329
     81          1           0       -0.495844    0.097411    1.997407
 ---------------------------------------------------------------------

 SCF Done:  E(RB3LYP) =  -2053.88408598     A.U. after    3 cycles

 Alpha  occ. eigenvalues --  -19.36824 -19.28849 -19.28009 -19.26579 -19.26042
 Alpha  occ. eigenvalues --  -19.23217 -19.22513 -19.21193 -14.55730 -14.51117
 Alpha  occ. eigenvalues --  -14.48492 -14.47723 -14.47490 -14.41188 -14.39678
 Alpha  occ. eigenvalues --  -14.34000 -10.48876 -10.44444 -10.40804 -10.40498
 Alpha  occ. eigenvalues --  -10.39863 -10.39834 -10.38498 -10.36228 -10.36072
 Alpha  occ. eigenvalues --  -10.33580 -10.33513 -10.33117 -10.32797 -10.32625
 Alpha  occ. eigenvalues --  -10.32124 -10.30435 -10.29558 -10.29371 -10.29279
 Alpha  occ. eigenvalues --  -10.29020 -10.28903 -10.28528 -10.27884 -10.27685
 Alpha  occ. eigenvalues --  -10.27626 -10.26990  -1.27079  -1.19716  -1.19395
 Alpha  occ. eigenvalues --   -1.17344  -1.15585  -1.13300  -1.12661  -1.10394
 Alpha  occ. eigenvalues --   -1.09367  -1.08404  -1.06812  -1.04686  -1.04093
 Alpha  occ. eigenvalues --   -1.03167  -0.95247  -0.94672  -0.93795  -0.91321
 Alpha  occ. eigenvalues --   -0.90682  -0.89840  -0.88850  -0.87913  -0.85445
 Alpha  occ. eigenvalues --   -0.83879  -0.83497  -0.82506  -0.81640  -0.80034
 Alpha  occ. eigenvalues --   -0.79099  -0.75733  -0.75424  -0.74531  -0.73173
 Alpha  occ. eigenvalues --   -0.72213  -0.71551  -0.70496  -0.69893  -0.69316
 Alpha  occ. eigenvalues --   -0.68809  -0.68587  -0.68072  -0.67154  -0.65940
 Alpha  occ. eigenvalues --   -0.65391  -0.64734  -0.64591  -0.63732  -0.63180
 Alpha  occ. eigenvalues --   -0.62055  -0.61431  -0.61122  -0.60053  -0.59799
 Alpha  occ. eigenvalues --   -0.58875  -0.58256  -0.57760  -0.57397  -0.57159
 Alpha  occ. eigenvalues --   -0.56643  -0.56611  -0.56306  -0.55912  -0.55677
 Alpha  occ. eigenvalues --   -0.54569  -0.54453  -0.54311  -0.54221  -0.53366
 Alpha  occ. eigenvalues --   -0.53011  -0.52994  -0.52577  -0.52457  -0.51882
 Alpha  occ. eigenvalues --   -0.51715  -0.51566  -0.51422  -0.50631  -0.50489
 Alpha  occ. eigenvalues --   -0.50226  -0.49867  -0.49828  -0.49570  -0.49094
 Alpha  occ. eigenvalues --   -0.48585  -0.48233  -0.47938  -0.47673  -0.47612
 Alpha  occ. eigenvalues --   -0.46558  -0.45897  -0.45209  -0.45138  -0.44953
 Alpha  occ. eigenvalues --   -0.44934  -0.43842  -0.43608  -0.43223  -0.42984
 Alpha  occ. eigenvalues --   -0.42583  -0.41796  -0.40466  -0.40296  -0.40107
 Alpha  occ. eigenvalues --   -0.39305  -0.39046  -0.39029  -0.37870  -0.36659
 Alpha  occ. eigenvalues --   -0.34797  -0.34768  -0.32398  -0.32143  -0.31324
 Alpha  occ. eigenvalues --   -0.30697  -0.28289
 Alpha virt. eigenvalues --   -0.18215  -0.15149  -0.11336  -0.09504  -0.07978
 Alpha virt. eigenvalues --   -0.07852  -0.07823  -0.06455  -0.05151  -0.04170
 Alpha virt. eigenvalues --   -0.03818  -0.02505  -0.02214  -0.01511  -0.01192

 Mulliken charges:
               1
     1  N   -0.734310
     2  H    0.342453
     3  H    0.342923
     4  H    0.440539
     5  C   -0.095413
     6  H    0.211549
     7  C    0.612568
     8  C   -0.294506
     9  H    0.170095
    10  H    0.188352
    11  O   -0.576772
    12  C   -0.366149
    13  H    0.200029
    14  H    0.175800
    15  C    0.583556
    16  O   -0.580917
    17  O   -0.432484
    18  N   -0.585066
    19  H    0.409537
    20  C   -0.050900
    21  H    0.196466
    22  C    0.605819
    23  C   -0.399235
    24  H    0.189355
    25  H    0.205034
    26  O   -0.447108
    27  C    0.032208
    28  C    0.039557
    29  H    0.181479
    30  C    0.026479
    31  C    0.321714
    32  C   -0.255052
    33  H    0.132270
    34  N   -0.682536
    35  H    0.348699
    36  C   -0.134696
    37  H    0.169172
    38  C   -0.152285
    39  H    0.155535
    40  C   -0.128070
    41  H    0.156127
    42  N   -0.684613
    43  H    0.374137
    44  C   -0.082869
    45  H    0.168199
    46  C    0.652732
    47  C    0.099013
    48  H    0.175433
    49  O   -0.553662
    50  C   -0.454683
    51  H    0.161014
    52  H    0.197362
    53  H    0.141361
    54  O   -0.631012
    55  H    0.427215
    56  N   -0.591368
    57  H    0.342946
    58  C   -0.064178
    59  H    0.217732
    60  C    0.598469
    61  C   -0.293694
    62  H    0.205468
    63  H    0.155836
    64  O   -0.432594
    65  C   -0.271123
    66  H    0.141246
    67  H    0.139642
    68  C   -0.145057
    69  H    0.148746
    70  H    0.161324
    71  N   -0.582165
    72  H    0.313423
    73  N   -0.744895
    74  H    0.343073
    75  H    0.323402
    76  N   -0.621667
    77  H    0.268387
    78  C    0.550837
    79  O   -0.581342
    80  H    0.426051
    81  H    0.480056
 Sum of Mulliken charges =   1.00000

 Dipole moment (field-independent basis, Debye):
    X=             -4.9184    Y=              6.3042    Z=              4.9887  Tot=              9.4244
 Quadrupole moment (field-independent basis, Debye-Ang):
   XX=           -212.3898   YY=           -216.2856   ZZ=           -224.1840
   XY=             -4.4026   XZ=             16.6612   YZ=            -19.3330

 Normal termination of Gaussian 16 at Thu May 26 18:13:48 2022.
