 Gaussian 16, Revision C.01,
 Gaussian 16:  ES64L-G16RevC.01  3-Jul-2019

 -------------------------------------------------------------------
 # B3LYP/6-31G* guess=read geom=check nosymm integral(ultrafinegrid)
 -------------------------------------------------------------------

 ------------------------------------------------------
 Candidate Structure: Conf:497 Charge calc in gas phase
 ------------------------------------------------------
 Structure from the checkpoint file:  "conf-497.chk"
 Charge =  1 Multiplicity = 1

                          Input orientation:
 ---------------------------------------------------------------------
 Center     Atomic      Atomic             Coordinates (Angstroms)
 Number     Number       Type             X           Y           Z
 ---------------------------------------------------------------------
      1          7           0       -4.045812    3.442221    3.529172
      2          1           0       -4.248924    4.247198    2.941491
      3          1           0       -4.805830    2.774349    3.413011
      4          1           0       -4.134602    3.479504    5.397895
      5          6           0       -2.748743    2.844259    3.218977
      6          1           0       -2.074423    3.641879    2.890111
      7          6           0       -2.808734    1.823123    2.089003
      8          6           0       -2.111476    2.195520    4.486423
      9          1           0       -1.215881    1.641717    4.181851
     10          1           0       -1.757723    3.026552    5.105462
     11          8           0       -3.908004    1.124439    2.029872
     12          6           0       -3.039560    1.281010    5.318284
     13          1           0       -2.460073    0.460195    5.745547
     14          1           0       -3.809905    0.810980    4.691323
     15          6           0       -3.738073    1.946753    6.519623
     16          8           0       -4.219560    3.190627    6.338555
     17          8           0       -3.850036    1.371538    7.573082
     18          7           0       -1.778456    1.649807    1.307869
     19          1           0       -0.928035    2.217953    1.457907
     20          6           0       -1.475884    0.573679    0.348274
     21          1           0       -1.818147   -0.376479    0.773327
     22          6           0        0.075092    0.595632    0.270632
     23          6           0       -2.113937    0.795744   -1.050926
     24          1           0       -1.755575   -0.021273   -1.690178
     25          1           0       -1.707693    1.721325   -1.473491
     26          8           0        0.678969    1.560671    0.755373
     27          6           0       -3.611451    0.843139   -1.032021
     28          6           0       -4.399779    1.908324   -1.403217
     29          1           0       -4.108546    2.873603   -1.795310
     30          6           0       -4.517192   -0.209085   -0.607240
     31          6           0       -5.840396    0.305089   -0.749990
     32          6           0       -4.353674   -1.538030   -0.149459
     33          1           0       -3.366407   -1.986029   -0.066683
     34          7           0       -5.727480    1.592464   -1.232302
     35          1           0       -6.501959    2.186220   -1.492555
     36          6           0       -6.776969   -1.746986    0.017298
     37          1           0       -7.637081   -2.361382    0.264200
     38          6           0       -6.976131   -0.451689   -0.441527
     39          1           0       -7.976068   -0.045886   -0.563295
     40          6           0       -5.480656   -2.285796    0.160674
     41          1           0       -5.366608   -3.308022    0.507558
     42          7           0        0.648698   -0.430069   -0.366282
     43          1           0        0.121893   -1.288164   -0.506094
     44          6           0        2.109340   -0.633020   -0.395767
     45          1           0        2.499683   -0.385156    0.598439
     46          6           0        2.781394    0.275065   -1.465559
     47          6           0        2.381745   -2.113478   -0.724021
     48          1           0        2.254496   -2.237635   -1.806245
     49          8           0        3.083238   -0.159982   -2.572482
     50          6           0        3.791493   -2.532802   -0.323539
     51          1           0        4.537924   -1.941323   -0.862386
     52          1           0        3.961644   -3.584521   -0.580290
     53          1           0        3.942900   -2.413718    0.754634
     54          8           0        1.375306   -2.863218   -0.021631
     55          1           0        1.485991   -3.797092   -0.259039
     56          7           0        3.017280    1.545028   -1.065868
     57          1           0        2.654503    1.885033   -0.179864
     58          6           0        3.641415    2.524948   -1.947364
     59          1           0        4.467678    2.040770   -2.475698
     60          6           0        4.183842    3.628689   -1.048854
     61          6           0        2.634907    3.079670   -2.989140
     62          1           0        1.833961    3.602728   -2.448320
     63          1           0        2.185992    2.201316   -3.466730
     64          8           0        3.713700    3.912709    0.032862
     65          6           0        3.237281    3.990920   -4.065656
     66          1           0        3.668609    4.896164   -3.625564
     67          1           0        4.063837    3.466843   -4.565532
     68          6           0        2.184127    4.396155   -5.103488
     69          1           0        1.729813    3.491563   -5.542220
     70          1           0        1.372906    4.950040   -4.624528
     71          7           0        2.751824    5.258595   -6.142710
     72          1           0        3.362417    4.760343   -6.780859
     73          7           0        1.122468    6.935457   -5.969156
     74          1           0        0.679917    7.680219   -6.498049
     75          1           0        1.597274    7.304270   -5.150065
     76          7           0        1.988242    6.477977   -8.069881
     77          1           0        2.536851    5.792160   -8.592779
     78          6           0        1.973175    6.210909   -6.816756
     79          8           0        5.224635    4.273110   -1.603608
     80          1           0        5.487815    4.982822   -0.985580
     81          1           0       -4.014954    0.555084    1.217661
 ---------------------------------------------------------------------

 SCF Done:  E(RB3LYP) =  -2053.88413921     A.U. after    1 cycles

 Alpha  occ. eigenvalues --  -19.38038 -19.28735 -19.26909 -19.25642 -19.24959
 Alpha  occ. eigenvalues --  -19.23129 -19.20911 -19.19509 -14.56023 -14.50870
 Alpha  occ. eigenvalues --  -14.49814 -14.47962 -14.45044 -14.40395 -14.39006
 Alpha  occ. eigenvalues --  -14.33452 -10.49798 -10.43671 -10.41141 -10.40373
 Alpha  occ. eigenvalues --  -10.39427 -10.38658 -10.38384 -10.35163 -10.34713
 Alpha  occ. eigenvalues --  -10.34498 -10.34414 -10.34250 -10.32879 -10.32711
 Alpha  occ. eigenvalues --  -10.32661 -10.31946 -10.31734 -10.31337 -10.30797
 Alpha  occ. eigenvalues --  -10.30188 -10.30156 -10.30001 -10.28575 -10.27617
 Alpha  occ. eigenvalues --  -10.26813 -10.25983  -1.28057  -1.19718  -1.18924
 Alpha  occ. eigenvalues --   -1.15918  -1.13369  -1.12779  -1.12564  -1.10890
 Alpha  occ. eigenvalues --   -1.10754  -1.07876  -1.06038  -1.05212  -1.02411
 Alpha  occ. eigenvalues --   -1.01695  -0.96808  -0.95626  -0.93937  -0.92051
 Alpha  occ. eigenvalues --   -0.90700  -0.89362  -0.88826  -0.87423  -0.86507
 Alpha  occ. eigenvalues --   -0.85828  -0.84306  -0.82491  -0.81554  -0.80873
 Alpha  occ. eigenvalues --   -0.79765  -0.76097  -0.74664  -0.74566  -0.74277
 Alpha  occ. eigenvalues --   -0.73516  -0.71801  -0.71126  -0.70082  -0.69205
 Alpha  occ. eigenvalues --   -0.68161  -0.67789  -0.67461  -0.66448  -0.66258
 Alpha  occ. eigenvalues --   -0.65820  -0.65093  -0.64351  -0.63645  -0.63405
 Alpha  occ. eigenvalues --   -0.62414  -0.60991  -0.60518  -0.59761  -0.59494
 Alpha  occ. eigenvalues --   -0.59306  -0.58995  -0.58349  -0.57978  -0.57791
 Alpha  occ. eigenvalues --   -0.56869  -0.56689  -0.56495  -0.55955  -0.55424
 Alpha  occ. eigenvalues --   -0.55333  -0.55213  -0.54927  -0.54387  -0.53769
 Alpha  occ. eigenvalues --   -0.53525  -0.53105  -0.52812  -0.52670  -0.52503
 Alpha  occ. eigenvalues --   -0.51879  -0.51428  -0.50797  -0.50571  -0.50243
 Alpha  occ. eigenvalues --   -0.50009  -0.49629  -0.49159  -0.49005  -0.48112
 Alpha  occ. eigenvalues --   -0.47919  -0.47777  -0.47538  -0.47462  -0.46741
 Alpha  occ. eigenvalues --   -0.46485  -0.46274  -0.45800  -0.45536  -0.44860
 Alpha  occ. eigenvalues --   -0.44705  -0.44397  -0.43549  -0.43385  -0.41751
 Alpha  occ. eigenvalues --   -0.41492  -0.41310  -0.40362  -0.40264  -0.40109
 Alpha  occ. eigenvalues --   -0.39851  -0.37891  -0.37431  -0.36913  -0.34929
 Alpha  occ. eigenvalues --   -0.34620  -0.34115  -0.33244  -0.33191  -0.31649
 Alpha  occ. eigenvalues --   -0.30555  -0.27799
 Alpha virt. eigenvalues --   -0.18805  -0.13826  -0.12404  -0.10180  -0.08769
 Alpha virt. eigenvalues --   -0.07864  -0.07359  -0.06889  -0.05577  -0.05441
 Alpha virt. eigenvalues --   -0.04221  -0.03391  -0.03047  -0.02356  -0.01855

 Mulliken charges:
               1
     1  N   -0.753799
     2  H    0.348566
     3  H    0.356623
     4  H    0.450617
     5  C   -0.065758
     6  H    0.195671
     7  C    0.622934
     8  C   -0.304037
     9  H    0.169564
    10  H    0.207397
    11  O   -0.562820
    12  C   -0.397801
    13  H    0.205705
    14  H    0.169875
    15  C    0.587015
    16  O   -0.586941
    17  O   -0.429090
    18  N   -0.561104
    19  H    0.407647
    20  C   -0.123229
    21  H    0.199421
    22  C    0.651906
    23  C   -0.334577
    24  H    0.194824
    25  H    0.183022
    26  O   -0.541129
    27  C    0.036090
    28  C    0.013452
    29  H    0.183026
    30  C   -0.059672
    31  C    0.344608
    32  C   -0.216879
    33  H    0.136437
    34  N   -0.671706
    35  H    0.355660
    36  C   -0.145473
    37  H    0.168255
    38  C   -0.151800
    39  H    0.162598
    40  C   -0.125516
    41  H    0.161243
    42  N   -0.607865
    43  H    0.365200
    44  C   -0.065897
    45  H    0.185895
    46  C    0.634728
    47  C    0.109168
    48  H    0.176129
    49  O   -0.519191
    50  C   -0.475751
    51  H    0.184020
    52  H    0.162475
    53  H    0.165693
    54  O   -0.660128
    55  H    0.414947
    56  N   -0.630898
    57  H    0.377631
    58  C   -0.020895
    59  H    0.199873
    60  C    0.579879
    61  C   -0.279778
    62  H    0.135306
    63  H    0.173457
    64  O   -0.467077
    65  C   -0.264806
    66  H    0.157082
    67  H    0.148670
    68  C   -0.136222
    69  H    0.137858
    70  H    0.166287
    71  N   -0.593886
    72  H    0.313189
    73  N   -0.737986
    74  H    0.340032
    75  H    0.317661
    76  N   -0.620690
    77  H    0.267054
    78  C    0.545349
    79  O   -0.551323
    80  H    0.424657
    81  H    0.469331
 Sum of Mulliken charges =   1.00000

 Dipole moment (field-independent basis, Debye):
    X=             -9.5256    Y=              4.3904    Z=             -1.7592  Tot=             10.6352
 Quadrupole moment (field-independent basis, Debye-Ang):
   XX=           -144.7085   YY=           -197.4234   ZZ=           -315.7867
   XY=            -12.8384   XZ=             17.5190   YZ=             11.1856

 Normal termination of Gaussian 16 at Thu May 26 18:13:16 2022.
