 Gaussian 16, Revision C.01,
 Gaussian 16:  ES64L-G16RevC.01  3-Jul-2019

 -------------------------------------------------------------------
 # B3LYP/6-31G* guess=read geom=check nosymm integral(ultrafinegrid)
 -------------------------------------------------------------------

 ------------------------------------------------------
 Candidate Structure: Conf:727 Charge calc in gas phase
 ------------------------------------------------------
 Structure from the checkpoint file:  "conf-727.chk"
 Charge =  1 Multiplicity = 1

                          Input orientation:
 ---------------------------------------------------------------------
 Center     Atomic      Atomic             Coordinates (Angstroms)
 Number     Number       Type             X           Y           Z
 ---------------------------------------------------------------------
      1          7           0       -3.821545    3.411593    3.979468
      2          1           0       -4.630979    4.006313    3.787136
      3          1           0       -4.166998    2.461501    4.234843
      4          1           0       -3.257412    3.844656    4.729565
      5          6           0       -2.931872    3.193815    2.774782
      6          1           0       -3.127744    4.001955    2.065003
      7          6           0       -3.358620    1.824495    2.227370
      8          6           0       -1.456802    3.187569    3.234921
      9          1           0       -1.240580    2.302896    3.847722
     10          1           0       -0.840044    3.084003    2.334137
     11          8           0       -4.122133    1.110062    2.890079
     12          6           0       -0.983050    4.395744    4.030476
     13          1           0       -1.570646    4.544403    4.957954
     14          1           0       -1.015236    5.328090    3.456982
     15          6           0        0.523996    4.087339    4.538707
     16          8           0        1.279166    5.067809    4.498242
     17          8           0        0.678166    2.897032    4.892428
     18          7           0       -2.801921    1.479350    1.050379
     19          1           0       -2.031407    2.052963    0.718676
     20          6           0       -2.719299    0.097953    0.584380
     21          1           0       -3.279139   -0.519524    1.291888
     22          6           0       -1.224949   -0.278760    0.613377
     23          6           0       -3.275482   -0.078661   -0.844345
     24          1           0       -3.008371   -1.088003   -1.191100
     25          1           0       -2.722105    0.597572   -1.509661
     26          8           0       -0.359287    0.597302    0.566807
     27          6           0       -4.753595    0.139497   -0.989190
     28          6           0       -5.716541    0.239873   -0.014137
     29          1           0       -5.621000    0.228913    1.063354
     30          6           0       -5.438480    0.237177   -2.255117
     31          6           0       -6.821871    0.397850   -1.974269
     32          6           0       -5.014093    0.199838   -3.594992
     33          1           0       -3.961416    0.071506   -3.836619
     34          7           0       -6.958066    0.399314   -0.600966
     35          1           0       -7.829167    0.478376   -0.099771
     36          6           0       -7.329741    0.485254   -4.301300
     37          1           0       -8.047149    0.579704   -5.111452
     38          6           0       -7.779110    0.523334   -2.986605
     39          1           0       -8.834260    0.644830   -2.756744
     40          6           0       -5.961270    0.325437   -4.603155
     41          1           0       -5.648496    0.299391   -5.643435
     42          7           0       -0.932765   -1.604241    0.688815
     43          1           0       -1.671561   -2.271129    0.493430
     44          6           0        0.453310   -2.105453    0.661046
     45          1           0        1.039857   -1.425446    1.286125
     46          6           0        0.972800   -2.056545   -0.787784
     47          6           0        0.502234   -3.508615    1.296668
     48          1           0       -0.158398   -4.172383    0.713081
     49          8           0        0.956782   -3.018059   -1.550223
     50          6           0        1.907998   -4.096450    1.311327
     51          1           0        2.259190   -4.297583    0.296884
     52          1           0        1.890857   -5.035121    1.871868
     53          1           0        2.603009   -3.416597    1.816489
     54          8           0        0.080832   -3.437700    2.651098
     55          1           0       -0.741969   -2.925424    2.699123
     56          7           0        1.437122   -0.825998   -1.163644
     57          1           0        1.153180   -0.040922   -0.578451
     58          6           0        1.747951   -0.574303   -2.560402
     59          1           0        1.909769    0.508504   -2.644894
     60          6           0        0.504099   -0.869432   -3.422258
     61          6           0        3.033528   -1.305391   -3.005438
     62          1           0        2.784255   -2.350323   -3.210864
     63          1           0        3.716640   -1.303406   -2.149386
     64          8           0       -0.612504   -0.679355   -3.069598
     65          6           0        3.725318   -0.657763   -4.213598
     66          1           0        2.991565   -0.476429   -5.006442
     67          1           0        4.139098    0.322150   -3.942830
     68          6           0        4.846672   -1.559944   -4.743699
     69          1           0        5.656744   -1.653260   -4.015543
     70          1           0        4.478485   -2.574209   -4.932285
     71          7           0        5.458741   -1.072373   -5.995274
     72          1           0        6.246989   -0.441501   -5.920017
     73          7           0        3.779637   -1.871664   -7.392560
     74          1           0        3.516020   -2.269370   -8.283128
     75          1           0        3.101399   -1.913342   -6.643426
     76          7           0        5.720532   -0.993534   -8.297991
     77          1           0        6.711202   -0.809120   -8.222626
     78          1           0        5.309623   -0.944380   -9.219681
     79          6           0        4.983333   -1.307517   -7.218868
     80          8           0        0.791269   -1.310763   -4.676813
     81          1           0       -0.078667   -1.440584   -5.103793
 ---------------------------------------------------------------------

 SCF Done:  E(RB3LYP) =  -2053.84337622     A.U. after    1 cycles

 Alpha  occ. eigenvalues --  -19.30636 -19.24481 -19.23057 -19.22388 -19.21080
 Alpha  occ. eigenvalues --  -19.21043 -19.04762 -19.04631 -14.55293 -14.55212
 Alpha  occ. eigenvalues --  -14.55160 -14.55017 -14.46756 -14.46075 -14.44768
 Alpha  occ. eigenvalues --  -14.43914 -10.51624 -10.42497 -10.39669 -10.39125
 Alpha  occ. eigenvalues --  -10.38167 -10.37796 -10.34924 -10.34868 -10.33094
 Alpha  occ. eigenvalues --  -10.32273 -10.31861 -10.31504 -10.30265 -10.27987
 Alpha  occ. eigenvalues --  -10.27750 -10.27658 -10.24855 -10.24791 -10.24526
 Alpha  occ. eigenvalues --  -10.24348 -10.24176 -10.24018 -10.23964 -10.23794
 Alpha  occ. eigenvalues --  -10.23730 -10.20306  -1.21780  -1.19970  -1.15149
 Alpha  occ. eigenvalues --   -1.14198  -1.13129  -1.12485  -1.09277  -1.09142
 Alpha  occ. eigenvalues --   -1.08922  -1.08101  -1.03795  -1.02998  -1.02430
 Alpha  occ. eigenvalues --   -1.01789  -0.98122  -0.93458  -0.90123  -0.89765
 Alpha  occ. eigenvalues --   -0.89221  -0.88134  -0.86394  -0.85557  -0.83196
 Alpha  occ. eigenvalues --   -0.82895  -0.80198  -0.79241  -0.78537  -0.78169
 Alpha  occ. eigenvalues --   -0.77484  -0.77033  -0.74626  -0.74186  -0.73368
 Alpha  occ. eigenvalues --   -0.72375  -0.69686  -0.69172  -0.68794  -0.68411
 Alpha  occ. eigenvalues --   -0.68343  -0.68136  -0.68017  -0.66762  -0.66155
 Alpha  occ. eigenvalues --   -0.65781  -0.64856  -0.64384  -0.63244  -0.62591
 Alpha  occ. eigenvalues --   -0.61929  -0.61175  -0.60784  -0.59732  -0.59205
 Alpha  occ. eigenvalues --   -0.58782  -0.58397  -0.58240  -0.58053  -0.56560
 Alpha  occ. eigenvalues --   -0.56316  -0.55606  -0.55188  -0.54306  -0.53442
 Alpha  occ. eigenvalues --   -0.53258  -0.52919  -0.52577  -0.51871  -0.51807
 Alpha  occ. eigenvalues --   -0.51278  -0.50665  -0.50425  -0.49189  -0.48985
 Alpha  occ. eigenvalues --   -0.48794  -0.48667  -0.48383  -0.48027  -0.47254
 Alpha  occ. eigenvalues --   -0.47173  -0.46945  -0.46682  -0.46482  -0.46274
 Alpha  occ. eigenvalues --   -0.46014  -0.45934  -0.45340  -0.44669  -0.44469
 Alpha  occ. eigenvalues --   -0.43516  -0.43398  -0.43020  -0.42556  -0.41995
 Alpha  occ. eigenvalues --   -0.41153  -0.40030  -0.40000  -0.39427  -0.38987
 Alpha  occ. eigenvalues --   -0.38350  -0.37938  -0.37547  -0.37202  -0.36587
 Alpha  occ. eigenvalues --   -0.35706  -0.35038  -0.34823  -0.34580  -0.33314
 Alpha  occ. eigenvalues --   -0.33066  -0.32714  -0.27974  -0.26236  -0.20507
 Alpha  occ. eigenvalues --   -0.19545  -0.18902
 Alpha virt. eigenvalues --   -0.15546  -0.11250  -0.09372  -0.08625  -0.08397
 Alpha virt. eigenvalues --   -0.07658  -0.06940  -0.06831  -0.06794  -0.06097
 Alpha virt. eigenvalues --   -0.05850  -0.03066  -0.02898  -0.02024  -0.01961

 Mulliken charges:
               1
     1  N   -0.736233
     2  H    0.403538
     3  H    0.418258
     4  H    0.397783
     5  C   -0.127728
     6  H    0.198864
     7  C    0.649316
     8  C   -0.297171
     9  H    0.198854
    10  H    0.175701
    11  O   -0.548209
    12  C   -0.396021
    13  H    0.109096
    14  H    0.134891
    15  C    0.577315
    16  O   -0.571039
    17  O   -0.595504
    18  N   -0.567759
    19  H    0.362775
    20  C   -0.110064
    21  H    0.193089
    22  C    0.657568
    23  C   -0.343781
    24  H    0.160335
    25  H    0.170364
    26  O   -0.536545
    27  C    0.070814
    28  C   -0.018442
    29  H    0.174943
    30  C    0.074573
    31  C    0.318110
    32  C   -0.213057
    33  H    0.120194
    34  N   -0.702073
    35  H    0.332925
    36  C   -0.149913
    37  H    0.134091
    38  C   -0.160829
    39  H    0.132969
    40  C   -0.138026
    41  H    0.120232
    42  N   -0.631830
    43  H    0.348702
    44  C   -0.093429
    45  H    0.207095
    46  C    0.635004
    47  C    0.138758
    48  H    0.130735
    49  O   -0.535205
    50  C   -0.468702
    51  H    0.162739
    52  H    0.179516
    53  H    0.161919
    54  O   -0.614012
    55  H    0.395370
    56  N   -0.606970
    57  H    0.386561
    58  C   -0.061971
    59  H    0.186373
    60  C    0.621562
    61  C   -0.272276
    62  H    0.187950
    63  H    0.177190
    64  O   -0.440831
    65  C   -0.294775
    66  H    0.159701
    67  H    0.167609
    68  C   -0.185027
    69  H    0.207535
    70  H    0.192573
    71  N   -0.588294
    72  H    0.372928
    73  N   -0.757563
    74  H    0.388155
    75  H    0.402848
    76  N   -0.760636
    77  H    0.390216
    78  H    0.389255
    79  C    0.828400
    80  O   -0.600780
    81  H    0.419400
 Sum of Mulliken charges =   1.00000

 Dipole moment (field-independent basis, Debye):
    X=              5.0675    Y=             -7.6591    Z=            -37.1836  Tot=             38.3009
 Quadrupole moment (field-independent basis, Debye-Ang):
   XX=            -52.0983   YY=           -258.4996   ZZ=            -30.8262
   XY=            -79.2013   XZ=           -223.9305   YZ=             18.7119

 Normal termination of Gaussian 16 at Thu May 26 18:13:16 2022.
