 Gaussian 16, Revision C.01,
 Gaussian 16:  ES64L-G16RevC.01  3-Jul-2019

 -------------------------------------------------------------------
 # B3LYP/6-31G* guess=read geom=check nosymm integral(ultrafinegrid)
 -------------------------------------------------------------------

 -----------------------------------------------------
 Candidate Structure: Conf:34 Charge calc in gas phase
 -----------------------------------------------------
 Structure from the checkpoint file:  "conf-34.chk"
 Charge =  1 Multiplicity = 1

                          Input orientation:
 ---------------------------------------------------------------------
 Center     Atomic      Atomic             Coordinates (Angstroms)
 Number     Number       Type             X           Y           Z
 ---------------------------------------------------------------------
      1          7           0       -5.320785    2.668736    1.384198
      2          1           0       -5.693761    1.777209    0.948213
      3          1           0       -5.258186    2.548916    2.400420
      4          1           0       -5.930525    3.467066    1.191672
      5          6           0       -3.941637    2.786064    0.750159
      6          1           0       -4.063953    3.468043   -0.098533
      7          6           0       -3.713052    1.361088    0.170594
      8          6           0       -2.883454    3.320317    1.702809
      9          1           0       -2.810224    2.667867    2.584400
     10          1           0       -1.908202    3.264333    1.204403
     11          8           0       -4.702157    0.616132    0.062166
     12          6           0       -3.022844    4.795436    2.099894
     13          1           0       -3.599559    4.950186    3.017421
     14          1           0       -3.530928    5.364526    1.306923
     15          6           0       -1.626701    5.462127    2.274726
     16          8           0       -0.660585    4.887337    1.697048
     17          8           0       -1.605711    6.524286    2.940284
     18          7           0       -2.471117    1.098185   -0.208108
     19          1           0       -1.693908    1.685159    0.100881
     20          6           0       -1.994007   -0.128885   -0.844909
     21          1           0       -2.353207   -0.992854   -0.273287
     22          6           0       -0.456562   -0.019877   -0.686562
     23          6           0       -2.489414   -0.258543   -2.315762
     24          1           0       -1.913714    0.424351   -2.951300
     25          1           0       -3.528971    0.090745   -2.326816
     26          8           0        0.020937    0.853609    0.049273
     27          6           0       -2.430232   -1.661512   -2.846858
     28          6           0       -1.638388   -2.135338   -3.869959
     29          1           0       -0.902661   -1.620081   -4.471053
     30          6           0       -3.228375   -2.778779   -2.394754
     31          6           0       -2.856394   -3.901351   -3.182885
     32          6           0       -4.228751   -2.933171   -1.416854
     33          1           0       -4.554391   -2.085852   -0.818111
     34          7           0       -1.888102   -3.474290   -4.071234
     35          1           0       -1.418490   -4.051127   -4.752630
     36          6           0       -4.414459   -5.286381   -2.029564
     37          1           0       -4.887695   -6.250892   -1.869963
     38          6           0       -3.438072   -5.161637   -3.010505
     39          1           0       -3.142561   -6.010037   -3.621593
     40          6           0       -4.808542   -4.183569   -1.243828
     41          1           0       -5.583844   -4.317437   -0.494724
     42          7           0        0.316722   -0.864263   -1.389650
     43          1           0       -0.094510   -1.449920   -2.113527
     44          6           0        1.757130   -0.637048   -1.455094
     45          1           0        2.182129   -0.725807   -0.449363
     46          6           0        2.047671    0.755086   -2.047007
     47          6           0        2.398157   -1.695072   -2.396835
     48          1           0        3.445180   -1.389460   -2.547336
     49          8           0        1.679960    1.037422   -3.190428
     50          6           0        2.364833   -3.105341   -1.821200
     51          1           0        2.942317   -3.161007   -0.892527
     52          1           0        2.802721   -3.799767   -2.543841
     53          1           0        1.339475   -3.429040   -1.614952
     54          8           0        1.702179   -1.708660   -3.636959
     55          1           0        1.695786   -0.780738   -3.950677
     56          7           0        2.763401    1.608817   -1.276430
     57          1           0        3.067580    1.296283   -0.364655
     58          6           0        3.346052    2.818725   -1.818770
     59          1           0        2.618019    3.260368   -2.507144
     60          6           0        4.587679    2.463508   -2.655271
     61          6           0        3.697137    3.831041   -0.711888
     62          1           0        4.251803    4.649489   -1.183218
     63          1           0        4.392519    3.354297   -0.004588
     64          8           0        5.094777    1.369092   -2.719840
     65          6           0        2.485056    4.395914    0.046405
     66          1           0        1.787255    4.865129   -0.657983
     67          1           0        1.929452    3.597430    0.551708
     68          6           0        2.950080    5.441356    1.068165
     69          1           0        3.671426    4.974126    1.758228
     70          1           0        3.477991    6.247080    0.539361
     71          7           0        1.831928    6.007598    1.817445
     72          1           0        0.882375    5.562461    1.757045
     73          7           0        3.144654    7.709273    2.726196
     74          1           0        3.239905    8.404248    3.453329
     75          1           0        3.983827    7.177954    2.545554
     76          7           0        0.870776    7.574827    3.216399
     77          1           0       -0.100468    7.176276    3.072460
     78          1           0        0.961693    8.400980    3.789194
     79          6           0        1.939355    7.082025    2.596684
     80          8           0        5.048676    3.547123   -3.315664
     81          1           0        5.824782    3.257178   -3.832679
 ---------------------------------------------------------------------

 SCF Done:  E(RB3LYP) =  -2053.96557431     A.U. after    1 cycles

 Alpha  occ. eigenvalues --  -19.27681 -19.25307 -19.22041 -19.21560 -19.21019
 Alpha  occ. eigenvalues --  -19.20520 -19.17431 -19.16789 -14.58662 -14.47565
 Alpha  occ. eigenvalues --  -14.47281 -14.45049 -14.44898 -14.44883 -14.44505
 Alpha  occ. eigenvalues --  -14.44157 -10.42154 -10.41883 -10.39987 -10.38794
 Alpha  occ. eigenvalues --  -10.38389 -10.37473 -10.35322 -10.33514 -10.32741
 Alpha  occ. eigenvalues --  -10.32576 -10.31770 -10.31750 -10.30386 -10.29003
 Alpha  occ. eigenvalues --  -10.28807 -10.28304 -10.28195 -10.28145 -10.27914
 Alpha  occ. eigenvalues --  -10.25522 -10.24892 -10.24823 -10.24641 -10.24582
 Alpha  occ. eigenvalues --  -10.24364 -10.24027  -1.18562  -1.17472  -1.13836
 Alpha  occ. eigenvalues --   -1.12461  -1.12228  -1.11000  -1.10168  -1.09667
 Alpha  occ. eigenvalues --   -1.08661  -1.04612  -1.04446  -1.01834  -1.01684
 Alpha  occ. eigenvalues --   -1.01245  -1.00193  -0.98635  -0.92126  -0.90032
 Alpha  occ. eigenvalues --   -0.89727  -0.88605  -0.85797  -0.84567  -0.83780
 Alpha  occ. eigenvalues --   -0.82286  -0.79642  -0.79086  -0.78472  -0.77051
 Alpha  occ. eigenvalues --   -0.75581  -0.74557  -0.73000  -0.72484  -0.71423
 Alpha  occ. eigenvalues --   -0.70636  -0.70193  -0.69005  -0.68407  -0.67614
 Alpha  occ. eigenvalues --   -0.67409  -0.67178  -0.66433  -0.65592  -0.65125
 Alpha  occ. eigenvalues --   -0.64461  -0.63161  -0.61911  -0.60927  -0.60046
 Alpha  occ. eigenvalues --   -0.59930  -0.59465  -0.59186  -0.58779  -0.58390
 Alpha  occ. eigenvalues --   -0.58231  -0.57137  -0.56760  -0.56674  -0.55559
 Alpha  occ. eigenvalues --   -0.55416  -0.55079  -0.54732  -0.54518  -0.53819
 Alpha  occ. eigenvalues --   -0.53382  -0.53095  -0.52642  -0.52360  -0.52089
 Alpha  occ. eigenvalues --   -0.51403  -0.51005  -0.50201  -0.50009  -0.49616
 Alpha  occ. eigenvalues --   -0.49430  -0.49051  -0.48822  -0.48751  -0.48451
 Alpha  occ. eigenvalues --   -0.48213  -0.47855  -0.47069  -0.46925  -0.46561
 Alpha  occ. eigenvalues --   -0.46408  -0.45903  -0.45437  -0.45174  -0.45102
 Alpha  occ. eigenvalues --   -0.44727  -0.44295  -0.44113  -0.43474  -0.43364
 Alpha  occ. eigenvalues --   -0.43114  -0.41449  -0.40754  -0.39960  -0.39764
 Alpha  occ. eigenvalues --   -0.39462  -0.39268  -0.37991  -0.37906  -0.36357
 Alpha  occ. eigenvalues --   -0.36198  -0.35536  -0.34718  -0.34333  -0.34045
 Alpha  occ. eigenvalues --   -0.33616  -0.32956  -0.32529  -0.32471  -0.31310
 Alpha  occ. eigenvalues --   -0.28488  -0.26916
 Alpha virt. eigenvalues --   -0.11394  -0.09034  -0.07761  -0.07338  -0.07099
 Alpha virt. eigenvalues --   -0.06429  -0.06229  -0.05205  -0.03571  -0.03454
 Alpha virt. eigenvalues --   -0.02157  -0.01551  -0.01379  -0.00778  -0.00501

 Mulliken charges:
               1
     1  N   -0.748102
     2  H    0.428774
     3  H    0.411178
     4  H    0.414444
     5  C   -0.124328
     6  H    0.223705
     7  C    0.655752
     8  C   -0.322103
     9  H    0.162777
    10  H    0.236112
    11  O   -0.550731
    12  C   -0.379534
    13  H    0.161939
    14  H    0.155223
    15  C    0.621240
    16  O   -0.595132
    17  O   -0.580581
    18  N   -0.637667
    19  H    0.399770
    20  C   -0.045188
    21  H    0.211186
    22  C    0.619483
    23  C   -0.368241
    24  H    0.170106
    25  H    0.182052
    26  O   -0.554842
    27  C    0.017068
    28  C    0.001456
    29  H    0.176785
    30  C    0.087439
    31  C    0.311615
    32  C   -0.226503
    33  H    0.141045
    34  N   -0.684002
    35  H    0.342069
    36  C   -0.148118
    37  H    0.139190
    38  C   -0.159020
    39  H    0.138014
    40  C   -0.139986
    41  H    0.129874
    42  N   -0.618880
    43  H    0.379484
    44  C   -0.060312
    45  H    0.158065
    46  C    0.660902
    47  C    0.095724
    48  H    0.161035
    49  O   -0.558468
    50  C   -0.453913
    51  H    0.151952
    52  H    0.178409
    53  H    0.158824
    54  O   -0.650698
    55  H    0.423346
    56  N   -0.580497
    57  H    0.342111
    58  C   -0.039658
    59  H    0.206640
    60  C    0.594238
    61  C   -0.310614
    62  H    0.182134
    63  H    0.148006
    64  O   -0.453931
    65  C   -0.295224
    66  H    0.170834
    67  H    0.187784
    68  C   -0.135896
    69  H    0.153873
    70  H    0.166933
    71  N   -0.651227
    72  H    0.431938
    73  N   -0.760880
    74  H    0.358257
    75  H    0.364661
    76  N   -0.804882
    77  H    0.438800
    78  H    0.344877
    79  C    0.781687
    80  O   -0.564921
    81  H    0.425268
 Sum of Mulliken charges =   1.00000

 Dipole moment (field-independent basis, Debye):
    X=             -3.5997    Y=             15.9199    Z=              4.6273  Tot=             16.9651
 Quadrupole moment (field-independent basis, Debye-Ang):
   XX=           -125.2512   YY=           -118.6903   ZZ=           -207.9851
   XY=             22.6931   XZ=             -6.4687   YZ=             50.4193

 Normal termination of Gaussian 16 at Thu May 26 18:13:21 2022.
