 Gaussian 16, Revision C.01,
 Gaussian 16:  ES64L-G16RevC.01  3-Jul-2019

 -------------------------------------------------------------------
 # B3LYP/6-31G* guess=read geom=check nosymm integral(ultrafinegrid)
 -------------------------------------------------------------------

 ------------------------------------------------------
 Candidate Structure: Conf:950 Charge calc in gas phase
 ------------------------------------------------------
 Structure from the checkpoint file:  "conf-950.chk"
 Charge =  1 Multiplicity = 1

                          Input orientation:
 ---------------------------------------------------------------------
 Center     Atomic      Atomic             Coordinates (Angstroms)
 Number     Number       Type             X           Y           Z
 ---------------------------------------------------------------------
      1          7           0       -5.621283   -0.875825    2.399334
      2          1           0       -5.702772   -0.691282    1.362865
      3          1           0       -5.243029   -1.823103    2.523906
      4          1           0       -6.509479   -0.806168    2.900360
      5          6           0       -4.586888    0.150155    2.832052
      6          1           0       -5.152059    1.065416    3.041554
      7          6           0       -3.833419    0.409318    1.490896
      8          6           0       -3.828993   -0.316541    4.074574
      9          1           0       -3.193877    0.517683    4.391616
     10          1           0       -4.557624   -0.488038    4.877838
     11          8           0       -4.463082    0.126211    0.448920
     12          6           0       -2.909510   -1.527061    3.856775
     13          1           0       -3.222794   -2.167022    3.014959
     14          1           0       -2.920645   -2.179261    4.736022
     15          6           0       -1.423727   -1.136183    3.554227
     16          8           0       -0.680246   -2.100131    3.285907
     17          8           0       -1.147820    0.100055    3.589620
     18          7           0       -2.636327    0.979180    1.543587
     19          1           0       -2.092359    0.916742    2.435442
     20          6           0       -1.888402    1.249226    0.300249
     21          1           0       -1.999189    0.373343   -0.349716
     22          6           0       -0.406890    1.475341    0.675003
     23          6           0       -2.459727    2.495705   -0.411062
     24          1           0       -2.154067    3.366364    0.174724
     25          1           0       -3.551760    2.430736   -0.366308
     26          8           0       -0.030265    2.576245    1.069356
     27          6           0       -2.031511    2.651085   -1.846848
     28          6           0       -2.317181    1.788196   -2.877666
     29          1           0       -2.836399    0.839291   -2.855285
     30          6           0       -1.367325    3.782213   -2.447584
     31          6           0       -1.302880    3.542936   -3.853095
     32          6           0       -0.849520    4.988595   -1.943515
     33          1           0       -0.869216    5.190875   -0.876500
     34          7           0       -1.868747    2.308550   -4.078440
     35          1           0       -2.008459    1.880567   -4.980833
     36          6           0       -0.313399    5.685208   -4.221647
     37          1           0        0.026701    6.467829   -4.897794
     38          6           0       -0.782467    4.483087   -4.750073
     39          1           0       -0.793239    4.303750   -5.822822
     40          6           0       -0.333122    5.929087   -2.829718
     41          1           0        0.029997    6.880010   -2.448699
     42          7           0        0.391365    0.386560    0.568659
     43          1           0        0.052124   -0.459085    0.130759
     44          6           0        1.818366    0.444026    0.796833
     45          1           0        2.026152    1.457149    1.153659
     46          6           0        2.539611    0.243663   -0.537399
     47          6           0        2.278801   -0.603513    1.881725
     48          1           0        3.345933   -0.801887    1.696860
     49          8           0        1.989224   -0.183727   -1.549076
     50          6           0        2.120923   -0.032550    3.292720
     51          1           0        2.739858    0.864412    3.423797
     52          1           0        2.439862   -0.780293    4.026208
     53          1           0        1.077099    0.225021    3.498125
     54          8           0        1.606529   -1.819234    1.685259
     55          1           0        0.833018   -1.867850    2.307325
     56          7           0        3.854571    0.637602   -0.532230
     57          1           0        4.285414    0.934949    0.332546
     58          6           0        4.646870    0.647497   -1.743296
     59          1           0        4.182690   -0.077406   -2.420213
     60          6           0        6.089017    0.198438   -1.541195
     61          6           0        4.649115    2.030935   -2.449536
     62          1           0        5.113886    1.894376   -3.433745
     63          1           0        5.291338    2.731524   -1.898630
     64          8           0        6.872324    0.069929   -2.455370
     65          6           0        3.229869    2.605303   -2.566677
     66          1           0        2.524327    1.819806   -2.863246
     67          1           0        2.883875    2.942568   -1.584786
     68          6           0        3.092325    3.792284   -3.514049
     69          1           0        2.101285    4.242233   -3.390823
     70          1           0        3.856335    4.554180   -3.318033
     71          7           0        3.259196    3.347147   -4.917089
     72          1           0        3.204310    2.350876   -5.093122
     73          7           0        3.067522    5.460595   -5.833248
     74          1           0        3.333319    6.133058   -6.538274
     75          1           0        2.515712    5.782948   -5.047861
     76          7           0        3.738434    3.680471   -7.163666
     77          1           0        4.217729    2.794485   -7.240556
     78          1           0        3.605818    4.215340   -8.010025
     79          6           0        3.349316    4.157212   -5.966603
     80          8           0        6.410897    0.003840   -0.245452
     81          1           0        7.347949   -0.272265   -0.223139
 ---------------------------------------------------------------------

 SCF Done:  E(RB3LYP) =  -2053.90582398     A.U. after    1 cycles

 Alpha  occ. eigenvalues --  -19.27872 -19.22341 -19.21723 -19.18328 -19.16985
 Alpha  occ. eigenvalues --  -19.15113 -19.13365 -19.12622 -14.55999 -14.53240
 Alpha  occ. eigenvalues --  -14.53075 -14.52794 -14.45720 -14.43971 -14.43256
 Alpha  occ. eigenvalues --  -14.41360 -10.49329 -10.40151 -10.38883 -10.36335
 Alpha  occ. eigenvalues --  -10.35322 -10.35268 -10.34446 -10.32210 -10.31412
 Alpha  occ. eigenvalues --  -10.30409 -10.29859 -10.29301 -10.29197 -10.28948
 Alpha  occ. eigenvalues --  -10.27812 -10.27735 -10.27499 -10.27485 -10.27150
 Alpha  occ. eigenvalues --  -10.26220 -10.26160 -10.26121 -10.25552 -10.25513
 Alpha  occ. eigenvalues --  -10.24904 -10.19453  -1.18602  -1.17817  -1.14687
 Alpha  occ. eigenvalues --   -1.10357  -1.09738  -1.09533  -1.08793  -1.06836
 Alpha  occ. eigenvalues --   -1.06275  -1.06065  -1.05526  -1.03303  -1.00981
 Alpha  occ. eigenvalues --   -1.00041  -0.97689  -0.97462  -0.91720  -0.90928
 Alpha  occ. eigenvalues --   -0.89167  -0.87487  -0.85961  -0.83534  -0.81490
 Alpha  occ. eigenvalues --   -0.81250  -0.80389  -0.80250  -0.78857  -0.78228
 Alpha  occ. eigenvalues --   -0.75262  -0.74976  -0.73164  -0.72815  -0.72140
 Alpha  occ. eigenvalues --   -0.70421  -0.70055  -0.70008  -0.68597  -0.67801
 Alpha  occ. eigenvalues --   -0.67184  -0.66804  -0.66509  -0.66081  -0.65169
 Alpha  occ. eigenvalues --   -0.64864  -0.63607  -0.62830  -0.62025  -0.61556
 Alpha  occ. eigenvalues --   -0.61064  -0.60146  -0.59471  -0.58452  -0.56884
 Alpha  occ. eigenvalues --   -0.56734  -0.55976  -0.55659  -0.55478  -0.55266
 Alpha  occ. eigenvalues --   -0.55043  -0.54668  -0.53938  -0.53464  -0.52797
 Alpha  occ. eigenvalues --   -0.52678  -0.52105  -0.51829  -0.50960  -0.50546
 Alpha  occ. eigenvalues --   -0.50195  -0.50070  -0.49419  -0.49327  -0.48715
 Alpha  occ. eigenvalues --   -0.48306  -0.48133  -0.47841  -0.47215  -0.46940
 Alpha  occ. eigenvalues --   -0.46357  -0.46101  -0.45961  -0.45546  -0.45273
 Alpha  occ. eigenvalues --   -0.44959  -0.44653  -0.44480  -0.43991  -0.43867
 Alpha  occ. eigenvalues --   -0.43384  -0.43061  -0.42675  -0.42034  -0.41839
 Alpha  occ. eigenvalues --   -0.41484  -0.40992  -0.40824  -0.39863  -0.39747
 Alpha  occ. eigenvalues --   -0.39532  -0.38896  -0.36752  -0.36117  -0.35432
 Alpha  occ. eigenvalues --   -0.34411  -0.34363  -0.32535  -0.32118  -0.31380
 Alpha  occ. eigenvalues --   -0.30532  -0.30176  -0.28796  -0.28384  -0.27843
 Alpha  occ. eigenvalues --   -0.27603  -0.26776
 Alpha virt. eigenvalues --   -0.13518  -0.09604  -0.09097  -0.08904  -0.07106
 Alpha virt. eigenvalues --   -0.06225  -0.05835  -0.04970  -0.04772  -0.04230
 Alpha virt. eigenvalues --   -0.03766  -0.03476  -0.02591  -0.01187  -0.00802

 Mulliken charges:
               1
     1  N   -0.744061
     2  H    0.423470
     3  H    0.406017
     4  H    0.404350
     5  C   -0.129361
     6  H    0.218001
     7  C    0.647297
     8  C   -0.291956
     9  H    0.219709
    10  H    0.147384
    11  O   -0.578005
    12  C   -0.389884
    13  H    0.125719
    14  H    0.185700
    15  C    0.608457
    16  O   -0.561200
    17  O   -0.595518
    18  N   -0.632445
    19  H    0.420360
    20  C   -0.028765
    21  H    0.160485
    22  C    0.609652
    23  C   -0.353573
    24  H    0.184544
    25  H    0.167766
    26  O   -0.530045
    27  C    0.073697
    28  C    0.007089
    29  H    0.169800
    30  C    0.062600
    31  C    0.317776
    32  C   -0.203421
    33  H    0.162536
    34  N   -0.689965
    35  H    0.332565
    36  C   -0.191370
    37  H    0.112297
    38  C   -0.177808
    39  H    0.120268
    40  C   -0.156191
    41  H    0.133349
    42  N   -0.569000
    43  H    0.347638
    44  C   -0.094186
    45  H    0.181104
    46  C    0.625151
    47  C    0.162154
    48  H    0.114705
    49  O   -0.536979
    50  C   -0.509515
    51  H    0.116115
    52  H    0.157640
    53  H    0.225332
    54  O   -0.680450
    55  H    0.446437
    56  N   -0.610852
    57  H    0.347603
    58  C   -0.050351
    59  H    0.210521
    60  C    0.595444
    61  C   -0.272706
    62  H    0.150398
    63  H    0.156463
    64  O   -0.460366
    65  C   -0.334127
    66  H    0.195064
    67  H    0.195196
    68  C   -0.165015
    69  H    0.214865
    70  H    0.182219
    71  N   -0.597153
    72  H    0.369104
    73  N   -0.755082
    74  H    0.382397
    75  H    0.395541
    76  N   -0.762913
    77  H    0.387582
    78  H    0.383329
    79  C    0.826578
    80  O   -0.564464
    81  H    0.427257
 Sum of Mulliken charges =   1.00000

 Dipole moment (field-independent basis, Debye):
    X=             -1.0443    Y=             16.1248    Z=            -20.8934  Tot=             26.4128
 Quadrupole moment (field-independent basis, Debye-Ang):
   XX=            -89.4682   YY=           -175.0236   ZZ=            -70.3614
   XY=             76.4769   XZ=           -112.0316   YZ=           -102.9119

 Normal termination of Gaussian 16 at Thu May 26 18:13:20 2022.
