 Gaussian 16, Revision C.01,
 Gaussian 16:  ES64L-G16RevC.01  3-Jul-2019

 -------------------------------------------------------------------
 # B3LYP/6-31G* guess=read geom=check nosymm integral(ultrafinegrid)
 -------------------------------------------------------------------

 ------------------------------------------------------
 Candidate Structure: Conf:807 Charge calc in gas phase
 ------------------------------------------------------
 Structure from the checkpoint file:  "conf-807.chk"
 Charge =  1 Multiplicity = 1

                          Input orientation:
 ---------------------------------------------------------------------
 Center     Atomic      Atomic             Coordinates (Angstroms)
 Number     Number       Type             X           Y           Z
 ---------------------------------------------------------------------
      1          7           0       -5.423114    1.177178    2.734844
      2          1           0       -6.023266    1.943993    2.430949
      3          1           0       -5.496222   -0.103743    1.461160
      4          1           0       -5.472690    1.125538    3.749127
      5          6           0       -4.040786    1.393194    2.269494
      6          1           0       -3.833094    2.455731    2.111765
      7          6           0       -3.944498    0.707733    0.894398
      8          6           0       -3.039954    0.835318    3.300619
      9          1           0       -3.186567    1.395795    4.232930
     10          1           0       -3.291672   -0.212325    3.511262
     11          8           0       -4.888081   -0.205299    0.670724
     12          6           0       -1.553358    0.915223    2.902773
     13          1           0       -1.357871    0.256188    2.052134
     14          1           0       -0.951538    0.559914    3.742499
     15          6           0       -1.062457    2.331856    2.590961
     16          8           0       -0.459559    3.004947    3.393046
     17          8           0       -1.333487    2.809748    1.352613
     18          7           0       -3.034494    1.041551    0.053158
     19          1           0       -1.905707    2.180572    0.819916
     20          6           0       -3.120828    0.562284   -1.326644
     21          1           0       -3.689863   -0.374119   -1.389467
     22          6           0       -1.741128    0.281718   -1.943953
     23          6           0       -3.839104    1.623548   -2.218675
     24          1           0       -3.757881    1.268875   -3.249991
     25          1           0       -3.265128    2.556759   -2.160174
     26          8           0       -1.600820    0.120936   -3.151242
     27          6           0       -5.273060    1.871544   -1.853356
     28          6           0       -6.364155    1.219659   -2.373882
     29          1           0       -6.408729    0.463520   -3.146365
     30          6           0       -5.788408    2.789415   -0.863548
     31          6           0       -7.202015    2.621893   -0.827002
     32          6           0       -5.201926    3.743541   -0.010022
     33          1           0       -4.128308    3.910919   -0.024092
     34          7           0       -7.520276    1.655897   -1.757422
     35          1           0       -8.454388    1.365148   -2.001533
     36          6           0       -7.411032    4.270992    0.885164
     37          1           0       -8.020602    4.858689    1.565801
     38          6           0       -8.022931    3.349976    0.041659
     39          1           0       -9.100134    3.205898    0.054737
     40          6           0       -6.013163    4.470382    0.855169
     41          1           0       -5.568341    5.215821    1.508782
     42          7           0       -0.677372    0.189411   -1.080039
     43          1           0       -0.804230    0.537479   -0.136605
     44          6           0        0.675018    0.334356   -1.598151
     45          1           0        0.742658    1.221664   -2.241281
     46          6           0        1.096787   -0.834978   -2.496527
     47          6           0        1.668724    0.476931   -0.397522
     48          1           0        1.879291   -0.528214   -0.013799
     49          8           0        1.941987   -0.695864   -3.376934
     50          6           0        2.967749    1.155485   -0.821575
     51          1           0        3.410508    0.647223   -1.683582
     52          1           0        3.679747    1.159669    0.009064
     53          1           0        2.776556    2.195198   -1.115969
     54          8           0        1.055853    1.134902    0.704445
     55          1           0        0.941041    2.082053    0.511498
     56          7           0        0.542642   -2.046661   -2.182354
     57          1           0       -0.266857   -2.007775   -1.573183
     58          6           0        0.586331   -3.142584   -3.140591
     59          1           0        0.669693   -2.703703   -4.145055
     60          6           0       -0.709548   -3.956697   -3.148330
     61          6           0        1.775140   -4.111222   -2.944965
     62          1           0        1.600183   -4.972519   -3.599007
     63          1           0        1.766799   -4.477254   -1.909866
     64          8           0       -0.840502   -4.988214   -3.765317
     65          6           0        3.127411   -3.468713   -3.270191
     66          1           0        3.099588   -3.043735   -4.279888
     67          1           0        3.319097   -2.633176   -2.589075
     68          6           0        4.275441   -4.474976   -3.179783
     69          1           0        4.348902   -4.888764   -2.165069
     70          1           0        4.123337   -5.300989   -3.884652
     71          7           0        5.541458   -3.795935   -3.526640
     72          1           0        5.520394   -2.782810   -3.532413
     73          7           0        6.851127   -5.708753   -3.595694
     74          1           0        7.626444   -6.216237   -3.997707
     75          1           0        6.152511   -6.243376   -3.100401
     76          7           0        7.725987   -3.685904   -4.303376
     77          1           0        7.601207   -2.738347   -4.630972
     78          1           0        8.667509   -4.051897   -4.297614
     79          6           0        6.697445   -4.392983   -3.803275
     80          8           0       -1.692347   -3.408846   -2.402070
     81          1           0       -2.474727   -3.985326   -2.497314
 ---------------------------------------------------------------------

 SCF Done:  E(RB3LYP) =  -2053.92252210     A.U. after    1 cycles

 Alpha  occ. eigenvalues --  -19.28786 -19.24465 -19.22574 -19.22490 -19.21714
 Alpha  occ. eigenvalues --  -19.19507 -19.18046 -19.16717 -14.54577 -14.54350
 Alpha  occ. eigenvalues --  -14.54300 -14.43620 -14.43053 -14.42328 -14.40908
 Alpha  occ. eigenvalues --  -14.39061 -10.50800 -10.41050 -10.37340 -10.36507
 Alpha  occ. eigenvalues --  -10.35453 -10.35394 -10.34941 -10.33056 -10.32265
 Alpha  occ. eigenvalues --  -10.30631 -10.30305 -10.30056 -10.29323 -10.28731
 Alpha  occ. eigenvalues --  -10.26930 -10.26835 -10.26833 -10.25419 -10.25104
 Alpha  occ. eigenvalues --  -10.24458 -10.24040 -10.23555 -10.23549 -10.23404
 Alpha  occ. eigenvalues --  -10.23155 -10.23133  -1.19555  -1.19210  -1.14378
 Alpha  occ. eigenvalues --   -1.12526  -1.11510  -1.10444  -1.10167  -1.09613
 Alpha  occ. eigenvalues --   -1.08319  -1.07419  -1.04550  -1.02895  -1.00870
 Alpha  occ. eigenvalues --   -0.98990  -0.97633  -0.97106  -0.92323  -0.88802
 Alpha  occ. eigenvalues --   -0.87024  -0.86030  -0.84986  -0.84762  -0.82015
 Alpha  occ. eigenvalues --   -0.81535  -0.79639  -0.78488  -0.77754  -0.77023
 Alpha  occ. eigenvalues --   -0.76726  -0.75898  -0.73568  -0.71901  -0.71792
 Alpha  occ. eigenvalues --   -0.70049  -0.69455  -0.68498  -0.67880  -0.67190
 Alpha  occ. eigenvalues --   -0.67009  -0.65944  -0.65452  -0.64431  -0.64135
 Alpha  occ. eigenvalues --   -0.63521  -0.63257  -0.61739  -0.61133  -0.60851
 Alpha  occ. eigenvalues --   -0.59781  -0.58805  -0.58614  -0.58322  -0.57854
 Alpha  occ. eigenvalues --   -0.57289  -0.56738  -0.56056  -0.55826  -0.55105
 Alpha  occ. eigenvalues --   -0.54529  -0.54021  -0.53639  -0.52940  -0.52777
 Alpha  occ. eigenvalues --   -0.52331  -0.51933  -0.51268  -0.50667  -0.50550
 Alpha  occ. eigenvalues --   -0.49872  -0.49505  -0.49339  -0.48665  -0.48254
 Alpha  occ. eigenvalues --   -0.47915  -0.47833  -0.47734  -0.47338  -0.46684
 Alpha  occ. eigenvalues --   -0.46475  -0.46216  -0.45889  -0.45753  -0.45562
 Alpha  occ. eigenvalues --   -0.45255  -0.45095  -0.44924  -0.44411  -0.43936
 Alpha  occ. eigenvalues --   -0.43540  -0.42999  -0.42876  -0.42791  -0.42332
 Alpha  occ. eigenvalues --   -0.42005  -0.40803  -0.40466  -0.40082  -0.39817
 Alpha  occ. eigenvalues --   -0.39526  -0.38418  -0.38156  -0.36804  -0.36044
 Alpha  occ. eigenvalues --   -0.35349  -0.34672  -0.34052  -0.33737  -0.33600
 Alpha  occ. eigenvalues --   -0.32912  -0.32415  -0.31929  -0.30840  -0.30240
 Alpha  occ. eigenvalues --   -0.27339  -0.25091
 Alpha virt. eigenvalues --   -0.14437  -0.10434  -0.07915  -0.06679  -0.06331
 Alpha virt. eigenvalues --   -0.05984  -0.05738  -0.05562  -0.05080  -0.04548
 Alpha virt. eigenvalues --   -0.03251  -0.02464  -0.02146  -0.01007  -0.00641

 Mulliken charges:
               1
     1  N   -0.798906
     2  H    0.352253
     3  H    0.444846
     4  H    0.332254
     5  C   -0.065823
     6  H    0.186601
     7  C    0.612653
     8  C   -0.289641
     9  H    0.170931
    10  H    0.157297
    11  O   -0.607250
    12  C   -0.371894
    13  H    0.162430
    14  H    0.182219
    15  C    0.589181
    16  O   -0.449300
    17  O   -0.647077
    18  N   -0.582196
    19  H    0.454684
    20  C   -0.071496
    21  H    0.176289
    22  C    0.617033
    23  C   -0.353473
    24  H    0.181437
    25  H    0.155316
    26  O   -0.523364
    27  C    0.075718
    28  C    0.008336
    29  H    0.154312
    30  C    0.069558
    31  C    0.312112
    32  C   -0.228645
    33  H    0.145145
    34  N   -0.687191
    35  H    0.333579
    36  C   -0.164054
    37  H    0.135728
    38  C   -0.165305
    39  H    0.133142
    40  C   -0.162401
    41  H    0.135627
    42  N   -0.681565
    43  H    0.378637
    44  C   -0.047927
    45  H    0.179327
    46  C    0.624760
    47  C    0.128745
    48  H    0.141808
    49  O   -0.544435
    50  C   -0.473499
    51  H    0.161464
    52  H    0.166914
    53  H    0.157088
    54  O   -0.628819
    55  H    0.413944
    56  N   -0.613706
    57  H    0.370150
    58  C   -0.045436
    59  H    0.212236
    60  C    0.596888
    61  C   -0.272714
    62  H    0.179539
    63  H    0.152596
    64  O   -0.452800
    65  C   -0.311189
    66  H    0.182689
    67  H    0.179115
    68  C   -0.146056
    69  H    0.183778
    70  H    0.187197
    71  N   -0.609294
    72  H    0.375568
    73  N   -0.756450
    74  H    0.389078
    75  H    0.396919
    76  N   -0.762872
    77  H    0.390214
    78  H    0.388236
    79  C    0.841104
    80  O   -0.571075
    81  H    0.429182
 Sum of Mulliken charges =   1.00000

 Dipole moment (field-independent basis, Debye):
    X=             18.3798    Y=            -20.7260    Z=            -12.8370  Tot=             30.5315
 Quadrupole moment (field-independent basis, Debye-Ang):
   XX=             39.2067   YY=           -158.2121   ZZ=           -194.6593
   XY=           -133.5343   XZ=           -121.3488   YZ=             61.0241

 Normal termination of Gaussian 16 at Thu May 26 18:13:19 2022.
