 Gaussian 16, Revision C.01,
 Gaussian 16:  ES64L-G16RevC.01  3-Jul-2019

 -------------------------------------------------------------------
 # B3LYP/6-31G* guess=read geom=check nosymm integral(ultrafinegrid)
 -------------------------------------------------------------------

 ------------------------------------------------------
 Candidate Structure: Conf:123 Charge calc in gas phase
 ------------------------------------------------------
 Structure from the checkpoint file:  "conf-123.chk"
 Charge =  1 Multiplicity = 1

                          Input orientation:
 ---------------------------------------------------------------------
 Center     Atomic      Atomic             Coordinates (Angstroms)
 Number     Number       Type             X           Y           Z
 ---------------------------------------------------------------------
      1          7           0       -3.760652    2.608437    3.037566
      2          1           0       -4.766450    2.477642    2.891036
      3          1           0       -3.352278    1.691617    3.367643
      4          1           0       -3.613833    3.350663    3.727347
      5          6           0       -2.999900    2.853264    1.741359
      6          1           0       -3.690819    3.316251    1.031444
      7          6           0       -2.632225    1.405712    1.318244
      8          6           0       -1.783574    3.746572    2.054040
      9          1           0       -2.164286    4.711257    2.412631
     10          1           0       -1.209366    3.269306    2.858215
     11          8           0       -2.566014    0.546963    2.204974
     12          6           0       -0.805066    3.952187    0.883388
     13          1           0       -0.597997    5.018656    0.750233
     14          1           0       -1.195571    3.617732   -0.084628
     15          6           0        0.558168    3.223896    1.100959
     16          8           0        0.706876    2.527118    2.125722
     17          8           0        1.388458    3.421320    0.160561
     18          7           0       -2.450001    1.205778    0.010927
     19          1           0       -2.563838    1.993803   -0.613083
     20          6           0       -2.002979   -0.062291   -0.578623
     21          1           0       -2.133113   -0.815557    0.201410
     22          6           0       -0.515148    0.141510   -0.923694
     23          6           0       -2.840173   -0.433404   -1.821727
     24          1           0       -2.495589   -1.420262   -2.153721
     25          1           0       -2.578105    0.261856   -2.627938
     26          8           0       -0.204323    0.815803   -1.912115
     27          6           0       -4.321194   -0.452895   -1.565628
     28          6           0       -5.075421   -1.553327   -1.232756
     29          1           0       -4.779575   -2.589718   -1.143431
     30          6           0       -5.225866    0.674245   -1.552886
     31          6           0       -6.509024    0.179393   -1.185240
     32          6           0       -5.097275    2.048578   -1.837019
     33          1           0       -4.155167    2.455749   -2.200707
     34          7           0       -6.381539   -1.180072   -0.993860
     35          1           0       -7.139826   -1.816557   -0.799815
     36          6           0       -7.460982    2.363662   -1.329441
     37          1           0       -8.314015    3.031960   -1.256946
     38          6           0       -7.629488    1.009537   -1.066290
     39          1           0       -8.600836    0.608722   -0.789338
     40          6           0       -6.206432    2.878550   -1.719061
     41          1           0       -6.116674    3.934599   -1.958873
     42          7           0        0.362046   -0.397493   -0.055449
     43          1           0        0.022668   -0.702484    0.856729
     44          6           0        1.760116    0.041558    0.001023
     45          1           0        1.768797    1.137028    0.000600
     46          6           0        2.569543   -0.454628   -1.204300
     47          6           0        2.350365   -0.495056    1.328291
     48          1           0        2.459761   -1.578693    1.224830
     49          8           0        3.126610   -1.537383   -1.242972
     50          6           0        3.702007    0.130031    1.659059
     51          1           0        4.426986   -0.044566    0.856664
     52          1           0        4.091289   -0.310519    2.581444
     53          1           0        3.597905    1.210197    1.811898
     54          8           0        1.392501   -0.300522    2.360922
     55          1           0        1.265309    0.670235    2.446150
     56          7           0        2.674883    0.488709   -2.228635
     57          1           0        1.779917    0.969673   -2.363524
     58          6           0        3.323374    0.054131   -3.468010
     59          1           0        2.769883   -0.784142   -3.907713
     60          6           0        4.732248   -0.489292   -3.249897
     61          6           0        3.357477    1.191497   -4.517606
     62          1           0        2.330861    1.564911   -4.637358
     63          1           0        3.611935    0.699400   -5.462376
     64          8           0        5.258172   -1.282212   -3.991048
     65          6           0        4.322637    2.386331   -4.363722
     66          1           0        5.325062    2.045136   -4.083046
     67          1           0        4.421313    2.837466   -5.358648
     68          6           0        3.889797    3.517727   -3.416670
     69          1           0        4.505750    4.403837   -3.603409
     70          1           0        2.848744    3.805048   -3.616400
     71          7           0        4.016183    3.174085   -1.992445
     72          1           0        3.504701    2.341153   -1.680097
     73          7           0        5.423286    4.898424   -1.305801
     74          1           0        5.719655    5.549424   -0.594051
     75          1           0        6.040050    4.776796   -2.095807
     76          7           0        4.037948    3.795492    0.227224
     77          1           0        3.021657    3.502912    0.371922
     78          1           0        4.532208    4.231220    0.994314
     79          6           0        4.487779    3.959491   -1.016974
     80          8           0        5.382165    0.098092   -2.211035
     81          1           0        6.260968   -0.325419   -2.172848
 ---------------------------------------------------------------------

 SCF Done:  E(RB3LYP) =  -2053.93959385     A.U. after    1 cycles

 Alpha  occ. eigenvalues --  -19.26455 -19.25277 -19.20931 -19.20431 -19.20252
 Alpha  occ. eigenvalues --  -19.19938 -19.17030 -19.16778 -14.59115 -14.48953
 Alpha  occ. eigenvalues --  -14.48541 -14.46836 -14.46022 -14.45701 -14.44296
 Alpha  occ. eigenvalues --  -14.43267 -10.43679 -10.42229 -10.39178 -10.38870
 Alpha  occ. eigenvalues --  -10.37683 -10.36415 -10.35161 -10.33436 -10.32921
 Alpha  occ. eigenvalues --  -10.31441 -10.30846 -10.30056 -10.30033 -10.29978
 Alpha  occ. eigenvalues --  -10.29639 -10.28315 -10.28309 -10.28126 -10.27806
 Alpha  occ. eigenvalues --  -10.27122 -10.26964 -10.26752 -10.26545 -10.26420
 Alpha  occ. eigenvalues --  -10.26360 -10.23577  -1.17829  -1.17211  -1.12937
 Alpha  occ. eigenvalues --   -1.12538  -1.11954  -1.11637  -1.09977  -1.08234
 Alpha  occ. eigenvalues --   -1.07776  -1.05980  -1.05370  -1.01635  -1.01455
 Alpha  occ. eigenvalues --   -1.00532  -0.99945  -0.99625  -0.92182  -0.91863
 Alpha  occ. eigenvalues --   -0.89218  -0.88852  -0.85970  -0.84458  -0.82960
 Alpha  occ. eigenvalues --   -0.82614  -0.81588  -0.80067  -0.78140  -0.76863
 Alpha  occ. eigenvalues --   -0.76029  -0.74268  -0.74202  -0.72772  -0.71506
 Alpha  occ. eigenvalues --   -0.71121  -0.70244  -0.69831  -0.69443  -0.68807
 Alpha  occ. eigenvalues --   -0.67307  -0.66919  -0.66462  -0.65169  -0.65063
 Alpha  occ. eigenvalues --   -0.63975  -0.63288  -0.62032  -0.61785  -0.61507
 Alpha  occ. eigenvalues --   -0.60753  -0.60119  -0.59563  -0.58252  -0.57738
 Alpha  occ. eigenvalues --   -0.57678  -0.57386  -0.56952  -0.56323  -0.56122
 Alpha  occ. eigenvalues --   -0.55179  -0.55127  -0.54480  -0.53818  -0.53683
 Alpha  occ. eigenvalues --   -0.53124  -0.52605  -0.52200  -0.52078  -0.51699
 Alpha  occ. eigenvalues --   -0.51445  -0.50945  -0.50608  -0.50285  -0.50188
 Alpha  occ. eigenvalues --   -0.49961  -0.49762  -0.49246  -0.48902  -0.48385
 Alpha  occ. eigenvalues --   -0.48092  -0.47966  -0.47759  -0.46877  -0.46580
 Alpha  occ. eigenvalues --   -0.46392  -0.45677  -0.45323  -0.45192  -0.45082
 Alpha  occ. eigenvalues --   -0.44025  -0.43718  -0.43308  -0.43085  -0.42957
 Alpha  occ. eigenvalues --   -0.42587  -0.42513  -0.41680  -0.41422  -0.39660
 Alpha  occ. eigenvalues --   -0.39068  -0.38816  -0.38437  -0.38191  -0.36177
 Alpha  occ. eigenvalues --   -0.35893  -0.35592  -0.35373  -0.34600  -0.33542
 Alpha  occ. eigenvalues --   -0.33146  -0.32688  -0.32168  -0.31412  -0.30969
 Alpha  occ. eigenvalues --   -0.30386  -0.28386
 Alpha virt. eigenvalues --   -0.11323  -0.09762  -0.09321  -0.08993  -0.07233
 Alpha virt. eigenvalues --   -0.06970  -0.05667  -0.05590  -0.05053  -0.04735
 Alpha virt. eigenvalues --   -0.04282  -0.02227  -0.01702  -0.01152  -0.00756

 Mulliken charges:
               1
     1  N   -0.748325
     2  H    0.416608
     3  H    0.431903
     4  H    0.412656
     5  C   -0.135813
     6  H    0.209225
     7  C    0.671517
     8  C   -0.283572
     9  H    0.154019
    10  H    0.210305
    11  O   -0.534575
    12  C   -0.384767
    13  H    0.179310
    14  H    0.150921
    15  C    0.616072
    16  O   -0.573262
    17  O   -0.618158
    18  N   -0.584747
    19  H    0.359406
    20  C   -0.070245
    21  H    0.195712
    22  C    0.650137
    23  C   -0.389419
    24  H    0.177643
    25  H    0.183255
    26  O   -0.556084
    27  C    0.068668
    28  C    0.007480
    29  H    0.168230
    30  C    0.087479
    31  C    0.308346
    32  C   -0.253289
    33  H    0.121802
    34  N   -0.684782
    35  H    0.341656
    36  C   -0.158840
    37  H    0.141842
    38  C   -0.162140
    39  H    0.142098
    40  C   -0.149492
    41  H    0.132876
    42  N   -0.608165
    43  H    0.366560
    44  C   -0.111397
    45  H    0.199981
    46  C    0.632140
    47  C    0.119283
    48  H    0.172237
    49  O   -0.487452
    50  C   -0.481720
    51  H    0.159887
    52  H    0.171118
    53  H    0.146112
    54  O   -0.664325
    55  H    0.432040
    56  N   -0.676227
    57  H    0.378086
    58  C   -0.015950
    59  H    0.193319
    60  C    0.611430
    61  C   -0.318364
    62  H    0.158022
    63  H    0.186932
    64  O   -0.455113
    65  C   -0.274347
    66  H    0.165580
    67  H    0.167109
    68  C   -0.158228
    69  H    0.159998
    70  H    0.183726
    71  N   -0.597874
    72  H    0.404768
    73  N   -0.751615
    74  H    0.366156
    75  H    0.370634
    76  N   -0.779415
    77  H    0.431912
    78  H    0.345987
    79  C    0.766891
    80  O   -0.578829
    81  H    0.417453
 Sum of Mulliken charges =   1.00000

 Dipole moment (field-independent basis, Debye):
    X=             -5.4808    Y=             18.1436    Z=              2.0441  Tot=             19.0633
 Quadrupole moment (field-independent basis, Debye-Ang):
   XX=            -82.5501   YY=           -164.2630   ZZ=           -211.2413
   XY=             44.0484   XZ=            -46.6630   YZ=              5.2213

 Normal termination of Gaussian 16 at Thu May 26 18:13:26 2022.
