 Gaussian 16, Revision C.01,
 Gaussian 16:  ES64L-G16RevC.01  3-Jul-2019

 -------------------------------------------------------------------
 # B3LYP/6-31G* guess=read geom=check nosymm integral(ultrafinegrid)
 -------------------------------------------------------------------

 -----------------------------------------------------
 Candidate Structure: Conf:90 Charge calc in gas phase
 -----------------------------------------------------
 Structure from the checkpoint file:  "conf-90.chk"
 Charge =  1 Multiplicity = 1

                          Input orientation:
 ---------------------------------------------------------------------
 Center     Atomic      Atomic             Coordinates (Angstroms)
 Number     Number       Type             X           Y           Z
 ---------------------------------------------------------------------
      1          7           0       -0.536577   -1.807685    3.330597
      2          1           0       -0.216962   -2.495774    2.648579
      3          1           0        0.428901   -0.244769    3.086784
      4          1           0       -0.530938   -2.249523    4.247129
      5          6           0       -1.910725   -1.414478    2.955132
      6          1           0       -2.643190   -2.197059    3.209167
      7          6           0       -1.856192   -1.276976    1.415314
      8          6           0       -2.308675   -0.077770    3.627674
      9          1           0       -1.826265    0.727708    3.069350
     10          1           0       -3.393700    0.063783    3.542012
     11          8           0       -1.011310   -1.913077    0.776029
     12          6           0       -1.912486    0.078271    5.111053
     13          1           0       -0.924691   -0.361990    5.287622
     14          1           0       -2.630250   -0.403423    5.778555
     15          6           0       -1.832303    1.560798    5.490423
     16          8           0       -2.598946    2.094940    6.253992
     17          8           0       -0.841651    2.257453    4.890717
     18          7           0       -2.675482   -0.377472    0.811907
     19          1           0       -3.254930    0.210761    1.397264
     20          6           0       -2.323494    0.172014   -0.510131
     21          1           0       -1.870289   -0.648708   -1.070622
     22          6           0       -1.255336    1.273544   -0.277697
     23          6           0       -3.565855    0.693602   -1.246520
     24          1           0       -3.929835    1.594678   -0.740964
     25          1           0       -4.343435   -0.074770   -1.147216
     26          8           0       -1.475645    2.470949   -0.475696
     27          6           0       -3.318917    0.992982   -2.697259
     28          6           0       -3.298436    2.233587   -3.281593
     29          1           0       -3.435345    3.204405   -2.825974
     30          6           0       -3.074871    0.038569   -3.754178
     31          6           0       -2.916369    0.779108   -4.958445
     32          6           0       -2.986530   -1.364431   -3.807964
     33          1           0       -3.115946   -1.964220   -2.910309
     34          7           0       -3.043682    2.116330   -4.634421
     35          1           0       -3.089496    2.873426   -5.298638
     36          6           0       -2.594329   -1.225169   -6.209738
     37          1           0       -2.417127   -1.736049   -7.151972
     38          6           0       -2.677807    0.162726   -6.190818
     39          1           0       -2.571055    0.744710   -7.102822
     40          6           0       -2.746767   -1.981296   -5.029728
     41          1           0       -2.683855   -3.064568   -5.081099
     42          7           0       -0.081414    0.822746    0.242049
     43          1           0        0.047489   -0.180417    0.338312
     44          6           0        0.901470    1.724159    0.847590
     45          1           0        0.348215    2.592466    1.222469
     46          6           0        1.852044    2.190743   -0.269145
     47          6           0        1.613350    1.057779    2.047696
     48          1           0        2.111715    0.143442    1.699034
     49          8           0        2.980227    1.739079   -0.454351
     50          6           0        2.643532    1.984850    2.687589
     51          1           0        3.443096    2.233058    1.986012
     52          1           0        3.080434    1.489253    3.559029
     53          1           0        2.163586    2.908390    3.032509
     54          8           0        0.632995    0.728598    3.033185
     55          1           0       -0.282633    1.695930    4.304912
     56          7           0        1.300849    3.132060   -1.092849
     57          1           0        0.289686    3.263828   -1.027221
     58          6           0        2.007786    3.525266   -2.300346
     59          1           0        1.279794    4.053700   -2.930668
     60          6           0        2.429745    2.299604   -3.125688
     61          6           0        3.170962    4.484752   -1.967080
     62          1           0        3.858680    3.946857   -1.307057
     63          1           0        2.734340    5.289555   -1.369489
     64          8           0        3.443307    2.207389   -3.803990
     65          6           0        3.929028    5.076290   -3.180483
     66          1           0        3.456578    4.773007   -4.120584
     67          1           0        3.892255    6.171449   -3.156452
     68          6           0        5.396997    4.622432   -3.182323
     69          1           0        5.949048    5.097020   -2.365931
     70          1           0        5.463386    3.543960   -3.026578
     71          7           0        6.120881    4.944532   -4.424159
     72          1           0        6.475684    5.886511   -4.528837
     73          7           0        5.501683    3.014586   -5.567985
     74          1           0        5.734920    2.321604   -6.264959
     75          1           0        4.764518    2.774417   -4.896953
     76          7           0        7.000169    4.506999   -6.519957
     77          1           0        7.742959    5.178771   -6.390894
     78          1           0        6.982176    4.004564   -7.395426
     79          6           0        6.199329    4.147688   -5.495266
     80          8           0        1.495218    1.348828   -3.120017
     81          1           0        1.808612    0.613487   -3.680497
 ---------------------------------------------------------------------

 SCF Done:  E(RB3LYP) =  -2053.95242835     A.U. after    1 cycles

 Alpha  occ. eigenvalues --  -19.30665 -19.26165 -19.21690 -19.21602 -19.20957
 Alpha  occ. eigenvalues --  -19.20915 -19.20723 -19.16536 -14.52931 -14.52918
 Alpha  occ. eigenvalues --  -14.51739 -14.45124 -14.44599 -14.44270 -14.44090
 Alpha  occ. eigenvalues --  -14.41531 -10.49073 -10.44128 -10.37876 -10.37551
 Alpha  occ. eigenvalues --  -10.37317 -10.35882 -10.35383 -10.34938 -10.32050
 Alpha  occ. eigenvalues --  -10.31554 -10.31503 -10.31273 -10.30865 -10.29581
 Alpha  occ. eigenvalues --  -10.27911 -10.27842 -10.27098 -10.26420 -10.25893
 Alpha  occ. eigenvalues --  -10.24835 -10.24406 -10.24372 -10.24328 -10.24229
 Alpha  occ. eigenvalues --  -10.24099 -10.23772  -1.22272  -1.17445  -1.13247
 Alpha  occ. eigenvalues --   -1.13086  -1.12742  -1.12576  -1.11849  -1.08706
 Alpha  occ. eigenvalues --   -1.06769  -1.05344  -1.04548  -1.03894  -1.01842
 Alpha  occ. eigenvalues --   -1.01623  -1.00181  -0.97997  -0.91709  -0.89665
 Alpha  occ. eigenvalues --   -0.87893  -0.87138  -0.85731  -0.85054  -0.82639
 Alpha  occ. eigenvalues --   -0.81675  -0.79350  -0.78828  -0.78677  -0.78211
 Alpha  occ. eigenvalues --   -0.77041  -0.75059  -0.74388  -0.72758  -0.71548
 Alpha  occ. eigenvalues --   -0.70861  -0.69957  -0.68343  -0.68081  -0.66788
 Alpha  occ. eigenvalues --   -0.66622  -0.66246  -0.66191  -0.65805  -0.65069
 Alpha  occ. eigenvalues --   -0.64424  -0.63162  -0.62330  -0.61810  -0.61525
 Alpha  occ. eigenvalues --   -0.60463  -0.60283  -0.59926  -0.59465  -0.58940
 Alpha  occ. eigenvalues --   -0.58546  -0.58221  -0.57210  -0.56620  -0.55987
 Alpha  occ. eigenvalues --   -0.55567  -0.55148  -0.54307  -0.54175  -0.53212
 Alpha  occ. eigenvalues --   -0.52869  -0.52638  -0.51740  -0.51337  -0.51295
 Alpha  occ. eigenvalues --   -0.50743  -0.50540  -0.50290  -0.49719  -0.48920
 Alpha  occ. eigenvalues --   -0.48881  -0.48509  -0.48362  -0.47993  -0.47514
 Alpha  occ. eigenvalues --   -0.47241  -0.46997  -0.46650  -0.46261  -0.46037
 Alpha  occ. eigenvalues --   -0.45940  -0.45593  -0.45331  -0.45003  -0.44770
 Alpha  occ. eigenvalues --   -0.44231  -0.43650  -0.43615  -0.43535  -0.43226
 Alpha  occ. eigenvalues --   -0.43133  -0.42151  -0.41270  -0.41124  -0.40964
 Alpha  occ. eigenvalues --   -0.40090  -0.39207  -0.39124  -0.38787  -0.36878
 Alpha  occ. eigenvalues --   -0.36173  -0.35479  -0.35099  -0.34799  -0.34300
 Alpha  occ. eigenvalues --   -0.34012  -0.33560  -0.32667  -0.32433  -0.30149
 Alpha  occ. eigenvalues --   -0.28112  -0.26226
 Alpha virt. eigenvalues --   -0.12912  -0.10778  -0.09114  -0.09033  -0.07183
 Alpha virt. eigenvalues --   -0.06892  -0.05104  -0.05081  -0.04320  -0.03306
 Alpha virt. eigenvalues --   -0.02629  -0.02348  -0.01664  -0.00355  -0.00248

 Mulliken charges:
               1
     1  N   -0.775730
     2  H    0.350254
     3  H    0.456361
     4  H    0.330341
     5  C   -0.058019
     6  H    0.176441
     7  C    0.621254
     8  C   -0.320381
     9  H    0.168412
    10  H    0.162072
    11  O   -0.543898
    12  C   -0.378130
    13  H    0.161032
    14  H    0.181231
    15  C    0.577592
    16  O   -0.438362
    17  O   -0.605872
    18  N   -0.593378
    19  H    0.349133
    20  C   -0.079469
    21  H    0.204400
    22  C    0.635618
    23  C   -0.359939
    24  H    0.163726
    25  H    0.167804
    26  O   -0.542771
    27  C    0.063467
    28  C    0.008119
    29  H    0.161905
    30  C    0.080346
    31  C    0.308867
    32  C   -0.218575
    33  H    0.130790
    34  N   -0.692325
    35  H    0.329380
    36  C   -0.153653
    37  H    0.131443
    38  C   -0.167573
    39  H    0.124258
    40  C   -0.141660
    41  H    0.131518
    42  N   -0.620223
    43  H    0.368785
    44  C   -0.067839
    45  H    0.188612
    46  C    0.645068
    47  C    0.117431
    48  H    0.145103
    49  O   -0.542131
    50  C   -0.467730
    51  H    0.168509
    52  H    0.167400
    53  H    0.160775
    54  O   -0.692653
    55  H    0.449760
    56  N   -0.614463
    57  H    0.383436
    58  C   -0.052011
    59  H    0.187964
    60  C    0.630953
    61  C   -0.278408
    62  H    0.192370
    63  H    0.175543
    64  O   -0.524217
    65  C   -0.267878
    66  H    0.150076
    67  H    0.160784
    68  C   -0.188012
    69  H    0.195366
    70  H    0.208454
    71  N   -0.597098
    72  H    0.363057
    73  N   -0.793237
    74  H    0.372467
    75  H    0.455272
    76  N   -0.767047
    77  H    0.382107
    78  H    0.381824
    79  C    0.818120
    80  O   -0.531377
    81  H    0.429060
 Sum of Mulliken charges =   1.00000

 Dipole moment (field-independent basis, Debye):
    X=             21.6456    Y=             14.2087    Z=            -24.7205  Tot=             35.7984
 Quadrupole moment (field-independent basis, Debye-Ang):
   XX=            -88.3145   YY=           -151.3000   ZZ=           -117.2584
   XY=            112.2041   XZ=           -122.0680   YZ=           -129.4610

 Normal termination of Gaussian 16 at Thu May 26 18:13:22 2022.
