 Gaussian 16, Revision C.01,
 Gaussian 16:  ES64L-G16RevC.01  3-Jul-2019

 -------------------------------------------------------------------
 # B3LYP/6-31G* guess=read geom=check nosymm integral(ultrafinegrid)
 -------------------------------------------------------------------

 ------------------------------------------------------
 Candidate Structure: Conf:126 Charge calc in gas phase
 ------------------------------------------------------
 Structure from the checkpoint file:  "conf-126.chk"
 Charge =  1 Multiplicity = 1

                          Input orientation:
 ---------------------------------------------------------------------
 Center     Atomic      Atomic             Coordinates (Angstroms)
 Number     Number       Type             X           Y           Z
 ---------------------------------------------------------------------
      1          7           0       -2.986755   -2.816643    2.446737
      2          1           0       -3.928185   -3.173129    2.270879
      3          1           0       -2.401419   -2.811242    1.510928
      4          1           0       -2.550692   -3.377291    3.181729
      5          6           0       -2.949542   -1.325621    2.715471
      6          1           0       -3.966108   -0.976031    2.901786
      7          6           0       -2.406587   -0.766203    1.369533
      8          6           0       -2.037275   -1.050207    3.924612
      9          1           0       -2.473516   -1.540505    4.804920
     10          1           0       -1.058767   -1.508902    3.728213
     11          8           0       -1.912647   -1.663160    0.593556
     12          6           0       -1.816912    0.442986    4.248376
     13          1           0       -1.225615    0.901794    3.451132
     14          1           0       -1.256138    0.507628    5.183755
     15          6           0       -3.125768    1.218041    4.452575
     16          8           0       -3.752196    1.603797    3.328686
     17          8           0       -3.581998    1.437804    5.551077
     18          7           0       -2.489817    0.518003    1.204026
     19          1           0       -3.248297    1.312173    2.497483
     20          6           0       -2.039826    1.072600   -0.075420
     21          1           0       -2.254222    0.356195   -0.882917
     22          6           0       -0.509079    1.273898   -0.074157
     23          6           0       -2.789686    2.389372   -0.356266
     24          1           0       -2.355354    2.846008   -1.254448
     25          1           0       -2.597599    3.074957    0.478795
     26          8           0        0.045006    2.383258   -0.258141
     27          6           0       -4.268298    2.211503   -0.541415
     28          6           0       -5.247420    2.423085    0.399179
     29          1           0       -5.156323    2.736439    1.430714
     30          6           0       -4.939591    1.768407   -1.739935
     31          6           0       -6.332814    1.738619   -1.453240
     32          6           0       -4.507455    1.400392   -3.026987
     33          1           0       -3.449380    1.407964   -3.279858
     34          7           0       -6.485238    2.137106   -0.140315
     35          1           0       -7.364814    2.243102    0.341254
     36          6           0       -6.825024    1.003851   -3.667730
     37          1           0       -7.538631    0.704988   -4.430165
     38          6           0       -7.285108    1.361518   -2.405721
     39          1           0       -8.345986    1.348089   -2.170036
     40          6           0       -5.449137    1.022736   -3.975860
     41          1           0       -5.124580    0.735089   -4.972030
     42          7           0        0.210459    0.167907    0.154439
     43          1           0       -0.296375   -0.714757    0.259335
     44          6           0        1.651746    0.180268    0.335703
     45          1           0        1.905482    0.967381    1.059253
     46          6           0        2.360806    0.466221   -1.002132
     47          6           0        2.084433   -1.193386    0.912570
     48          1           0        1.771289   -1.961511    0.197172
     49          8           0        2.048239   -0.119865   -2.031764
     50          6           0        3.588011   -1.299862    1.152096
     51          1           0        4.157322   -1.209754    0.222169
     52          1           0        3.815054   -2.272540    1.597328
     53          1           0        3.940074   -0.517698    1.838435
     54          8           0        1.345700   -1.473131    2.103667
     55          1           0        1.736374   -0.944982    2.819399
     56          7           0        3.343235    1.409109   -0.937427
     57          1           0        3.634945    1.768216   -0.035233
     58          6           0        4.263760    1.687678   -2.029049
     59          1           0        4.290142    0.817482   -2.693591
     60          6           0        5.647619    1.888584   -1.415834
     61          6           0        3.844388    2.942774   -2.834683
     62          1           0        4.680475    3.258080   -3.467331
     63          1           0        3.669728    3.748608   -2.110137
     64          8           0        5.852052    2.030108   -0.229277
     65          6           0        2.585512    2.710041   -3.701074
     66          1           0        2.881698    2.494075   -4.733085
     67          1           0        2.036183    1.825559   -3.360338
     68          6           0        1.632933    3.908217   -3.732126
     69          1           0        2.199320    4.827690   -3.933248
     70          1           0        0.894124    3.780798   -4.534215
     71          7           0        0.942527    4.043148   -2.442577
     72          1           0        0.888024    3.227722   -1.826267
     73          7           0        0.088427    6.172819   -2.854576
     74          1           0       -0.346697    7.015989   -2.510668
     75          1           0        0.585634    6.237810   -3.729085
     76          7           0       -0.403897    5.060270   -0.870509
     77          1           0       -0.441612    4.151335   -0.389771
     78          1           0       -1.120378    5.739366   -0.657217
     79          6           0        0.206668    5.088768   -2.063982
     80          8           0        6.608181    1.921416   -2.354338
     81          1           0        7.458192    2.073862   -1.897493
 ---------------------------------------------------------------------

 SCF Done:  E(RB3LYP) =  -2053.94413685     A.U. after    1 cycles

 Alpha  occ. eigenvalues --  -19.29570 -19.24461 -19.24150 -19.22812 -19.22600
 Alpha  occ. eigenvalues --  -19.21415 -19.20928 -19.18004 -14.54265 -14.50938
 Alpha  occ. eigenvalues --  -14.49518 -14.48610 -14.45752 -14.45039 -14.43716
 Alpha  occ. eigenvalues --  -14.39438 -10.46278 -10.42116 -10.38673 -10.38289
 Alpha  occ. eigenvalues --  -10.36834 -10.36171 -10.35270 -10.35064 -10.33912
 Alpha  occ. eigenvalues --  -10.33893 -10.32920 -10.30588 -10.30380 -10.29571
 Alpha  occ. eigenvalues --  -10.29520 -10.27661 -10.27570 -10.27522 -10.26986
 Alpha  occ. eigenvalues --  -10.26782 -10.24453 -10.24354 -10.24203 -10.24129
 Alpha  occ. eigenvalues --  -10.23900 -10.23635  -1.20626  -1.14935  -1.13883
 Alpha  occ. eigenvalues --   -1.13758  -1.12947  -1.12701  -1.11766  -1.11672
 Alpha  occ. eigenvalues --   -1.07591  -1.05783  -1.04241  -1.03574  -1.02896
 Alpha  occ. eigenvalues --   -1.02358  -1.01777  -0.97773  -0.90960  -0.89967
 Alpha  occ. eigenvalues --   -0.89370  -0.87858  -0.86708  -0.85726  -0.82933
 Alpha  occ. eigenvalues --   -0.80772  -0.80321  -0.79404  -0.79013  -0.77307
 Alpha  occ. eigenvalues --   -0.76877  -0.74044  -0.73365  -0.72706  -0.72271
 Alpha  occ. eigenvalues --   -0.71397  -0.69615  -0.68539  -0.68442  -0.68001
 Alpha  occ. eigenvalues --   -0.67820  -0.67161  -0.67034  -0.65206  -0.64635
 Alpha  occ. eigenvalues --   -0.63946  -0.63345  -0.62576  -0.62180  -0.61503
 Alpha  occ. eigenvalues --   -0.60548  -0.60039  -0.59711  -0.59272  -0.59157
 Alpha  occ. eigenvalues --   -0.58910  -0.58181  -0.57637  -0.56911  -0.56626
 Alpha  occ. eigenvalues --   -0.56337  -0.55799  -0.55209  -0.54775  -0.53901
 Alpha  occ. eigenvalues --   -0.53505  -0.53470  -0.53287  -0.52711  -0.52393
 Alpha  occ. eigenvalues --   -0.51740  -0.51175  -0.50463  -0.50227  -0.49809
 Alpha  occ. eigenvalues --   -0.49687  -0.49308  -0.49077  -0.48601  -0.48556
 Alpha  occ. eigenvalues --   -0.47849  -0.47613  -0.47488  -0.46975  -0.46913
 Alpha  occ. eigenvalues --   -0.46444  -0.46134  -0.45711  -0.45440  -0.45406
 Alpha  occ. eigenvalues --   -0.44855  -0.44697  -0.44474  -0.44144  -0.43572
 Alpha  occ. eigenvalues --   -0.42160  -0.41658  -0.41618  -0.41431  -0.40898
 Alpha  occ. eigenvalues --   -0.39100  -0.38881  -0.38790  -0.37997  -0.37691
 Alpha  occ. eigenvalues --   -0.37358  -0.36803  -0.36119  -0.35799  -0.35226
 Alpha  occ. eigenvalues --   -0.34664  -0.33934  -0.33023  -0.32279  -0.31401
 Alpha  occ. eigenvalues --   -0.27834  -0.25995
 Alpha virt. eigenvalues --   -0.10123  -0.09115  -0.08807  -0.07477  -0.06941
 Alpha virt. eigenvalues --   -0.06689  -0.06431  -0.05763  -0.04473  -0.03097
 Alpha virt. eigenvalues --   -0.02970  -0.02518  -0.01783  -0.01527  -0.00766

 Mulliken charges:
               1
     1  N   -0.771183
     2  H    0.400834
     3  H    0.433882
     4  H    0.395309
     5  C   -0.103216
     6  H    0.216329
     7  C    0.621813
     8  C   -0.300819
     9  H    0.174866
    10  H    0.172526
    11  O   -0.652220
    12  C   -0.366763
    13  H    0.167116
    14  H    0.183161
    15  C    0.570992
    16  O   -0.624994
    17  O   -0.447517
    18  N   -0.567996
    19  H    0.460153
    20  C   -0.073431
    21  H    0.186785
    22  C    0.651741
    23  C   -0.368163
    24  H    0.128700
    25  H    0.138995
    26  O   -0.614886
    27  C    0.059053
    28  C   -0.007279
    29  H    0.182270
    30  C    0.087751
    31  C    0.309316
    32  C   -0.216155
    33  H    0.107769
    34  N   -0.691618
    35  H    0.335003
    36  C   -0.152400
    37  H    0.134515
    38  C   -0.161985
    39  H    0.132321
    40  C   -0.138914
    41  H    0.125882
    42  N   -0.610887
    43  H    0.408806
    44  C   -0.037824
    45  H    0.144370
    46  C    0.623773
    47  C    0.098664
    48  H    0.179239
    49  O   -0.524309
    50  C   -0.486291
    51  H    0.172405
    52  H    0.185213
    53  H    0.148086
    54  O   -0.622184
    55  H    0.395027
    56  N   -0.605040
    57  H    0.352651
    58  C   -0.054667
    59  H    0.211260
    60  C    0.582838
    61  C   -0.275122
    62  H    0.181630
    63  H    0.154187
    64  O   -0.459956
    65  C   -0.326671
    66  H    0.177968
    67  H    0.210136
    68  C   -0.155844
    69  H    0.163499
    70  H    0.186357
    71  N   -0.629211
    72  H    0.409903
    73  N   -0.765976
    74  H    0.377832
    75  H    0.383255
    76  N   -0.787076
    77  H    0.431359
    78  H    0.362709
    79  C    0.807208
    80  O   -0.555214
    81  H    0.430357
 Sum of Mulliken charges =   1.00000

 Dipole moment (field-independent basis, Debye):
    X=              1.9085    Y=              9.3626    Z=             -4.4366  Tot=             10.5349
 Quadrupole moment (field-independent basis, Debye-Ang):
   XX=           -168.9969   YY=           -125.1642   ZZ=           -220.6690
   XY=             34.2508   XZ=            -15.0335   YZ=            -77.9728

 Normal termination of Gaussian 16 at Thu May 26 18:13:25 2022.
