 Gaussian 16, Revision C.01,
 Gaussian 16:  ES64L-G16RevC.01  3-Jul-2019

 -------------------------------------------------------------------
 # B3LYP/6-31G* guess=read geom=check nosymm integral(ultrafinegrid)
 -------------------------------------------------------------------

 ------------------------------------------------------
 Candidate Structure: Conf:112 Charge calc in gas phase
 ------------------------------------------------------
 Structure from the checkpoint file:  "conf-112.chk"
 Charge =  1 Multiplicity = 1

                          Input orientation:
 ---------------------------------------------------------------------
 Center     Atomic      Atomic             Coordinates (Angstroms)
 Number     Number       Type             X           Y           Z
 ---------------------------------------------------------------------
      1          7           0       -4.037683    2.590978    2.945667
      2          1           0       -3.977626    3.581858    2.694814
      3          1           0       -4.542415    2.072200    2.175665
      4          1           0       -4.527310    2.508867    3.841014
      5          6           0       -2.681462    1.903352    2.965331
      6          1           0       -1.904034    2.653411    3.123540
      7          6           0       -2.618055    1.269404    1.548806
      8          6           0       -2.649761    0.917992    4.150668
      9          1           0       -2.760732    1.526870    5.055523
     10          1           0       -3.500525    0.226649    4.082786
     11          8           0       -3.702783    1.093835    0.962909
     12          6           0       -1.323537    0.145764    4.241003
     13          1           0       -1.320685   -0.708044    3.557050
     14          1           0       -1.227063   -0.251605    5.257258
     15          6           0       -0.132478    1.101435    3.936987
     16          8           0        0.682361    0.685429    3.034034
     17          8           0       -0.142741    2.207502    4.493029
     18          7           0       -1.411376    0.999381    1.042253
     19          1           0       -0.587121    1.032189    1.672655
     20          6           0       -1.224901    0.359195   -0.281535
     21          1           0       -1.726933   -0.615726   -0.247895
     22          6           0        0.306226    0.150060   -0.438381
     23          6           0       -1.799794    1.191780   -1.433162
     24          1           0       -1.167210    2.078174   -1.552622
     25          1           0       -2.800111    1.533018   -1.150886
     26          8           0        0.997456    0.894644   -1.140237
     27          6           0       -1.872655    0.429038   -2.730371
     28          6           0       -1.948987   -0.929774   -2.921949
     29          1           0       -1.933069   -1.738899   -2.205789
     30          6           0       -1.942151    1.019253   -4.046878
     31          6           0       -2.058723   -0.047868   -4.988557
     32          6           0       -1.928488    2.345417   -4.525067
     33          1           0       -1.862414    3.180857   -3.832707
     34          7           0       -2.052837   -1.219850   -4.269891
     35          1           0       -2.152951   -2.147538   -4.653856
     36          6           0       -2.138062    1.505071   -6.805463
     37          1           0       -2.228770    1.715346   -7.867193
     38          6           0       -2.157856    0.181268   -6.368113
     39          1           0       -2.269895   -0.640398   -7.070707
     40          6           0       -2.021372    2.575229   -5.893954
     41          1           0       -2.020085    3.594264   -6.268973
     42          7           0        0.784793   -0.852523    0.318325
     43          1           0        0.157323   -1.321349    0.970549
     44          6           0        2.159620   -0.915313    0.800029
     45          1           0        2.380958    0.034260    1.305072
     46          6           0        3.138781   -1.130954   -0.355526
     47          6           0        2.201413   -2.047689    1.875187
     48          1           0        2.160635   -3.011291    1.353306
     49          8           0        2.898083   -1.850018   -1.317237
     50          6           0        3.457846   -1.970719    2.739229
     51          1           0        4.370419   -2.065100    2.140125
     52          1           0        3.442064   -2.780276    3.474216
     53          1           0        3.489989   -1.018688    3.282536
     54          8           0        1.018324   -1.976959    2.657598
     55          1           0        0.943057   -1.038982    2.990807
     56          7           0        4.314538   -0.442749   -0.218509
     57          1           0        4.399911    0.231193    0.530975
     58          6           0        5.199279   -0.260562   -1.359104
     59          1           0        5.379310   -1.235104   -1.821641
     60          6           0        6.555392    0.295981   -0.953000
     61          6           0        4.496379    0.661189   -2.390270
     62          1           0        4.203938    1.582539   -1.867939
     63          1           0        3.579560    0.119900   -2.643980
     64          8           0        7.522109    0.296439   -1.679902
     65          6           0        5.257180    1.019029   -3.665969
     66          1           0        6.148780    1.610875   -3.435081
     67          1           0        5.616007    0.117007   -4.177543
     68          6           0        4.378391    1.839370   -4.618406
     69          1           0        3.871362    2.650702   -4.086893
     70          1           0        4.990757    2.299559   -5.400911
     71          7           0        3.343377    1.051470   -5.314379
     72          1           0        3.656352    0.515554   -6.113859
     73          7           0        1.467547    1.473429   -3.968309
     74          1           0        0.455198    1.545874   -3.923291
     75          1           0        1.904554    1.312570   -3.063530
     76          7           0        1.220237    0.692561   -6.135205
     77          1           0        1.547003    0.765003   -7.088209
     78          1           0        0.219778    0.567960   -6.007456
     79          6           0        2.015022    1.074003   -5.118987
     80          8           0        6.552676    0.845266    0.282745
     81          1           0        7.452274    1.188425    0.446672
 ---------------------------------------------------------------------

 SCF Done:  E(RB3LYP) =  -2053.92882680     A.U. after    1 cycles

 Alpha  occ. eigenvalues --  -19.28480 -19.24268 -19.22341 -19.21169 -19.19160
 Alpha  occ. eigenvalues --  -19.18856 -19.15132 -19.13998 -14.57422 -14.50588
 Alpha  occ. eigenvalues --  -14.49938 -14.48831 -14.47734 -14.46792 -14.43826
 Alpha  occ. eigenvalues --  -14.43704 -10.46409 -10.40875 -10.40708 -10.37898
 Alpha  occ. eigenvalues --  -10.36599 -10.36131 -10.34507 -10.33486 -10.32770
 Alpha  occ. eigenvalues --  -10.32573 -10.32243 -10.31528 -10.30394 -10.30011
 Alpha  occ. eigenvalues --  -10.29840 -10.29302 -10.28826 -10.28743 -10.28692
 Alpha  occ. eigenvalues --  -10.28689 -10.28486 -10.28205 -10.28168 -10.28124
 Alpha  occ. eigenvalues --  -10.25346 -10.23284  -1.19205  -1.16442  -1.14703
 Alpha  occ. eigenvalues --   -1.12546  -1.11179  -1.10794  -1.10147  -1.07962
 Alpha  occ. eigenvalues --   -1.07776  -1.07026  -1.04265  -1.03366  -1.02446
 Alpha  occ. eigenvalues --   -1.00606  -1.00194  -0.99060  -0.94018  -0.90965
 Alpha  occ. eigenvalues --   -0.90202  -0.89633  -0.86444  -0.85423  -0.83572
 Alpha  occ. eigenvalues --   -0.83166  -0.81772  -0.80467  -0.79486  -0.78009
 Alpha  occ. eigenvalues --   -0.76354  -0.75161  -0.73462  -0.72481  -0.72213
 Alpha  occ. eigenvalues --   -0.71541  -0.71086  -0.69565  -0.69487  -0.68357
 Alpha  occ. eigenvalues --   -0.68136  -0.67767  -0.67558  -0.66836  -0.65253
 Alpha  occ. eigenvalues --   -0.64999  -0.64015  -0.63537  -0.63415  -0.62614
 Alpha  occ. eigenvalues --   -0.61082  -0.60585  -0.59690  -0.59085  -0.58700
 Alpha  occ. eigenvalues --   -0.57632  -0.57141  -0.56956  -0.56816  -0.56152
 Alpha  occ. eigenvalues --   -0.55909  -0.55479  -0.55392  -0.54870  -0.54640
 Alpha  occ. eigenvalues --   -0.53755  -0.53105  -0.52952  -0.52655  -0.52303
 Alpha  occ. eigenvalues --   -0.52224  -0.51113  -0.50962  -0.50798  -0.50302
 Alpha  occ. eigenvalues --   -0.50175  -0.49427  -0.49147  -0.48865  -0.48323
 Alpha  occ. eigenvalues --   -0.47841  -0.47654  -0.47339  -0.47121  -0.46829
 Alpha  occ. eigenvalues --   -0.46552  -0.46140  -0.45803  -0.45478  -0.45001
 Alpha  occ. eigenvalues --   -0.44715  -0.44427  -0.43688  -0.43524  -0.43406
 Alpha  occ. eigenvalues --   -0.43259  -0.42704  -0.42411  -0.41313  -0.41153
 Alpha  occ. eigenvalues --   -0.40254  -0.39087  -0.38697  -0.37772  -0.37506
 Alpha  occ. eigenvalues --   -0.36883  -0.36283  -0.35298  -0.34408  -0.33248
 Alpha  occ. eigenvalues --   -0.32766  -0.32487  -0.31967  -0.30734  -0.30130
 Alpha  occ. eigenvalues --   -0.29257  -0.28024
 Alpha virt. eigenvalues --   -0.11381  -0.11289  -0.10195  -0.08359  -0.08277
 Alpha virt. eigenvalues --   -0.07882  -0.07367  -0.05858  -0.05649  -0.03605
 Alpha virt. eigenvalues --   -0.03024  -0.01806  -0.01440  -0.01040  -0.00867

 Mulliken charges:
               1
     1  N   -0.757316
     2  H    0.411830
     3  H    0.422548
     4  H    0.409795
     5  C   -0.124539
     6  H    0.250163
     7  C    0.641784
     8  C   -0.282279
     9  H    0.180565
    10  H    0.156141
    11  O   -0.559347
    12  C   -0.364082
    13  H    0.150487
    14  H    0.183147
    15  C    0.559935
    16  O   -0.621365
    17  O   -0.536091
    18  N   -0.663635
    19  H    0.414598
    20  C   -0.036822
    21  H    0.175222
    22  C    0.611625
    23  C   -0.347066
    24  H    0.161312
    25  H    0.193678
    26  O   -0.565231
    27  C    0.085899
    28  C    0.007958
    29  H    0.175287
    30  C    0.003706
    31  C    0.322885
    32  C   -0.230462
    33  H    0.147767
    34  N   -0.689037
    35  H    0.345817
    36  C   -0.162630
    37  H    0.152776
    38  C   -0.212174
    39  H    0.151248
    40  C   -0.139025
    41  H    0.149564
    42  N   -0.586727
    43  H    0.354766
    44  C   -0.085061
    45  H    0.181876
    46  C    0.646754
    47  C    0.125268
    48  H    0.156598
    49  O   -0.534891
    50  C   -0.474397
    51  H    0.149920
    52  H    0.174836
    53  H    0.162422
    54  O   -0.678269
    55  H    0.438866
    56  N   -0.613209
    57  H    0.355402
    58  C   -0.042931
    59  H    0.208874
    60  C    0.593827
    61  C   -0.304704
    62  H    0.152653
    63  H    0.180672
    64  O   -0.454021
    65  C   -0.262470
    66  H    0.184241
    67  H    0.162065
    68  C   -0.173675
    69  H    0.187121
    70  H    0.187134
    71  N   -0.590882
    72  H    0.358467
    73  N   -0.778912
    74  H    0.391446
    75  H    0.421962
    76  N   -0.775899
    77  H    0.365743
    78  H    0.401067
    79  C    0.783482
    80  O   -0.572589
    81  H    0.428540
 Sum of Mulliken charges =   1.00000

 Dipole moment (field-independent basis, Debye):
    X=             -4.0876    Y=              7.9304    Z=            -14.5370  Tot=             17.0565
 Quadrupole moment (field-independent basis, Debye-Ang):
   XX=           -157.9364   YY=           -217.4309   ZZ=           -113.7591
   XY=            -11.3289   XZ=            -58.5141   YZ=             -2.5714

 Normal termination of Gaussian 16 at Thu May 26 18:13:23 2022.
