 Gaussian 16, Revision C.01,
 Gaussian 16:  ES64L-G16RevC.01  3-Jul-2019

 -------------------------------------------------------------------
 # B3LYP/6-31G* guess=read geom=check nosymm integral(ultrafinegrid)
 -------------------------------------------------------------------

 ------------------------------------------------------
 Candidate Structure: Conf:474 Charge calc in gas phase
 ------------------------------------------------------
 Structure from the checkpoint file:  "conf-474.chk"
 Charge =  1 Multiplicity = 1

                          Input orientation:
 ---------------------------------------------------------------------
 Center     Atomic      Atomic             Coordinates (Angstroms)
 Number     Number       Type             X           Y           Z
 ---------------------------------------------------------------------
      1          7           0       -5.303173    2.385749    3.656377
      2          1           0       -6.200938    2.279390    3.183995
      3          1           0       -5.217829    1.568455    4.262998
      4          1           0       -5.054711    4.286375    4.013646
      5          6           0       -4.216883    2.364640    2.673988
      6          1           0       -4.372274    3.225609    2.012360
      7          6           0       -4.101120    1.097343    1.814320
      8          6           0       -2.859761    2.505448    3.400042
      9          1           0       -2.691171    1.601093    3.995375
     10          1           0       -2.067874    2.532923    2.643434
     11          8           0       -4.283386   -0.014984    2.283366
     12          6           0       -2.758445    3.738990    4.327511
     13          1           0       -1.714815    3.924549    4.594547
     14          1           0       -3.316585    3.558204    5.250219
     15          6           0       -3.309646    4.966964    3.630800
     16          8           0       -4.626369    5.131622    3.679718
     17          8           0       -2.616874    5.735962    2.976718
     18          7           0       -3.685391    1.349713    0.530215
     19          1           0       -3.427482    2.308272    0.324787
     20          6           0       -2.903884    0.387628   -0.225582
     21          1           0       -3.014810   -0.578527    0.274804
     22          6           0       -1.426845    0.831478   -0.175585
     23          6           0       -3.397100    0.272093   -1.698559
     24          1           0       -2.665081   -0.316113   -2.267100
     25          1           0       -3.383444    1.276386   -2.140406
     26          8           0       -1.099433    1.998681    0.091102
     27          6           0       -4.758818   -0.337999   -1.817022
     28          6           0       -5.941867    0.321993   -2.039002
     29          1           0       -6.123404    1.377512   -2.190406
     30          6           0       -5.087533   -1.738706   -1.694645
     31          6           0       -6.494450   -1.852942   -1.854155
     32          6           0       -4.334299   -2.906616   -1.482163
     33          1           0       -3.253392   -2.860543   -1.368117
     34          7           0       -6.987169   -0.577411   -2.052795
     35          1           0       -7.946327   -0.350473   -2.264203
     36          6           0       -6.384150   -4.218337   -1.590265
     37          1           0       -6.866264   -5.190508   -1.546944
     38          6           0       -7.156663   -3.083356   -1.804533
     39          1           0       -8.233783   -3.151751   -1.930561
     40          6           0       -4.985990   -4.131608   -1.432058
     41          1           0       -4.412504   -5.039785   -1.270968
     42          7           0       -0.528930   -0.139514   -0.428866
     43          1           0       -0.845973   -1.020010   -0.824025
     44          6           0        0.892589    0.099308   -0.583655
     45          1           0        1.302959    0.497333    0.351537
     46          6           0        1.178639    1.062192   -1.742873
     47          6           0        1.566751   -1.270748   -0.925734
     48          1           0        2.577854   -1.059705   -1.300713
     49          8           0        0.599584    0.956916   -2.815950
     50          6           0        1.654349   -2.198849    0.278999
     51          1           0        2.300271   -1.771084    1.052752
     52          1           0        2.075326   -3.157825   -0.034453
     53          1           0        0.666605   -2.384886    0.712756
     54          8           0        0.791438   -1.928180   -1.920721
     55          1           0        0.782265   -1.361300   -2.714078
     56          7           0        2.165281    1.995925   -1.504345
     57          1           0        2.779015    1.773910   -0.727533
     58          6           0        2.824478    2.623844   -2.642336
     59          1           0        2.057134    2.758080   -3.409731
     60          6           0        3.879210    1.664691   -3.211840
     61          6           0        3.457492    3.988642   -2.309543
     62          1           0        3.913285    4.356025   -3.233315
     63          1           0        4.290617    3.845968   -1.605355
     64          8           0        4.224226    0.633255   -2.680305
     65          6           0        2.498774    5.064588   -1.764947
     66          1           0        2.906799    6.054312   -2.003853
     67          1           0        1.524197    4.996207   -2.261873
     68          6           0        2.301639    4.955917   -0.244430
     69          1           0        1.912156    3.971912    0.017586
     70          1           0        3.264938    5.069714    0.269828
     71          7           0        1.378247    5.959138    0.293694
     72          1           0        1.682230    6.920805    0.212647
     73          7           0       -0.336513    4.587203    1.142622
     74          1           0       -1.143499    4.553156    1.753074
     75          1           0       -0.255034    3.807317    0.493171
     76          7           0       -0.202658    6.789495    1.764005
     77          1           0        0.344251    7.621044    1.928571
     78          1           0       -1.067521    6.651770    2.290045
     79          6           0        0.289466    5.764967    1.054127
     80          8           0        4.387062    2.123140   -4.369146
     81          1           0        5.050291    1.475269   -4.675757
 ---------------------------------------------------------------------

 SCF Done:  E(RB3LYP) =  -2053.97360102     A.U. after    1 cycles

 Alpha  occ. eigenvalues --  -19.29642 -19.28097 -19.24361 -19.24236 -19.23632
 Alpha  occ. eigenvalues --  -19.23055 -19.22733 -19.20469 -14.51373 -14.49738
 Alpha  occ. eigenvalues --  -14.49335 -14.47076 -14.46243 -14.44609 -14.43770
 Alpha  occ. eigenvalues --  -14.43629 -10.46982 -10.42450 -10.42121 -10.39476
 Alpha  occ. eigenvalues --  -10.39275 -10.37321 -10.35702 -10.34469 -10.33719
 Alpha  occ. eigenvalues --  -10.33511 -10.32803 -10.32173 -10.31021 -10.30793
 Alpha  occ. eigenvalues --  -10.30318 -10.30268 -10.28030 -10.27579 -10.27353
 Alpha  occ. eigenvalues --  -10.26067 -10.24401 -10.24145 -10.24088 -10.23971
 Alpha  occ. eigenvalues --  -10.23573 -10.23269  -1.20673  -1.19732  -1.15350
 Alpha  occ. eigenvalues --   -1.15058  -1.13956  -1.12256  -1.11797  -1.11432
 Alpha  occ. eigenvalues --   -1.11183  -1.05229  -1.03648  -1.03633  -1.02811
 Alpha  occ. eigenvalues --   -1.02519  -1.01528  -1.00110  -0.92054  -0.89736
 Alpha  occ. eigenvalues --   -0.89263  -0.88603  -0.87293  -0.86048  -0.83449
 Alpha  occ. eigenvalues --   -0.81385  -0.80600  -0.79730  -0.78856  -0.77546
 Alpha  occ. eigenvalues --   -0.77033  -0.74416  -0.73398  -0.72867  -0.72279
 Alpha  occ. eigenvalues --   -0.71438  -0.70167  -0.69387  -0.68849  -0.68601
 Alpha  occ. eigenvalues --   -0.68096  -0.67717  -0.67019  -0.64819  -0.64144
 Alpha  occ. eigenvalues --   -0.64026  -0.62916  -0.62630  -0.61861  -0.61522
 Alpha  occ. eigenvalues --   -0.61070  -0.60862  -0.60701  -0.60602  -0.59434
 Alpha  occ. eigenvalues --   -0.58950  -0.58758  -0.58299  -0.57682  -0.56650
 Alpha  occ. eigenvalues --   -0.56215  -0.55832  -0.55113  -0.54822  -0.54402
 Alpha  occ. eigenvalues --   -0.54332  -0.53835  -0.53636  -0.53100  -0.52696
 Alpha  occ. eigenvalues --   -0.52532  -0.52016  -0.51883  -0.51243  -0.50793
 Alpha  occ. eigenvalues --   -0.50356  -0.49942  -0.49516  -0.48843  -0.48713
 Alpha  occ. eigenvalues --   -0.48512  -0.48204  -0.48125  -0.47796  -0.47540
 Alpha  occ. eigenvalues --   -0.46997  -0.46744  -0.46223  -0.46147  -0.45766
 Alpha  occ. eigenvalues --   -0.45705  -0.45481  -0.45060  -0.44808  -0.43857
 Alpha  occ. eigenvalues --   -0.43437  -0.42369  -0.41824  -0.41368  -0.40996
 Alpha  occ. eigenvalues --   -0.40715  -0.39803  -0.38985  -0.38640  -0.38358
 Alpha  occ. eigenvalues --   -0.37953  -0.37887  -0.37749  -0.37210  -0.36566
 Alpha  occ. eigenvalues --   -0.36500  -0.34957  -0.34715  -0.33374  -0.32700
 Alpha  occ. eigenvalues --   -0.27645  -0.25989
 Alpha virt. eigenvalues --   -0.10857  -0.09879  -0.09371  -0.09189  -0.08327
 Alpha virt. eigenvalues --   -0.07170  -0.06719  -0.06430  -0.04269  -0.03193
 Alpha virt. eigenvalues --   -0.02660  -0.01987  -0.01827  -0.01336  -0.00598

 Mulliken charges:
               1
     1  N   -0.751941
     2  H    0.339425
     3  H    0.341078
     4  H    0.452583
     5  C   -0.106487
     6  H    0.159365
     7  C    0.598058
     8  C   -0.297909
     9  H    0.187398
    10  H    0.162968
    11  O   -0.496783
    12  C   -0.367294
    13  H    0.176632
    14  H    0.188434
    15  C    0.602180
    16  O   -0.558350
    17  O   -0.507651
    18  N   -0.566749
    19  H    0.326398
    20  C   -0.101300
    21  H    0.209716
    22  C    0.655438
    23  C   -0.371060
    24  H    0.165852
    25  H    0.152069
    26  O   -0.592538
    27  C    0.086173
    28  C    0.005240
    29  H    0.146490
    30  C    0.092774
    31  C    0.312796
    32  C   -0.210823
    33  H    0.108729
    34  N   -0.689397
    35  H    0.334201
    36  C   -0.149613
    37  H    0.136741
    38  C   -0.158530
    39  H    0.133099
    40  C   -0.136369
    41  H    0.130908
    42  N   -0.593651
    43  H    0.368216
    44  C   -0.067014
    45  H    0.152918
    46  C    0.634058
    47  C    0.077042
    48  H    0.174127
    49  O   -0.518982
    50  C   -0.449178
    51  H    0.150474
    52  H    0.189014
    53  H    0.162897
    54  O   -0.622884
    55  H    0.417950
    56  N   -0.602816
    57  H    0.335720
    58  C   -0.062891
    59  H    0.219734
    60  C    0.593577
    61  C   -0.303101
    62  H    0.198465
    63  H    0.150674
    64  O   -0.458532
    65  C   -0.265932
    66  H    0.161032
    67  H    0.171044
    68  C   -0.158053
    69  H    0.186059
    70  H    0.180843
    71  N   -0.608420
    72  H    0.353828
    73  N   -0.801840
    74  H    0.385142
    75  H    0.412674
    76  N   -0.784621
    77  H    0.365643
    78  H    0.429277
    79  C    0.809440
    80  O   -0.555199
    81  H    0.431319
 Sum of Mulliken charges =   1.00000

 Dipole moment (field-independent basis, Debye):
    X=              0.5561    Y=             19.8425    Z=              2.5226  Tot=             20.0100
 Quadrupole moment (field-independent basis, Debye-Ang):
   XX=           -154.7662   YY=           -133.2170   ZZ=           -209.3295
   XY=             22.4204   XZ=            -16.9997   YZ=             15.7804

 Normal termination of Gaussian 16 at Thu May 26 18:13:19 2022.
