 Gaussian 16, Revision C.01,
 Gaussian 16:  ES64L-G16RevC.01  3-Jul-2019

 -------------------------------------------------------------------
 # B3LYP/6-31G* guess=read geom=check nosymm integral(ultrafinegrid)
 -------------------------------------------------------------------

 ------------------------------------------------------
 Candidate Structure: Conf:472 Charge calc in gas phase
 ------------------------------------------------------
 Structure from the checkpoint file:  "conf-472.chk"
 Charge =  1 Multiplicity = 1

                          Input orientation:
 ---------------------------------------------------------------------
 Center     Atomic      Atomic             Coordinates (Angstroms)
 Number     Number       Type             X           Y           Z
 ---------------------------------------------------------------------
      1          7           0       -2.417347    4.774208    2.258917
      2          1           0       -3.108403    4.750815    1.487426
      3          1           0       -2.799633    4.157869    3.015501
      4          1           0       -2.272915    5.735498    2.576585
      5          6           0       -1.140525    4.068247    1.846284
      6          1           0       -0.977601    4.230446    0.782396
      7          6           0       -1.493999    2.587735    2.124688
      8          6           0        0.047797    4.604739    2.659526
      9          1           0        0.143073    5.680550    2.454080
     10          1           0       -0.170891    4.494553    3.730211
     11          8           0       -2.385134    2.348320    2.959412
     12          6           0        1.391853    3.912851    2.349279
     13          1           0        1.349277    2.866262    2.674162
     14          1           0        2.176083    4.404072    2.930103
     15          6           0        1.776964    3.923416    0.858527
     16          8           0        0.956977    3.435717    0.029111
     17          8           0        2.901813    4.412661    0.554166
     18          7           0       -0.831005    1.696828    1.398802
     19          1           0       -0.097864    2.055010    0.765842
     20          6           0       -1.210146    0.289398    1.333470
     21          1           0       -1.273882   -0.106561    2.355500
     22          6           0       -0.036068   -0.438067    0.647586
     23          6           0       -2.611683    0.127564    0.667988
     24          1           0       -3.349134    0.430714    1.416322
     25          1           0       -2.812811   -0.934384    0.484606
     26          8           0        1.086505    0.061765    0.628733
     27          6           0       -2.799217    0.957256   -0.573899
     28          6           0       -2.260942    0.745936   -1.822013
     29          1           0       -1.637865   -0.060838   -2.186778
     30          6           0       -3.521300    2.204704   -0.651172
     31          6           0       -3.367943    2.703266   -1.976173
     32          6           0       -4.302362    2.944432    0.258987
     33          1           0       -4.488084    2.562022    1.259255
     34          7           0       -2.596089    1.792078   -2.659579
     35          1           0       -2.365953    1.837480   -3.640679
     36          6           0       -4.673728    4.637173   -1.466242
     37          1           0       -5.135765    5.573819   -1.763788
     38          6           0       -3.934500    3.914059   -2.393502
     39          1           0       -3.806976    4.275311   -3.410369
     40          6           0       -4.863954    4.154044   -0.151132
     41          1           0       -5.515391    4.703295    0.525767
     42          7           0       -0.290221   -1.663985    0.123245
     43          1           0       -1.235941   -1.969003   -0.075468
     44          6           0        0.732214   -2.371418   -0.637605
     45          1           0        1.601439   -2.550568    0.003509
     46          6           0        1.135726   -1.534921   -1.865087
     47          6           0        0.127903   -3.720727   -1.116466
     48          1           0        0.823393   -4.148097   -1.855177
     49          8           0        0.311111   -1.280285   -2.755549
     50          6           0       -0.069719   -4.719821    0.016240
     51          1           0        0.891154   -4.996683    0.462232
     52          1           0       -0.545159   -5.622723   -0.376831
     53          1           0       -0.712356   -4.309012    0.801425
     54          8           0       -1.141045   -3.475500   -1.712724
     55          1           0       -0.979271   -2.830873   -2.430413
     56          7           0        2.424896   -1.145048   -1.921799
     57          1           0        3.008426   -1.247443   -1.099723
     58          6           0        2.920818   -0.233878   -2.941998
     59          1           0        2.420650   -0.473054   -3.883503
     60          6           0        4.418106   -0.485530   -3.069292
     61          6           0        2.629663    1.239691   -2.548725
     62          1           0        3.184732    1.471063   -1.632345
     63          1           0        1.568548    1.293288   -2.284593
     64          8           0        5.120480   -0.868620   -2.160696
     65          6           0        2.938944    2.267493   -3.644154
     66          1           0        3.996288    2.219152   -3.932664
     67          1           0        2.363525    2.030499   -4.549109
     68          6           0        2.576006    3.702249   -3.223356
     69          1           0        2.678562    4.390011   -4.073455
     70          1           0        1.532245    3.744057   -2.899188
     71          7           0        3.350918    4.204747   -2.091938
     72          1           0        2.950080    4.149931   -1.122068
     73          7           0        5.274196    4.852941   -3.273578
     74          1           0        5.980207    5.571489   -3.352255
     75          1           0        4.871853    4.536884   -4.143245
     76          7           0        5.033214    5.339610   -1.011193
     77          1           0        4.491146    5.185590   -0.157344
     78          1           0        6.032701    5.452516   -0.919284
     79          6           0        4.536979    4.785721   -2.136735
     80          8           0        4.884965   -0.193384   -4.301293
     81          1           0        5.846645   -0.367543   -4.285939
 ---------------------------------------------------------------------

 SCF Done:  E(RB3LYP) =  -2053.97967903     A.U. after    1 cycles

 Alpha  occ. eigenvalues --  -19.29047 -19.23217 -19.22678 -19.21495 -19.20959
 Alpha  occ. eigenvalues --  -19.20304 -19.18090 -19.17556 -14.56113 -14.49011
 Alpha  occ. eigenvalues --  -14.46797 -14.46505 -14.46162 -14.45103 -14.44990
 Alpha  occ. eigenvalues --  -14.44490 -10.44019 -10.41224 -10.39260 -10.37741
 Alpha  occ. eigenvalues --  -10.37541 -10.35857 -10.35846 -10.33067 -10.32912
 Alpha  occ. eigenvalues --  -10.32604 -10.32000 -10.31635 -10.30708 -10.30331
 Alpha  occ. eigenvalues --  -10.29589 -10.28755 -10.28090 -10.27947 -10.27531
 Alpha  occ. eigenvalues --  -10.27482 -10.27231 -10.27112 -10.27049 -10.26931
 Alpha  occ. eigenvalues --  -10.26397 -10.24565  -1.19865  -1.14995  -1.13123
 Alpha  occ. eigenvalues --   -1.12749  -1.11990  -1.10944  -1.10908  -1.09964
 Alpha  occ. eigenvalues --   -1.09124  -1.06056  -1.02613  -1.02068  -1.01779
 Alpha  occ. eigenvalues --   -1.01491  -1.00756  -1.00735  -0.92413  -0.90582
 Alpha  occ. eigenvalues --   -0.89704  -0.88615  -0.86305  -0.84785  -0.83757
 Alpha  occ. eigenvalues --   -0.82171  -0.81331  -0.80051  -0.79088  -0.77772
 Alpha  occ. eigenvalues --   -0.75803  -0.74687  -0.73635  -0.72028  -0.70653
 Alpha  occ. eigenvalues --   -0.70303  -0.69805  -0.69270  -0.68395  -0.68061
 Alpha  occ. eigenvalues --   -0.67502  -0.67318  -0.66997  -0.66778  -0.65721
 Alpha  occ. eigenvalues --   -0.64005  -0.63059  -0.62089  -0.61741  -0.61232
 Alpha  occ. eigenvalues --   -0.60683  -0.59856  -0.59526  -0.58399  -0.58117
 Alpha  occ. eigenvalues --   -0.57617  -0.57213  -0.56983  -0.56647  -0.56303
 Alpha  occ. eigenvalues --   -0.56265  -0.55775  -0.55485  -0.54600  -0.54493
 Alpha  occ. eigenvalues --   -0.53708  -0.53185  -0.52559  -0.52190  -0.51697
 Alpha  occ. eigenvalues --   -0.51528  -0.51449  -0.51002  -0.50549  -0.50083
 Alpha  occ. eigenvalues --   -0.49885  -0.49864  -0.49580  -0.49353  -0.48735
 Alpha  occ. eigenvalues --   -0.48679  -0.48081  -0.47844  -0.47658  -0.47168
 Alpha  occ. eigenvalues --   -0.46505  -0.46007  -0.45785  -0.45400  -0.45054
 Alpha  occ. eigenvalues --   -0.44859  -0.44051  -0.43961  -0.43673  -0.43584
 Alpha  occ. eigenvalues --   -0.43473  -0.43254  -0.42015  -0.41773  -0.40922
 Alpha  occ. eigenvalues --   -0.40836  -0.39707  -0.37154  -0.37081  -0.36672
 Alpha  occ. eigenvalues --   -0.36054  -0.35954  -0.35390  -0.34987  -0.34818
 Alpha  occ. eigenvalues --   -0.33801  -0.33259  -0.32775  -0.32643  -0.31870
 Alpha  occ. eigenvalues --   -0.30927  -0.28607
 Alpha virt. eigenvalues --   -0.09894  -0.08932  -0.08682  -0.08395  -0.07349
 Alpha virt. eigenvalues --   -0.07194  -0.06063  -0.06011  -0.05171  -0.03237
 Alpha virt. eigenvalues --   -0.02439  -0.01435  -0.01096  -0.00941   0.00003

 Mulliken charges:
               1
     1  N   -0.760391
     2  H    0.404936
     3  H    0.414122
     4  H    0.396836
     5  C   -0.114221
     6  H    0.239937
     7  C    0.641862
     8  C   -0.295122
     9  H    0.160429
    10  H    0.168092
    11  O   -0.570578
    12  C   -0.364216
    13  H    0.186217
    14  H    0.171845
    15  C    0.633282
    16  O   -0.597615
    17  O   -0.623682
    18  N   -0.618575
    19  H    0.417055
    20  C   -0.025020
    21  H    0.202454
    22  C    0.615918
    23  C   -0.416746
    24  H    0.190140
    25  H    0.168163
    26  O   -0.531303
    27  C    0.071831
    28  C   -0.005763
    29  H    0.201077
    30  C    0.084002
    31  C    0.319102
    32  C   -0.264760
    33  H    0.157845
    34  N   -0.692825
    35  H    0.338787
    36  C   -0.151579
    37  H    0.144415
    38  C   -0.156528
    39  H    0.141829
    40  C   -0.190126
    41  H    0.138209
    42  N   -0.622038
    43  H    0.358789
    44  C   -0.058717
    45  H    0.165778
    46  C    0.655785
    47  C    0.097285
    48  H    0.145675
    49  O   -0.571027
    50  C   -0.449908
    51  H    0.154916
    52  H    0.181428
    53  H    0.156452
    54  O   -0.639587
    55  H    0.419046
    56  N   -0.587552
    57  H    0.364180
    58  C   -0.044960
    59  H    0.198194
    60  C    0.585193
    61  C   -0.270443
    62  H    0.174172
    63  H    0.186710
    64  O   -0.455299
    65  C   -0.278775
    66  H    0.148367
    67  H    0.158986
    68  C   -0.180195
    69  H    0.153209
    70  H    0.198008
    71  N   -0.608072
    72  H    0.433672
    73  N   -0.757957
    74  H    0.368649
    75  H    0.371777
    76  N   -0.776600
    77  H    0.419255
    78  H    0.356836
    79  C    0.759586
    80  O   -0.562783
    81  H    0.422631
 Sum of Mulliken charges =   1.00000

 Dipole moment (field-independent basis, Debye):
    X=              6.4931    Y=             19.5716    Z=             -5.6679  Tot=             21.3854
 Quadrupole moment (field-independent basis, Debye-Ang):
   XX=           -156.3711   YY=           -118.5159   ZZ=           -184.3422
   XY=             18.7740   XZ=            -53.1959   YZ=            -12.7889

 Normal termination of Gaussian 16 at Thu May 26 18:13:23 2022.
