 Gaussian 16, Revision C.01,
 Gaussian 16:  ES64L-G16RevC.01  3-Jul-2019

 -------------------------------------------------------------------
 # B3LYP/6-31G* guess=read geom=check nosymm integral(ultrafinegrid)
 -------------------------------------------------------------------

 ------------------------------------------------------
 Candidate Structure: Conf:669 Charge calc in gas phase
 ------------------------------------------------------
 Structure from the checkpoint file:  "conf-669.chk"
 Charge =  1 Multiplicity = 1

                          Input orientation:
 ---------------------------------------------------------------------
 Center     Atomic      Atomic             Coordinates (Angstroms)
 Number     Number       Type             X           Y           Z
 ---------------------------------------------------------------------
      1          7           0       -2.970008   -3.437411   -1.235914
      2          1           0       -3.348177   -4.054319   -0.509216
      3          1           0       -3.778960   -2.878957   -1.649905
      4          1           0       -2.488012   -3.995451   -1.946927
      5          6           0       -2.103288   -2.335409   -0.656748
      6          1           0       -1.775276   -2.666798    0.331516
      7          6           0       -3.081423   -1.126328   -0.575118
      8          6           0       -0.926415   -1.953105   -1.556376
      9          1           0       -1.296839   -1.505037   -2.486341
     10          1           0       -0.406951   -1.148207   -1.031390
     11          8           0       -4.145406   -1.199180   -1.207193
     12          6           0        0.125381   -3.026191   -1.880297
     13          1           0       -0.203701   -3.744641   -2.640025
     14          1           0        0.406663   -3.583078   -0.976926
     15          6           0        1.393143   -2.294371   -2.350122
     16          8           0        1.892970   -2.760785   -3.484835
     17          8           0        1.846013   -1.361953   -1.711936
     18          7           0       -2.642813   -0.066986    0.099242
     19          1           0       -1.692389   -0.068680    0.479111
     20          6           0       -3.305462    1.253971    0.079252
     21          1           0       -3.955751    1.268281   -0.800629
     22          6           0       -2.114890    2.243155   -0.073718
     23          6           0       -4.136105    1.507215    1.354041
     24          1           0       -4.560436    2.513962    1.264703
     25          1           0       -3.456232    1.546621    2.212646
     26          8           0       -1.810363    3.050609    0.800755
     27          6           0       -5.231123    0.495320    1.560514
     28          6           0       -6.550919    0.664067    1.218022
     29          1           0       -7.049646    1.534475    0.813939
     30          6           0       -5.117021   -0.857304    2.061423
     31          6           0       -6.408635   -1.451409    1.964610
     32          6           0       -4.067134   -1.633889    2.590492
     33          1           0       -3.081386   -1.200026    2.736071
     34          7           0       -7.257843   -0.497090    1.449573
     35          1           0       -8.253294   -0.603994    1.326520
     36          6           0       -5.593691   -3.523333    2.827424
     37          1           0       -5.759453   -4.550911    3.139056
     38          6           0       -6.659201   -2.776662    2.338449
     39          1           0       -7.654104   -3.206439    2.256712
     40          6           0       -4.308307   -2.953837    2.959301
     41          1           0       -3.506603   -3.545888    3.394164
     42          7           0       -1.371117    1.979095   -1.173694
     43          1           0       -1.711572    1.315550   -1.866466
     44          6           0        0.046144    2.224286   -1.322284
     45          1           0        0.244640    3.302192   -1.353491
     46          6           0        0.413300    1.579493   -2.685015
     47          6           0        0.926719    1.573126   -0.152045
     48          1           0        1.490256    0.734055   -0.564480
     49          8           0       -0.407488    0.858882   -3.266294
     50          6           0        1.881740    2.607633    0.438994
     51          1           0        2.535795    3.036977   -0.330157
     52          1           0        2.514243    2.147077    1.202998
     53          1           0        1.319512    3.435354    0.891433
     54          8           0        0.126817    0.971691    0.872212
     55          1           0       -0.263914    1.705978    1.382693
     56          7           0        1.638705    1.854517   -3.168834
     57          1           0        2.333721    2.281341   -2.563462
     58          6           0        2.211544    1.174587   -4.334935
     59          1           0        1.438871    0.523754   -4.743502
     60          6           0        3.443889    0.350046   -3.873067
     61          6           0        2.657569    2.229721   -5.378099
     62          1           0        3.510857    2.774311   -4.952766
     63          1           0        1.845108    2.958117   -5.485679
     64          8           0        4.260183    0.897568   -3.132642
     65          6           0        2.998078    1.720342   -6.792656
     66          1           0        2.117501    1.241215   -7.238551
     67          1           0        3.202533    2.603134   -7.417728
     68          6           0        4.156057    0.722902   -6.951556
     69          1           0        3.928118   -0.214260   -6.451002
     70          1           0        4.301602    0.517464   -8.020232
     71          7           0        5.417072    1.249786   -6.394382
     72          1           0        5.618353    2.222483   -6.591294
     73          7           0        6.120212   -0.640965   -5.198314
     74          1           0        6.912481   -1.118995   -4.791183
     75          1           0        5.162816   -0.917357   -4.817880
     76          7           0        7.581590    1.117375   -5.584647
     77          1           0        7.837924    1.948897   -6.096479
     78          1           0        8.155208    0.883894   -4.787161
     79          6           0        6.347947    0.566325   -5.709155
     80          8           0        3.557892   -0.821513   -4.430638
     81          1           0        2.599700   -2.086446   -3.848355
 ---------------------------------------------------------------------

 SCF Done:  E(RB3LYP) =  -2053.94127757     A.U. after    1 cycles

 Alpha  occ. eigenvalues --  -19.24771 -19.24689 -19.23553 -19.20500 -19.20122
 Alpha  occ. eigenvalues --  -19.20003 -19.17581 -19.16512 -14.58427 -14.48354
 Alpha  occ. eigenvalues --  -14.48343 -14.47423 -14.45368 -14.44963 -14.43750
 Alpha  occ. eigenvalues --  -14.43452 -10.43976 -10.41401 -10.39279 -10.38676
 Alpha  occ. eigenvalues --  -10.37333 -10.37101 -10.34595 -10.32621 -10.31995
 Alpha  occ. eigenvalues --  -10.31469 -10.31320 -10.31159 -10.30195 -10.29187
 Alpha  occ. eigenvalues --  -10.29013 -10.28873 -10.27778 -10.26948 -10.26646
 Alpha  occ. eigenvalues --  -10.26105 -10.26059 -10.25703 -10.25678 -10.25589
 Alpha  occ. eigenvalues --  -10.25375 -10.25221  -1.17031  -1.16091  -1.12668
 Alpha  occ. eigenvalues --   -1.12214  -1.12000  -1.11494  -1.10027  -1.09934
 Alpha  occ. eigenvalues --   -1.07478  -1.04921  -1.04386  -1.01955  -1.01477
 Alpha  occ. eigenvalues --   -1.00309  -0.99813  -0.99535  -0.92442  -0.90973
 Alpha  occ. eigenvalues --   -0.88364  -0.88031  -0.85936  -0.84952  -0.83090
 Alpha  occ. eigenvalues --   -0.82131  -0.80676  -0.79621  -0.78343  -0.76021
 Alpha  occ. eigenvalues --   -0.75601  -0.74088  -0.73478  -0.71990  -0.71234
 Alpha  occ. eigenvalues --   -0.70108  -0.69831  -0.69468  -0.69033  -0.68031
 Alpha  occ. eigenvalues --   -0.67243  -0.66639  -0.66345  -0.65645  -0.65479
 Alpha  occ. eigenvalues --   -0.64775  -0.62986  -0.62013  -0.61387  -0.61092
 Alpha  occ. eigenvalues --   -0.60650  -0.59633  -0.58494  -0.58237  -0.57579
 Alpha  occ. eigenvalues --   -0.56879  -0.56386  -0.56165  -0.55782  -0.55312
 Alpha  occ. eigenvalues --   -0.55132  -0.55029  -0.54586  -0.54200  -0.53829
 Alpha  occ. eigenvalues --   -0.53616  -0.53026  -0.52322  -0.51912  -0.51765
 Alpha  occ. eigenvalues --   -0.50965  -0.50707  -0.50383  -0.50246  -0.50061
 Alpha  occ. eigenvalues --   -0.49725  -0.49408  -0.48822  -0.48436  -0.48277
 Alpha  occ. eigenvalues --   -0.47821  -0.47713  -0.47117  -0.46822  -0.46644
 Alpha  occ. eigenvalues --   -0.45837  -0.45719  -0.45380  -0.44803  -0.44530
 Alpha  occ. eigenvalues --   -0.44256  -0.43819  -0.43745  -0.43169  -0.42355
 Alpha  occ. eigenvalues --   -0.42147  -0.41424  -0.40820  -0.40663  -0.40476
 Alpha  occ. eigenvalues --   -0.39197  -0.38846  -0.37619  -0.37597  -0.36866
 Alpha  occ. eigenvalues --   -0.36509  -0.35248  -0.34696  -0.34447  -0.34126
 Alpha  occ. eigenvalues --   -0.33374  -0.32904  -0.32693  -0.31147  -0.30011
 Alpha  occ. eigenvalues --   -0.29465  -0.27282
 Alpha virt. eigenvalues --   -0.10361  -0.09525  -0.08607  -0.08260  -0.07414
 Alpha virt. eigenvalues --   -0.06043  -0.05361  -0.05074  -0.04860  -0.04382
 Alpha virt. eigenvalues --   -0.03111  -0.02197  -0.01033  -0.00932  -0.00373

 Mulliken charges:
               1
     1  N   -0.752654
     2  H    0.419178
     3  H    0.426888
     4  H    0.412328
     5  C   -0.122040
     6  H    0.213197
     7  C    0.667214
     8  C   -0.329317
     9  H    0.205809
    10  H    0.228599
    11  O   -0.540723
    12  C   -0.367246
    13  H    0.161567
    14  H    0.180710
    15  C    0.600744
    16  O   -0.598096
    17  O   -0.468401
    18  N   -0.615486
    19  H    0.386020
    20  C   -0.067613
    21  H    0.196369
    22  C    0.583549
    23  C   -0.346544
    24  H    0.175331
    25  H    0.168339
    26  O   -0.527643
    27  C    0.065955
    28  C    0.014206
    29  H    0.163787
    30  C    0.086597
    31  C    0.316590
    32  C   -0.236718
    33  H    0.121485
    34  N   -0.685136
    35  H    0.338871
    36  C   -0.164492
    37  H    0.136359
    38  C   -0.162033
    39  H    0.138886
    40  C   -0.168644
    41  H    0.126783
    42  N   -0.605767
    43  H    0.359019
    44  C   -0.055889
    45  H    0.185026
    46  C    0.612624
    47  C    0.101970
    48  H    0.213464
    49  O   -0.557192
    50  C   -0.489194
    51  H    0.153044
    52  H    0.179070
    53  H    0.172348
    54  O   -0.649783
    55  H    0.420873
    56  N   -0.598066
    57  H    0.349019
    58  C   -0.045946
    59  H    0.172627
    60  C    0.634820
    61  C   -0.269425
    62  H    0.142143
    63  H    0.160593
    64  O   -0.545608
    65  C   -0.299182
    66  H    0.169468
    67  H    0.145775
    68  C   -0.158666
    69  H    0.224886
    70  H    0.171905
    71  N   -0.600008
    72  H    0.345011
    73  N   -0.761155
    74  H    0.350761
    75  H    0.428783
    76  N   -0.767829
    77  H    0.364129
    78  H    0.373135
    79  C    0.805560
    80  O   -0.678583
    81  H    0.463662
 Sum of Mulliken charges =   1.00000

 Dipole moment (field-independent basis, Debye):
    X=              3.0828    Y=             -4.9576    Z=            -15.1081  Tot=             16.1968
 Quadrupole moment (field-independent basis, Debye-Ang):
   XX=            -61.8632   YY=           -187.3054   ZZ=           -156.1329
   XY=             56.7096   XZ=            -88.0174   YZ=            -22.3050

 Normal termination of Gaussian 16 at Thu May 26 18:13:23 2022.
