 Gaussian 16, Revision C.01,
 Gaussian 16:  ES64L-G16RevC.01  3-Jul-2019

 -------------------------------------------------------------------
 # B3LYP/6-31G* guess=read geom=check nosymm integral(ultrafinegrid)
 -------------------------------------------------------------------

 ------------------------------------------------------
 Candidate Structure: Conf:684 Charge calc in gas phase
 ------------------------------------------------------
 Structure from the checkpoint file:  "conf-684.chk"
 Charge =  1 Multiplicity = 1

                          Input orientation:
 ---------------------------------------------------------------------
 Center     Atomic      Atomic             Coordinates (Angstroms)
 Number     Number       Type             X           Y           Z
 ---------------------------------------------------------------------
      1          7           0       -3.111752   -1.268453    3.189049
      2          1           0       -3.794322   -1.413326    3.930054
      3          1           0       -3.357055   -1.856701    2.391795
      4          1           0       -1.572892   -1.514351    3.554100
      5          6           0       -3.095574    0.139836    2.750382
      6          1           0       -4.109285    0.568291    2.763284
      7          6           0       -2.641702    0.119132    1.275510
      8          6           0       -2.230574    0.977056    3.720090
      9          1           0       -2.502141    2.035580    3.605518
     10          1           0       -2.575172    0.708628    4.727312
     11          8           0       -2.751745   -0.910552    0.609645
     12          6           0       -0.688076    0.902456    3.668504
     13          1           0       -0.310140    1.342921    4.599585
     14          1           0       -0.300105    1.547092    2.876498
     15          6           0        0.085587   -0.414403    3.504896
     16          8           0       -0.547241   -1.586938    3.579144
     17          8           0        1.285110   -0.365943    3.307346
     18          7           0       -2.146140    1.272430    0.769811
     19          1           0       -2.017578    2.079169    1.366764
     20          6           0       -1.570669    1.346140   -0.574431
     21          1           0       -2.119103    0.615246   -1.173160
     22          6           0       -0.087846    0.888325   -0.504969
     23          6           0       -1.722279    2.769459   -1.205848
     24          1           0       -2.371151    2.676842   -2.082467
     25          1           0       -0.733740    3.067509   -1.568875
     26          8           0        0.834745    1.718151   -0.462489
     27          6           0       -2.278582    3.843688   -0.312821
     28          6           0       -3.525137    4.411246   -0.414755
     29          1           0       -4.310138    4.216835   -1.133444
     30          6           0       -1.640034    4.474122    0.822618
     31          6           0       -2.566926    5.412558    1.358891
     32          6           0       -0.379895    4.334179    1.439158
     33          1           0        0.346483    3.633531    1.036740
     34          7           0       -3.704457    5.351207    0.580370
     35          1           0       -4.525280    5.925255    0.696811
     36          6           0       -1.025786    6.031495    3.069848
     37          1           0       -0.768207    6.623819    3.943303
     38          6           0       -2.272895    6.198168    2.478532
     39          1           0       -2.991572    6.911274    2.873630
     40          6           0       -0.089919    5.109780    2.556042
     41          1           0        0.875686    5.008650    3.044185
     42          7           0        0.100383   -0.446766   -0.463631
     43          1           0       -0.710047   -1.051577   -0.317879
     44          6           0        1.381666   -1.070644   -0.086918
     45          1           0        1.784446   -0.523667    0.774878
     46          6           0        2.410699   -0.997940   -1.240714
     47          6           0        1.129615   -2.557931    0.297224
     48          1           0        1.060470   -3.124285   -0.635336
     49          8           0        2.722381   -1.961586   -1.933378
     50          6           0        2.271045   -3.104675    1.150470
     51          1           0        3.227705   -3.026132    0.623951
     52          1           0        2.087464   -4.160445    1.372855
     53          1           0        2.339610   -2.549674    2.093398
     54          8           0       -0.135129   -2.712285    0.925299
     55          1           0       -0.067117   -2.438130    1.859683
     56          7           0        2.994508    0.222357   -1.410377
     57          1           0        2.517567    1.017198   -0.981811
     58          6           0        3.893448    0.427468   -2.525413
     59          1           0        3.380374    0.269739   -3.483633
     60          6           0        5.054513   -0.575395   -2.453040
     61          6           0        4.454161    1.860098   -2.446566
     62          1           0        5.016739    1.946975   -1.508761
     63          1           0        3.609014    2.558361   -2.389176
     64          8           0        5.700366   -0.817690   -1.462516
     65          6           0        5.347940    2.229430   -3.637919
     66          1           0        6.166368    1.507529   -3.737543
     67          1           0        4.762466    2.184999   -4.566771
     68          6           0        5.938109    3.630683   -3.473230
     69          1           0        5.137062    4.377400   -3.392810
     70          1           0        6.550159    3.674914   -2.565400
     71          7           0        6.803327    3.957438   -4.624991
     72          1           0        6.643745    3.433313   -5.477031
     73          7           0        7.774977    5.842673   -3.682154
     74          1           0        8.588239    6.431189   -3.568440
     75          1           0        7.047649    5.915416   -2.985582
     76          7           0        8.573179    5.015720   -5.689868
     77          1           0        8.696211    4.249038   -6.336008
     78          1           0        9.093936    5.862204   -5.870890
     79          6           0        7.707349    4.934355   -4.665190
     80          8           0        5.350311   -1.073490   -3.678625
     81          1           0        6.074940   -1.714050   -3.543551
 ---------------------------------------------------------------------

 SCF Done:  E(RB3LYP) =  -2053.94091464     A.U. after    1 cycles

 Alpha  occ. eigenvalues --  -19.26380 -19.21718 -19.20327 -19.19120 -19.19037
 Alpha  occ. eigenvalues --  -19.17346 -19.17265 -19.16869 -14.55054 -14.54931
 Alpha  occ. eigenvalues --  -14.54834 -14.44194 -14.43525 -14.41935 -14.41169
 Alpha  occ. eigenvalues --  -14.41094 -10.51324 -10.38622 -10.37996 -10.36179
 Alpha  occ. eigenvalues --  -10.36087 -10.35453 -10.33959 -10.31851 -10.31476
 Alpha  occ. eigenvalues --  -10.30888 -10.30319 -10.29735 -10.28123 -10.28028
 Alpha  occ. eigenvalues --  -10.27708 -10.27305 -10.26938 -10.25913 -10.25792
 Alpha  occ. eigenvalues --  -10.24882 -10.24581 -10.24526 -10.24340 -10.24217
 Alpha  occ. eigenvalues --  -10.23917 -10.20317  -1.19733  -1.17092  -1.12979
 Alpha  occ. eigenvalues --   -1.11309  -1.10210  -1.09097  -1.08889  -1.08031
 Alpha  occ. eigenvalues --   -1.07894  -1.05149  -1.04530  -1.04056  -1.00003
 Alpha  occ. eigenvalues --   -0.98623  -0.97793  -0.97605  -0.92955  -0.89713
 Alpha  occ. eigenvalues --   -0.86918  -0.86511  -0.85386  -0.83053  -0.82055
 Alpha  occ. eigenvalues --   -0.80981  -0.79373  -0.78903  -0.78311  -0.77110
 Alpha  occ. eigenvalues --   -0.76989  -0.74761  -0.73762  -0.72699  -0.72056
 Alpha  occ. eigenvalues --   -0.69955  -0.68566  -0.68318  -0.68089  -0.67279
 Alpha  occ. eigenvalues --   -0.66225  -0.65105  -0.64927  -0.64525  -0.63861
 Alpha  occ. eigenvalues --   -0.63666  -0.62608  -0.62013  -0.61682  -0.60348
 Alpha  occ. eigenvalues --   -0.59551  -0.59450  -0.58384  -0.58098  -0.57722
 Alpha  occ. eigenvalues --   -0.57215  -0.55062  -0.55023  -0.54652  -0.54125
 Alpha  occ. eigenvalues --   -0.54009  -0.53730  -0.53159  -0.53009  -0.52699
 Alpha  occ. eigenvalues --   -0.51742  -0.51398  -0.50772  -0.50082  -0.49704
 Alpha  occ. eigenvalues --   -0.49391  -0.48878  -0.48626  -0.48582  -0.48107
 Alpha  occ. eigenvalues --   -0.47830  -0.47651  -0.47580  -0.47162  -0.46762
 Alpha  occ. eigenvalues --   -0.46088  -0.45848  -0.45632  -0.45262  -0.45211
 Alpha  occ. eigenvalues --   -0.44855  -0.44632  -0.44342  -0.44072  -0.43692
 Alpha  occ. eigenvalues --   -0.43496  -0.42946  -0.42747  -0.42349  -0.41985
 Alpha  occ. eigenvalues --   -0.40815  -0.40712  -0.40186  -0.39567  -0.39267
 Alpha  occ. eigenvalues --   -0.39040  -0.38225  -0.35409  -0.35073  -0.34590
 Alpha  occ. eigenvalues --   -0.34235  -0.34025  -0.33659  -0.33408  -0.32736
 Alpha  occ. eigenvalues --   -0.31780  -0.31002  -0.30652  -0.30400  -0.29513
 Alpha  occ. eigenvalues --   -0.28334  -0.26383
 Alpha virt. eigenvalues --   -0.15099  -0.10844  -0.07200  -0.07121  -0.06443
 Alpha virt. eigenvalues --   -0.06349  -0.05947  -0.05504  -0.04398  -0.03740
 Alpha virt. eigenvalues --   -0.03586  -0.02944  -0.02512  -0.01242   0.00181

 Mulliken charges:
               1
     1  N   -0.788960
     2  H    0.334060
     3  H    0.369249
     4  H    0.474162
     5  C   -0.076568
     6  H    0.176640
     7  C    0.626286
     8  C   -0.311453
     9  H    0.165990
    10  H    0.163054
    11  O   -0.526476
    12  C   -0.379452
    13  H    0.193839
    14  H    0.185252
    15  C    0.588798
    16  O   -0.624600
    17  O   -0.473745
    18  N   -0.614884
    19  H    0.363096
    20  C   -0.040373
    21  H    0.191270
    22  C    0.616307
    23  C   -0.374775
    24  H    0.154491
    25  H    0.178825
    26  O   -0.559671
    27  C    0.050220
    28  C    0.004970
    29  H    0.158990
    30  C    0.028539
    31  C    0.317855
    32  C   -0.240263
    33  H    0.170240
    34  N   -0.685764
    35  H    0.335944
    36  C   -0.151382
    37  H    0.135100
    38  C   -0.164588
    39  H    0.134229
    40  C   -0.147522
    41  H    0.130106
    42  N   -0.621548
    43  H    0.398611
    44  C   -0.101898
    45  H    0.199027
    46  C    0.640548
    47  C    0.126628
    48  H    0.168367
    49  O   -0.523403
    50  C   -0.497387
    51  H    0.162915
    52  H    0.161194
    53  H    0.176278
    54  O   -0.675237
    55  H    0.432642
    56  N   -0.643021
    57  H    0.378130
    58  C    0.024109
    59  H    0.170383
    60  C    0.596693
    61  C   -0.320732
    62  H    0.181894
    63  H    0.167611
    64  O   -0.454462
    65  C   -0.316741
    66  H    0.183380
    67  H    0.166951
    68  C   -0.146297
    69  H    0.189745
    70  H    0.192975
    71  N   -0.607855
    72  H    0.371248
    73  N   -0.754295
    74  H    0.390706
    75  H    0.398075
    76  N   -0.761498
    77  H    0.389950
    78  H    0.389705
    79  C    0.838545
    80  O   -0.575328
    81  H    0.416355
 Sum of Mulliken charges =   1.00000

 Dipole moment (field-independent basis, Debye):
    X=             23.3723    Y=             28.3197    Z=            -17.5469  Tot=             40.6960
 Quadrupole moment (field-independent basis, Debye-Ang):
   XX=             55.0369   YY=           -113.7635   ZZ=           -119.2182
   XY=            153.4387   XZ=           -190.4334   YZ=            -92.3868

 Normal termination of Gaussian 16 at Thu May 26 18:13:19 2022.
