 Gaussian 16, Revision C.01,
 Gaussian 16:  ES64L-G16RevC.01  3-Jul-2019

 -------------------------------------------------------------------
 # B3LYP/6-31G* guess=read geom=check nosymm integral(ultrafinegrid)
 -------------------------------------------------------------------

 ------------------------------------------------------
 Candidate Structure: Conf:197 Charge calc in gas phase
 ------------------------------------------------------
 Structure from the checkpoint file:  "conf-197.chk"
 Charge =  1 Multiplicity = 1

                          Input orientation:
 ---------------------------------------------------------------------
 Center     Atomic      Atomic             Coordinates (Angstroms)
 Number     Number       Type             X           Y           Z
 ---------------------------------------------------------------------
      1          7           0       -3.695783    0.841031    5.491663
      2          1           0       -4.349539    1.453447    5.987581
      3          1           0       -4.245647    0.107799    4.981407
      4          1           0       -3.049682    0.428504    6.175797
      5          6           0       -2.917894    1.541684    4.389745
      6          1           0       -2.990589    2.618773    4.562680
      7          6           0       -3.612124    1.085380    3.089789
      8          6           0       -1.466229    1.062041    4.377880
      9          1           0       -1.457969   -0.018825    4.182455
     10          1           0       -0.961363    1.506584    3.514143
     11          8           0       -4.415325    0.146175    3.126072
     12          6           0       -0.583944    1.412452    5.568999
     13          1           0       -0.716133    0.746143    6.431519
     14          1           0       -0.770102    2.439010    5.914775
     15          6           0        0.949255    1.334545    5.131351
     16          8           0        1.763680    1.352891    6.047520
     17          8           0        1.126377    1.297330    3.864363
     18          7           0       -3.177600    1.697654    1.976183
     19          1           0       -2.496658    2.438929    2.092387
     20          6           0       -3.377882    1.192648    0.606195
     21          1           0       -3.711124    0.157222    0.719175
     22          6           0       -1.985766    1.226246   -0.101115
     23          6           0       -4.433973    2.009372   -0.162614
     24          1           0       -3.939818    2.868556   -0.622919
     25          1           0       -5.150709    2.399609    0.569576
     26          8           0       -1.801948    1.924343   -1.097979
     27          6           0       -5.166216    1.208821   -1.208890
     28          6           0       -5.887653    0.057701   -0.994508
     29          1           0       -6.034615   -0.503263   -0.080923
     30          6           0       -5.350337    1.540216   -2.597868
     31          6           0       -6.203032    0.547408   -3.164612
     32          6           0       -4.903955    2.594693   -3.417083
     33          1           0       -4.265448    3.373009   -3.007542
     34          7           0       -6.495032   -0.351596   -2.165895
     35          1           0       -7.124772   -1.135913   -2.246104
     36          6           0       -6.178762    1.659336   -5.282568
     37          1           0       -6.523327    1.750614   -6.309043
     38          6           0       -6.624416    0.594248   -4.500072
     39          1           0       -7.310098   -0.147630   -4.902332
     40          6           0       -5.320213    2.648231   -4.745950
     41          1           0       -5.015415    3.481239   -5.373718
     42          7           0       -1.042043    0.489995    0.518017
     43          1           0       -1.245389   -0.020467    1.377673
     44          6           0        0.401701    0.575611    0.311075
     45          1           0        0.762996    1.531868    0.714903
     46          6           0        0.781958    0.437001   -1.163673
     47          6           0        1.033259   -0.591782    1.148432
     48          1           0        0.841046   -1.509978    0.581369
     49          8           0        0.453087   -0.538313   -1.833729
     50          6           0        2.532744   -0.392187    1.357611
     51          1           0        3.059238   -0.248119    0.406720
     52          1           0        2.951786   -1.274323    1.850308
     53          1           0        2.712087    0.472234    2.006017
     54          8           0        0.335577   -0.722457    2.371165
     55          1           0        0.666043   -0.011348    3.002421
     56          7           0        1.546310    1.452038   -1.657116
     57          1           0        1.867941    2.196283   -1.050121
     58          6           0        2.122725    1.412306   -2.984583
     59          1           0        2.324728    0.365428   -3.238664
     60          6           0        3.442863    2.174430   -2.943821
     61          6           0        1.200841    2.013901   -4.079237
     62          1           0        1.726072    1.937432   -5.039854
     63          1           0        1.056737    3.083158   -3.874241
     64          8           0        3.800333    2.878642   -2.027061
     65          6           0       -0.159086    1.308802   -4.142860
     66          1           0       -0.000777    0.224869   -4.199065
     67          1           0       -0.712898    1.474669   -3.213693
     68          6           0       -1.012341    1.788295   -5.321886
     69          1           0       -1.238343    2.854908   -5.235907
     70          1           0       -0.506007    1.651987   -6.284996
     71          7           0       -2.311551    1.096360   -5.388211
     72          1           0       -3.093356    1.515132   -4.887414
     73          7           0       -1.484400   -0.803817   -6.444595
     74          1           0       -1.650892   -1.671157   -6.933350
     75          1           0       -0.545805   -0.643965   -6.109831
     76          7           0       -3.759213   -0.582928   -6.056310
     77          1           0       -4.564692   -0.026266   -5.774252
     78          1           0       -3.913886   -1.560108   -6.256328
     79          6           0       -2.513447   -0.096414   -5.940570
     80          8           0        4.153069    1.995548   -4.075406
     81          1           0        4.969238    2.524833   -3.986109
 ---------------------------------------------------------------------

 SCF Done:  E(RB3LYP) =  -2053.90134109     A.U. after    2 cycles

 Alpha  occ. eigenvalues --  -19.28134 -19.25427 -19.22572 -19.20633 -19.18555
 Alpha  occ. eigenvalues --  -19.17778 -19.11319 -19.09856 -14.58059 -14.51628
 Alpha  occ. eigenvalues --  -14.50950 -14.50933 -14.48774 -14.48288 -14.43763
 Alpha  occ. eigenvalues --  -14.43470 -10.47642 -10.42067 -10.40563 -10.37814
 Alpha  occ. eigenvalues --  -10.37727 -10.35954 -10.34792 -10.33863 -10.32572
 Alpha  occ. eigenvalues --  -10.32446 -10.31840 -10.30100 -10.29801 -10.29507
 Alpha  occ. eigenvalues --  -10.29413 -10.29411 -10.29179 -10.29088 -10.28983
 Alpha  occ. eigenvalues --  -10.28687 -10.28656 -10.28319 -10.28305 -10.27795
 Alpha  occ. eigenvalues --  -10.23983 -10.21664  -1.19095  -1.17481  -1.16109
 Alpha  occ. eigenvalues --   -1.12312  -1.11964  -1.10654  -1.10091  -1.08201
 Alpha  occ. eigenvalues --   -1.05998  -1.05287  -1.05249  -1.04315  -1.03700
 Alpha  occ. eigenvalues --   -1.00230  -0.99786  -0.95629  -0.94601  -0.91492
 Alpha  occ. eigenvalues --   -0.90224  -0.89838  -0.86440  -0.85752  -0.84181
 Alpha  occ. eigenvalues --   -0.83111  -0.82015  -0.80524  -0.80048  -0.77345
 Alpha  occ. eigenvalues --   -0.77009  -0.74881  -0.73541  -0.72723  -0.72151
 Alpha  occ. eigenvalues --   -0.71895  -0.71262  -0.70980  -0.70589  -0.69607
 Alpha  occ. eigenvalues --   -0.69298  -0.68978  -0.66670  -0.66371  -0.65930
 Alpha  occ. eigenvalues --   -0.65822  -0.64780  -0.64402  -0.64092  -0.63482
 Alpha  occ. eigenvalues --   -0.60965  -0.59671  -0.59510  -0.59211  -0.58835
 Alpha  occ. eigenvalues --   -0.58419  -0.57732  -0.57676  -0.57119  -0.56345
 Alpha  occ. eigenvalues --   -0.55982  -0.55472  -0.55332  -0.54396  -0.54240
 Alpha  occ. eigenvalues --   -0.53866  -0.53670  -0.53571  -0.53065  -0.52507
 Alpha  occ. eigenvalues --   -0.51873  -0.51394  -0.51091  -0.50724  -0.49990
 Alpha  occ. eigenvalues --   -0.49719  -0.49546  -0.49301  -0.48662  -0.48346
 Alpha  occ. eigenvalues --   -0.47868  -0.47250  -0.47121  -0.46721  -0.46531
 Alpha  occ. eigenvalues --   -0.45853  -0.45605  -0.45070  -0.44704  -0.44244
 Alpha  occ. eigenvalues --   -0.44137  -0.43983  -0.43953  -0.43156  -0.42422
 Alpha  occ. eigenvalues --   -0.42034  -0.41717  -0.41084  -0.40546  -0.40247
 Alpha  occ. eigenvalues --   -0.39754  -0.39397  -0.38730  -0.38434  -0.37965
 Alpha  occ. eigenvalues --   -0.36296  -0.35966  -0.34591  -0.34117  -0.33062
 Alpha  occ. eigenvalues --   -0.32939  -0.32070  -0.31368  -0.30634  -0.26533
 Alpha  occ. eigenvalues --   -0.26052  -0.23927
 Alpha virt. eigenvalues --   -0.12305  -0.11321  -0.10727  -0.08896  -0.08753
 Alpha virt. eigenvalues --   -0.07557  -0.07456  -0.07348  -0.05306  -0.04276
 Alpha virt. eigenvalues --   -0.03978  -0.03704  -0.02681  -0.01760  -0.01526

 Mulliken charges:
               1
     1  N   -0.743045
     2  H    0.410564
     3  H    0.422320
     4  H    0.419456
     5  C   -0.129172
     6  H    0.202115
     7  C    0.637345
     8  C   -0.316969
     9  H    0.180294
    10  H    0.197737
    11  O   -0.535891
    12  C   -0.404853
    13  H    0.139639
    14  H    0.146231
    15  C    0.603060
    16  O   -0.521602
    17  O   -0.624588
    18  N   -0.595172
    19  H    0.359629
    20  C   -0.072189
    21  H    0.198822
    22  C    0.601592
    23  C   -0.339563
    24  H    0.181191
    25  H    0.167148
    26  O   -0.532518
    27  C    0.073946
    28  C    0.005402
    29  H    0.179541
    30  C    0.076444
    31  C    0.332728
    32  C   -0.233846
    33  H    0.160756
    34  N   -0.684935
    35  H    0.344059
    36  C   -0.190789
    37  H    0.156313
    38  C   -0.201122
    39  H    0.150504
    40  C   -0.174977
    41  H    0.151645
    42  N   -0.608218
    43  H    0.360870
    44  C   -0.059857
    45  H    0.162724
    46  C    0.653853
    47  C    0.132784
    48  H    0.154165
    49  O   -0.551061
    50  C   -0.489969
    51  H    0.132292
    52  H    0.171757
    53  H    0.201212
    54  O   -0.703454
    55  H    0.457352
    56  N   -0.613495
    57  H    0.357288
    58  C   -0.035793
    59  H    0.194915
    60  C    0.584085
    61  C   -0.270329
    62  H    0.158578
    63  H    0.158302
    64  O   -0.449765
    65  C   -0.305553
    66  H    0.156084
    67  H    0.224537
    68  C   -0.182449
    69  H    0.189590
    70  H    0.175287
    71  N   -0.597083
    72  H    0.381497
    73  N   -0.756958
    74  H    0.376409
    75  H    0.389755
    76  N   -0.782977
    77  H    0.393872
    78  H    0.368667
    79  C    0.812212
    80  O   -0.566256
    81  H    0.427881
 Sum of Mulliken charges =   1.00000

 Dipole moment (field-independent basis, Debye):
    X=            -25.2414    Y=              1.9843    Z=            -17.1597  Tot=             30.5862
 Quadrupole moment (field-independent basis, Debye-Ang):
   XX=           -133.4269   YY=           -222.9998   ZZ=            -76.4953
   XY=             -4.5364   XZ=            -36.4580   YZ=             11.6636

 Normal termination of Gaussian 16 at Thu May 26 18:13:39 2022.
