 Gaussian 16, Revision C.01,
 Gaussian 16:  ES64L-G16RevC.01  3-Jul-2019

 -------------------------------------------------------------------
 # B3LYP/6-31G* guess=read geom=check nosymm integral(ultrafinegrid)
 -------------------------------------------------------------------

 ------------------------------------------------------
 Candidate Structure: Conf:703 Charge calc in gas phase
 ------------------------------------------------------
 Structure from the checkpoint file:  "conf-703.chk"
 Charge =  1 Multiplicity = 1

                          Input orientation:
 ---------------------------------------------------------------------
 Center     Atomic      Atomic             Coordinates (Angstroms)
 Number     Number       Type             X           Y           Z
 ---------------------------------------------------------------------
      1          7           0       -3.176372    1.989513    4.407894
      2          1           0       -4.086308    2.193683    4.825106
      3          1           0       -3.053768    0.939617    4.169490
      4          1           0       -2.441526    2.279806    5.059709
      5          6           0       -2.979648    2.594688    3.027999
      6          1           0       -3.984174    2.803679    2.644689
      7          6           0       -2.445658    1.359777    2.228271
      8          6           0       -2.189264    3.907524    3.135986
      9          1           0       -2.677100    4.486832    3.930769
     10          1           0       -1.162102    3.711951    3.468662
     11          8           0       -2.536499    0.258532    2.814041
     12          6           0       -2.150194    4.771542    1.849041
     13          1           0       -2.180917    5.822659    2.145806
     14          1           0       -3.020264    4.573764    1.212878
     15          6           0       -0.834673    4.552307    1.074329
     16          8           0       -0.876641    3.839519    0.020353
     17          8           0        0.178907    5.067743    1.598351
     18          7           0       -2.065233    1.524709    0.975571
     19          1           0       -1.807056    2.456948    0.599509
     20          6           0       -1.636868    0.389659    0.168590
     21          1           0       -2.273149   -0.461898    0.427445
     22          6           0       -0.168620    0.048509    0.500467
     23          6           0       -1.802342    0.740523   -1.338035
     24          1           0       -1.530510   -0.146198   -1.923030
     25          1           0       -1.066592    1.509158   -1.594979
     26          8           0        0.547437    0.790323    1.160249
     27          6           0       -3.177263    1.214062   -1.701690
     28          6           0       -3.535809    2.516015   -1.955675
     29          1           0       -2.920801    3.406094   -1.937962
     30          6           0       -4.376373    0.422277   -1.837763
     31          6           0       -5.428829    1.315281   -2.181737
     32          6           0       -4.666710   -0.948571   -1.715408
     33          1           0       -3.885028   -1.661402   -1.462726
     34          7           0       -4.886518    2.585462   -2.232636
     35          1           0       -5.374008    3.414293   -2.536574
     36          6           0       -6.992092   -0.482301   -2.275427
     37          1           0       -7.998103   -0.855260   -2.444676
     38          6           0       -6.738473    0.878232   -2.405165
     39          1           0       -7.529049    1.573898   -2.673967
     40          6           0       -5.966324   -1.387462   -1.933817
     41          1           0       -6.199241   -2.444851   -1.845669
     42          7           0        0.248325   -1.153780    0.012966
     43          1           0       -0.318879   -1.656775   -0.658886
     44          6           0        1.645971   -1.516236    0.000546
     45          1           0        2.083164   -1.202130    0.954566
     46          6           0        2.402329   -0.743491   -1.120723
     47          6           0        1.751085   -3.051038   -0.131961
     48          1           0        2.807406   -3.329282   -0.262040
     49          8           0        1.851193    0.125401   -1.797653
     50          6           0        1.203532   -3.790191    1.088460
     51          1           0        1.792274   -3.557933    1.982809
     52          1           0        1.258952   -4.874102    0.930831
     53          1           0        0.161265   -3.518427    1.277125
     54          8           0        1.022246   -3.361747   -1.321572
     55          1           0        0.985865   -4.325989   -1.419220
     56          7           0        3.705146   -1.084654   -1.230937
     57          1           0        4.081640   -1.821249   -0.643263
     58          6           0        4.665179   -0.595644   -2.213242
     59          1           0        4.236949   -0.687066   -3.219736
     60          6           0        5.853021   -1.552564   -2.141989
     61          6           0        5.096118    0.884524   -1.986348
     62          1           0        6.164153    0.998311   -2.201525
     63          1           0        4.947940    1.116734   -0.926628
     64          8           0        5.976813   -2.432001   -1.315619
     65          6           0        4.278632    1.837301   -2.873682
     66          1           0        4.641859    1.775571   -3.908327
     67          1           0        3.240939    1.497904   -2.893720
     68          6           0        4.332426    3.311793   -2.465582
     69          1           0        5.344418    3.706030   -2.603963
     70          1           0        3.666874    3.892477   -3.114588
     71          7           0        3.991136    3.587441   -1.055926
     72          1           0        4.720304    4.020616   -0.506570
     73          7           0        1.687373    3.143615   -1.079398
     74          1           0        0.751362    3.375084   -0.698399
     75          1           0        1.814814    2.196415   -1.430096
     76          7           0        2.556063    4.691861    0.395982
     77          1           0        3.253731    5.405045    0.553110
     78          1           0        1.621831    4.799173    0.871324
     79          6           0        2.732556    3.806753   -0.581807
     80          8           0        6.750390   -1.301280   -3.108232
     81          1           0        7.479445   -1.942515   -3.002092
 ---------------------------------------------------------------------

 SCF Done:  E(RB3LYP) =  -2053.96620110     A.U. after    1 cycles

 Alpha  occ. eigenvalues --  -19.29135 -19.24204 -19.23802 -19.23715 -19.20786
 Alpha  occ. eigenvalues --  -19.19301 -19.18209 -19.17560 -14.56966 -14.46314
 Alpha  occ. eigenvalues --  -14.45607 -14.44909 -14.44137 -14.43848 -14.43645
 Alpha  occ. eigenvalues --  -14.43390 -10.41738 -10.41268 -10.40652 -10.38336
 Alpha  occ. eigenvalues --  -10.37870 -10.36474 -10.35806 -10.33402 -10.33402
 Alpha  occ. eigenvalues --  -10.31956 -10.31855 -10.31694 -10.31484 -10.28019
 Alpha  occ. eigenvalues --  -10.27936 -10.27856 -10.27722 -10.27153 -10.26831
 Alpha  occ. eigenvalues --  -10.26034 -10.24710 -10.24589 -10.24559 -10.24429
 Alpha  occ. eigenvalues --  -10.24140 -10.23813  -1.20269  -1.16630  -1.12746
 Alpha  occ. eigenvalues --   -1.11483  -1.11212  -1.11080  -1.10994  -1.10612
 Alpha  occ. eigenvalues --   -1.09690  -1.03968  -1.03109  -1.02064  -1.01753
 Alpha  occ. eigenvalues --   -1.00384  -0.99625  -0.96981  -0.91341  -0.89680
 Alpha  occ. eigenvalues --   -0.89288  -0.87842  -0.86082  -0.83987  -0.83637
 Alpha  occ. eigenvalues --   -0.81943  -0.79432  -0.79161  -0.77891  -0.77263
 Alpha  occ. eigenvalues --   -0.75147  -0.73486  -0.72559  -0.71907  -0.71688
 Alpha  occ. eigenvalues --   -0.70462  -0.69220  -0.68532  -0.68064  -0.67494
 Alpha  occ. eigenvalues --   -0.66941  -0.66707  -0.66434  -0.65165  -0.63600
 Alpha  occ. eigenvalues --   -0.63334  -0.61901  -0.61692  -0.60946  -0.59768
 Alpha  occ. eigenvalues --   -0.59736  -0.59447  -0.58711  -0.58321  -0.58147
 Alpha  occ. eigenvalues --   -0.57699  -0.56958  -0.56419  -0.56327  -0.55947
 Alpha  occ. eigenvalues --   -0.55740  -0.54724  -0.54463  -0.53579  -0.52936
 Alpha  occ. eigenvalues --   -0.52885  -0.52865  -0.52383  -0.51919  -0.51336
 Alpha  occ. eigenvalues --   -0.51108  -0.51019  -0.50286  -0.50070  -0.49679
 Alpha  occ. eigenvalues --   -0.49493  -0.49149  -0.49010  -0.48701  -0.48299
 Alpha  occ. eigenvalues --   -0.48233  -0.47630  -0.47500  -0.47078  -0.46612
 Alpha  occ. eigenvalues --   -0.46250  -0.46218  -0.45686  -0.45133  -0.44857
 Alpha  occ. eigenvalues --   -0.44302  -0.43935  -0.43823  -0.43398  -0.42940
 Alpha  occ. eigenvalues --   -0.42589  -0.41999  -0.41205  -0.41063  -0.39351
 Alpha  occ. eigenvalues --   -0.39154  -0.39021  -0.37547  -0.36664  -0.36237
 Alpha  occ. eigenvalues --   -0.36059  -0.35394  -0.35083  -0.34327  -0.33782
 Alpha  occ. eigenvalues --   -0.33353  -0.33268  -0.32721  -0.32397  -0.31990
 Alpha  occ. eigenvalues --   -0.28147  -0.26354
 Alpha virt. eigenvalues --   -0.10249  -0.08693  -0.08059  -0.07197  -0.07050
 Alpha virt. eigenvalues --   -0.06268  -0.05452  -0.03907  -0.03854  -0.03201
 Alpha virt. eigenvalues --   -0.03018  -0.01989  -0.01743  -0.01149  -0.00475

 Mulliken charges:
               1
     1  N   -0.765591
     2  H    0.406449
     3  H    0.437009
     4  H    0.406153
     5  C   -0.111800
     6  H    0.222185
     7  C    0.654242
     8  C   -0.294055
     9  H    0.159074
    10  H    0.196151
    11  O   -0.568458
    12  C   -0.349319
    13  H    0.185245
    14  H    0.154715
    15  C    0.597368
    16  O   -0.598474
    17  O   -0.564348
    18  N   -0.602899
    19  H    0.420891
    20  C   -0.086760
    21  H    0.189724
    22  C    0.651471
    23  C   -0.396559
    24  H    0.167064
    25  H    0.179029
    26  O   -0.534942
    27  C    0.072830
    28  C   -0.011772
    29  H    0.175251
    30  C    0.084341
    31  C    0.307813
    32  C   -0.212330
    33  H    0.112138
    34  N   -0.690461
    35  H    0.333797
    36  C   -0.151497
    37  H    0.136398
    38  C   -0.162777
    39  H    0.132228
    40  C   -0.138781
    41  H    0.130210
    42  N   -0.603140
    43  H    0.354094
    44  C   -0.074025
    45  H    0.197017
    46  C    0.653749
    47  C    0.108786
    48  H    0.137714
    49  O   -0.542475
    50  C   -0.465206
    51  H    0.160524
    52  H    0.155129
    53  H    0.173090
    54  O   -0.632924
    55  H    0.409931
    56  N   -0.631921
    57  H    0.365586
    58  C   -0.012555
    59  H    0.203537
    60  C    0.571518
    61  C   -0.276017
    62  H    0.169626
    63  H    0.166586
    64  O   -0.461889
    65  C   -0.301854
    66  H    0.159184
    67  H    0.194556
    68  C   -0.159532
    69  H    0.164646
    70  H    0.183551
    71  N   -0.603988
    72  H    0.342183
    73  N   -0.808792
    74  H    0.422005
    75  H    0.402712
    76  N   -0.788802
    77  H    0.340486
    78  H    0.437262
    79  C    0.744172
    80  O   -0.556604
    81  H    0.431129
 Sum of Mulliken charges =   1.00000

 Dipole moment (field-independent basis, Debye):
    X=              0.8963    Y=              7.6350    Z=              6.1819  Tot=              9.8647
 Quadrupole moment (field-independent basis, Debye-Ang):
   XX=           -120.3495   YY=           -177.6272   ZZ=           -177.2851
   XY=            -17.3995   XZ=            -58.0668   YZ=             20.7296

 Normal termination of Gaussian 16 at Thu May 26 18:13:21 2022.
