 Gaussian 16, Revision C.01,
 Gaussian 16:  ES64L-G16RevC.01  3-Jul-2019

 -------------------------------------------------------------------
 # B3LYP/6-31G* guess=read geom=check nosymm integral(ultrafinegrid)
 -------------------------------------------------------------------

 -----------------------------------------------------
 Candidate Structure: Conf:14 Charge calc in gas phase
 -----------------------------------------------------
 Structure from the checkpoint file:  "conf-14.chk"
 Charge =  1 Multiplicity = 1

                          Input orientation:
 ---------------------------------------------------------------------
 Center     Atomic      Atomic             Coordinates (Angstroms)
 Number     Number       Type             X           Y           Z
 ---------------------------------------------------------------------
      1          7           0       -3.123721    1.801334    3.627489
      2          1           0       -4.135170    1.857120    3.775429
      3          1           0       -2.844793    0.773445    3.594654
      4          1           0       -2.645715    2.294405    4.386510
      5          6           0       -2.679898    2.276524    2.251287
      6          1           0       -3.501036    2.856807    1.820624
      7          6           0       -2.555493    0.921503    1.491202
      8          6           0       -1.426475    3.159000    2.436762
      9          1           0       -1.775443    4.097932    2.886605
     10          1           0       -0.762653    2.648652    3.142714
     11          8           0       -2.525429   -0.116621    2.162981
     12          6           0       -0.575522    3.448429    1.191609
     13          1           0       -0.025049    4.381798    1.354385
     14          1           0       -1.183417    3.630524    0.293666
     15          6           0        0.462113    2.320563    0.919621
     16          8           0        1.290837    2.526516   -0.024243
     17          8           0        0.394405    1.321058    1.661817
     18          7           0       -2.645442    0.967921    0.157727
     19          1           0       -2.606581    1.867505   -0.304026
     20          6           0       -2.524000   -0.221107   -0.705669
     21          1           0       -2.878932   -1.062239   -0.107572
     22          6           0       -1.016443   -0.339558   -1.015878
     23          6           0       -3.383106   -0.059218   -1.972702
     24          1           0       -3.285342   -0.993313   -2.542180
     25          1           0       -2.929497    0.720822   -2.596367
     26          8           0       -0.484314    0.498984   -1.754782
     27          6           0       -4.824168    0.260594   -1.703636
     28          6           0       -5.475757    1.418949   -2.052041
     29          1           0       -5.108475    2.280062   -2.595359
     30          6           0       -5.797885   -0.567923   -1.029810
     31          6           0       -7.019034    0.159498   -1.004006
     32          6           0       -5.766412   -1.855444   -0.462077
     33          1           0       -4.857833   -2.451934   -0.481641
     34          7           0       -6.786980    1.374289   -1.621434
     35          1           0       -7.497266    2.051584   -1.854022
     36          6           0       -8.121334   -1.627481    0.122984
     37          1           0       -9.011463   -2.060496    0.569859
     38          6           0       -8.187225   -0.355192   -0.431620
     39          1           0       -9.113671    0.212772   -0.428013
     40          6           0       -6.923178   -2.371192    0.106945
     41          1           0       -6.910604   -3.367071    0.539971
     42          7           0       -0.363337   -1.303526   -0.353362
     43          1           0       -0.916986   -1.978518    0.157519
     44          6           0        1.050674   -1.257961    0.034975
     45          1           0        1.164288   -0.421968    0.732936
     46          6           0        2.038345   -1.100728   -1.125507
     47          6           0        1.404832   -2.593331    0.750031
     48          1           0        2.497105   -2.583655    0.890308
     49          8           0        2.217156   -1.991451   -1.959020
     50          6           0        0.749914   -2.733181    2.121369
     51          1           0        1.075628   -1.928401    2.787760
     52          1           0        1.033012   -3.695491    2.557678
     53          1           0       -0.345315   -2.707587    2.066398
     54          8           0        1.003339   -3.692506   -0.046527
     55          1           0        1.401203   -3.535886   -0.927753
     56          7           0        2.804225    0.016962   -1.032000
     57          1           0        2.470034    0.785586   -0.445954
     58          6           0        4.024824    0.195259   -1.792846
     59          1           0        3.903479   -0.320934   -2.753929
     60          6           0        5.259923   -0.457548   -1.151838
     61          6           0        4.298501    1.691442   -2.033443
     62          1           0        5.313010    1.800006   -2.423753
     63          1           0        4.273213    2.202940   -1.061318
     64          8           0        6.381859   -0.296613   -1.577299
     65          6           0        3.258960    2.305087   -2.984808
     66          1           0        3.603249    2.235009   -4.024116
     67          1           0        2.334661    1.722605   -2.911680
     68          6           0        2.924523    3.763667   -2.647007
     69          1           0        2.649044    3.856744   -1.592392
     70          1           0        3.771675    4.431263   -2.824892
     71          7           0        1.814255    4.269957   -3.483606
     72          1           0        2.036468    4.897523   -4.244566
     73          7           0        0.121507    3.087325   -2.410711
     74          1           0       -0.475594    2.266508   -2.522049
     75          1           0        0.665852    3.018497   -1.516598
     76          7           0       -0.193953    3.879260   -4.572909
     77          1           0        0.221844    3.976691   -5.488313
     78          1           0       -1.149286    3.554377   -4.542448
     79          6           0        0.590569    3.722093   -3.477406
     80          8           0        4.976825   -1.239328   -0.090160
     81          1           0        5.827713   -1.625182    0.194278
 ---------------------------------------------------------------------

 SCF Done:  E(RB3LYP) =  -2053.93270488     A.U. after    1 cycles

 Alpha  occ. eigenvalues --  -19.25956 -19.25818 -19.21092 -19.19897 -19.18580
 Alpha  occ. eigenvalues --  -19.17925 -19.17475 -19.17035 -14.58960 -14.49633
 Alpha  occ. eigenvalues --  -14.49375 -14.49291 -14.46178 -14.45811 -14.44572
 Alpha  occ. eigenvalues --  -14.41747 -10.44833 -10.42844 -10.39821 -10.38119
 Alpha  occ. eigenvalues --  -10.37952 -10.35503 -10.34890 -10.33978 -10.32619
 Alpha  occ. eigenvalues --  -10.31866 -10.30619 -10.30548 -10.29800 -10.29764
 Alpha  occ. eigenvalues --  -10.29221 -10.28768 -10.28722 -10.27389 -10.26993
 Alpha  occ. eigenvalues --  -10.26769 -10.26412 -10.26362 -10.26217 -10.25822
 Alpha  occ. eigenvalues --  -10.25406 -10.23495  -1.18370  -1.16758  -1.13405
 Alpha  occ. eigenvalues --   -1.12955  -1.12430  -1.10321  -1.09711  -1.07617
 Alpha  occ. eigenvalues --   -1.06456  -1.06064  -1.05563  -1.03093  -1.01929
 Alpha  occ. eigenvalues --   -1.00725  -1.00367  -0.98834  -0.92515  -0.91460
 Alpha  occ. eigenvalues --   -0.89686  -0.88455  -0.85978  -0.84332  -0.83340
 Alpha  occ. eigenvalues --   -0.82418  -0.81124  -0.80020  -0.78367  -0.77233
 Alpha  occ. eigenvalues --   -0.76576  -0.74757  -0.74130  -0.73072  -0.71930
 Alpha  occ. eigenvalues --   -0.70594  -0.70009  -0.69821  -0.69620  -0.68800
 Alpha  occ. eigenvalues --   -0.67273  -0.67200  -0.66594  -0.65653  -0.65021
 Alpha  occ. eigenvalues --   -0.64366  -0.63305  -0.62426  -0.62052  -0.61645
 Alpha  occ. eigenvalues --   -0.61432  -0.60509  -0.59216  -0.59051  -0.58125
 Alpha  occ. eigenvalues --   -0.57408  -0.57120  -0.56786  -0.56275  -0.56212
 Alpha  occ. eigenvalues --   -0.55452  -0.55064  -0.54576  -0.54119  -0.53888
 Alpha  occ. eigenvalues --   -0.53165  -0.52779  -0.52361  -0.51872  -0.51727
 Alpha  occ. eigenvalues --   -0.51151  -0.50825  -0.50586  -0.50461  -0.50145
 Alpha  occ. eigenvalues --   -0.49632  -0.49414  -0.48554  -0.48378  -0.48333
 Alpha  occ. eigenvalues --   -0.48166  -0.47663  -0.47408  -0.47202  -0.46358
 Alpha  occ. eigenvalues --   -0.46035  -0.45785  -0.45713  -0.44204  -0.44012
 Alpha  occ. eigenvalues --   -0.43808  -0.43662  -0.43429  -0.42849  -0.42588
 Alpha  occ. eigenvalues --   -0.42181  -0.41931  -0.41037  -0.40956  -0.40376
 Alpha  occ. eigenvalues --   -0.39736  -0.39414  -0.38597  -0.37833  -0.37501
 Alpha  occ. eigenvalues --   -0.35383  -0.35217  -0.34928  -0.34273  -0.33013
 Alpha  occ. eigenvalues --   -0.32133  -0.31934  -0.31253  -0.30748  -0.30506
 Alpha  occ. eigenvalues --   -0.30032  -0.28410
 Alpha virt. eigenvalues --   -0.11532  -0.10373  -0.10027  -0.08885  -0.07501
 Alpha virt. eigenvalues --   -0.06301  -0.05387  -0.05223  -0.05130  -0.04773
 Alpha virt. eigenvalues --   -0.04404  -0.03090  -0.02613  -0.02110  -0.01446

 Mulliken charges:
               1
     1  N   -0.756337
     2  H    0.412330
     3  H    0.437843
     4  H    0.412396
     5  C   -0.116019
     6  H    0.202831
     7  C    0.695171
     8  C   -0.272482
     9  H    0.154412
    10  H    0.195783
    11  O   -0.540031
    12  C   -0.396877
    13  H    0.184911
    14  H    0.132461
    15  C    0.636441
    16  O   -0.622450
    17  O   -0.558537
    18  N   -0.584864
    19  H    0.342640
    20  C   -0.076604
    21  H    0.191902
    22  C    0.681632
    23  C   -0.385375
    24  H    0.187475
    25  H    0.140678
    26  O   -0.581259
    27  C    0.081579
    28  C   -0.018774
    29  H    0.138924
    30  C    0.080841
    31  C    0.304776
    32  C   -0.213350
    33  H    0.128759
    34  N   -0.686297
    35  H    0.336956
    36  C   -0.150838
    37  H    0.143472
    38  C   -0.163980
    39  H    0.137004
    40  C   -0.140041
    41  H    0.140640
    42  N   -0.593014
    43  H    0.353942
    44  C   -0.092496
    45  H    0.226669
    46  C    0.644106
    47  C    0.090278
    48  H    0.150990
    49  O   -0.547530
    50  C   -0.456264
    51  H    0.159400
    52  H    0.174712
    53  H    0.136716
    54  O   -0.643983
    55  H    0.420727
    56  N   -0.633215
    57  H    0.386793
    58  C   -0.052157
    59  H    0.207321
    60  C    0.599533
    61  C   -0.304756
    62  H    0.191293
    63  H    0.162469
    64  O   -0.457726
    65  C   -0.277892
    66  H    0.150815
    67  H    0.180622
    68  C   -0.186763
    69  H    0.215071
    70  H    0.177300
    71  N   -0.587707
    72  H    0.353201
    73  N   -0.802786
    74  H    0.375553
    75  H    0.436621
    76  N   -0.755778
    77  H    0.368030
    78  H    0.366460
    79  C    0.763878
    80  O   -0.557882
    81  H    0.419707
 Sum of Mulliken charges =   1.00000

 Dipole moment (field-independent basis, Debye):
    X=            -13.9174    Y=             18.5877    Z=             -0.6818  Tot=             23.2307
 Quadrupole moment (field-independent basis, Debye-Ang):
   XX=           -162.5971   YY=           -185.6784   ZZ=           -150.6549
   XY=            -23.2454   XZ=            -26.0540   YZ=            -32.8335

 Normal termination of Gaussian 16 at Thu May 26 18:13:31 2022.
