 Gaussian 16, Revision C.01,
 Gaussian 16:  ES64L-G16RevC.01  3-Jul-2019

 -------------------------------------------------------------------
 # B3LYP/6-31G* guess=read geom=check nosymm integral(ultrafinegrid)
 -------------------------------------------------------------------

 ------------------------------------------------------
 Candidate Structure: Conf:879 Charge calc in gas phase
 ------------------------------------------------------
 Structure from the checkpoint file:  "conf-879.chk"
 Charge =  1 Multiplicity = 1

                          Input orientation:
 ---------------------------------------------------------------------
 Center     Atomic      Atomic             Coordinates (Angstroms)
 Number     Number       Type             X           Y           Z
 ---------------------------------------------------------------------
      1          7           0       -3.511189    1.911609    3.102880
      2          1           0       -4.474085    2.226561    3.255762
      3          1           0       -3.459139    0.881315    3.320720
      4          1           0       -2.884805    2.454912    3.704437
      5          6           0       -3.083913    1.950040    1.645298
      6          1           0       -3.663293    2.721967    1.132293
      7          6           0       -3.377942    0.514262    1.152692
      8          6           0       -1.567430    2.186067    1.535884
      9          1           0       -1.055635    1.455936    2.176224
     10          1           0       -1.273479    1.920482    0.516815
     11          8           0       -3.412874   -0.379442    2.005287
     12          6           0       -1.065340    3.605361    1.811629
     13          1           0       -1.043038    3.856876    2.882003
     14          1           0       -1.709971    4.353771    1.333867
     15          6           0        0.374537    3.812377    1.246852
     16          8           0        0.741959    5.027811    1.224495
     17          8           0        1.009981    2.810589    0.856941
     18          7           0       -3.461096    0.352374   -0.180378
     19          1           0       -3.314782    1.190534   -0.738800
     20          6           0       -2.876727   -0.827452   -0.854160
     21          1           0       -3.060459   -1.695220   -0.217540
     22          6           0       -1.365535   -0.480657   -0.899640
     23          6           0       -3.509877   -1.053280   -2.250259
     24          1           0       -4.550059   -1.361120   -2.083233
     25          1           0       -3.000553   -1.914541   -2.698999
     26          8           0       -1.026451    0.668480   -1.194881
     27          6           0       -3.464686    0.118071   -3.190752
     28          6           0       -2.571787    0.293497   -4.219957
     29          1           0       -1.766184   -0.349063   -4.548203
     30          6           0       -4.323724    1.281843   -3.195345
     31          6           0       -3.879155    2.123689   -4.254445
     32          6           0       -5.430352    1.697298   -2.428003
     33          1           0       -5.818064    1.065436   -1.633039
     34          7           0       -2.812072    1.490482   -4.856831
     35          1           0       -2.322955    1.818464   -5.675594
     36          6           0       -5.562097    3.738617   -3.755541
     37          1           0       -6.054659    4.686189   -3.953710
     38          6           0       -4.484894    3.350729   -4.543509
     39          1           0       -4.131175    3.976485   -5.358641
     40          6           0       -6.033817    2.916446   -2.711253
     41          1           0       -6.892421    3.239633   -2.128998
     42          7           0       -0.491120   -1.405389   -0.459606
     43          1           0       -0.728250   -2.389814   -0.404304
     44          6           0        0.865441   -1.044802   -0.051112
     45          1           0        0.796014   -0.276005    0.727472
     46          6           0        1.732515   -0.510223   -1.199807
     47          6           0        1.555834   -2.321162    0.505792
     48          1           0        2.623727   -2.081750    0.618866
     49          8           0        2.102633   -1.251714   -2.116043
     50          6           0        1.004890   -2.768327    1.855478
     51          1           0        1.210183   -2.014511    2.623413
     52          1           0        1.487909   -3.704381    2.149464
     53          1           0       -0.076481   -2.944354    1.819520
     54          8           0        1.370985   -3.380866   -0.420565
     55          1           0        1.725082   -3.044902   -1.271058
     56          7           0        2.131598    0.770528   -1.058635
     57          1           0        1.723970    1.356466   -0.328781
     58          6           0        3.149631    1.344063   -1.911625
     59          1           0        2.955533    1.064250   -2.953743
     60          6           0        4.525191    0.767305   -1.549985
     61          6           0        3.141133    2.880275   -1.763874
     62          1           0        4.075613    3.275483   -2.175073
     63          1           0        3.122274    3.114711   -0.693297
     64          8           0        4.799346    0.157735   -0.544701
     65          6           0        1.937152    3.529147   -2.467141
     66          1           0        2.110493    3.537965   -3.552485
     67          1           0        1.036238    2.927930   -2.297268
     68          6           0        1.614306    4.950261   -1.976572
     69          1           0        0.882590    5.421146   -2.642933
     70          1           0        1.171893    4.928350   -0.980974
     71          7           0        2.787299    5.840242   -1.927553
     72          1           0        3.196813    6.097447   -2.816399
     73          7           0        3.081257    5.878910    0.396825
     74          1           0        3.620149    6.246482    1.169590
     75          1           0        2.145887    5.423304    0.676881
     76          7           0        4.591534    6.946458   -1.001299
     77          1           0        4.977576    7.114161   -1.917569
     78          1           0        5.181273    7.173211   -0.215462
     79          6           0        3.469728    6.202284   -0.828664
     80          8           0        5.429277    1.055478   -2.517987
     81          1           0        6.274465    0.658465   -2.233234
 ---------------------------------------------------------------------

 SCF Done:  E(RB3LYP) =  -2053.93480235     A.U. after    1 cycles

 Alpha  occ. eigenvalues --  -19.26260 -19.25806 -19.20529 -19.20382 -19.19829
 Alpha  occ. eigenvalues --  -19.18432 -19.17030 -19.16867 -14.59150 -14.48891
 Alpha  occ. eigenvalues --  -14.48635 -14.47756 -14.45547 -14.45292 -14.44722
 Alpha  occ. eigenvalues --  -14.42112 -10.44468 -10.42245 -10.38930 -10.38444
 Alpha  occ. eigenvalues --  -10.37539 -10.35342 -10.35288 -10.33518 -10.31870
 Alpha  occ. eigenvalues --  -10.30896 -10.30698 -10.30412 -10.29918 -10.29223
 Alpha  occ. eigenvalues --  -10.29113 -10.28436 -10.27922 -10.27396 -10.27165
 Alpha  occ. eigenvalues --  -10.26013 -10.25909 -10.25860 -10.25766 -10.25451
 Alpha  occ. eigenvalues --  -10.25249 -10.24201  -1.18007  -1.17044  -1.13023
 Alpha  occ. eigenvalues --   -1.12751  -1.12490  -1.10316  -1.10085  -1.08132
 Alpha  occ. eigenvalues --   -1.07481  -1.05228  -1.04623  -1.02498  -1.01636
 Alpha  occ. eigenvalues --   -1.00527  -0.99899  -0.99271  -0.92004  -0.90961
 Alpha  occ. eigenvalues --   -0.88743  -0.88363  -0.85494  -0.84308  -0.83137
 Alpha  occ. eigenvalues --   -0.82483  -0.80646  -0.79317  -0.78374  -0.77087
 Alpha  occ. eigenvalues --   -0.75058  -0.74106  -0.73984  -0.72787  -0.71032
 Alpha  occ. eigenvalues --   -0.70958  -0.70529  -0.69677  -0.69401  -0.68825
 Alpha  occ. eigenvalues --   -0.67221  -0.66391  -0.66323  -0.65797  -0.64610
 Alpha  occ. eigenvalues --   -0.64295  -0.63457  -0.62071  -0.61625  -0.61229
 Alpha  occ. eigenvalues --   -0.60438  -0.59825  -0.58515  -0.57818  -0.57429
 Alpha  occ. eigenvalues --   -0.57339  -0.56741  -0.56459  -0.56066  -0.55732
 Alpha  occ. eigenvalues --   -0.55553  -0.55204  -0.54740  -0.54135  -0.53738
 Alpha  occ. eigenvalues --   -0.53417  -0.52698  -0.52600  -0.51991  -0.51571
 Alpha  occ. eigenvalues --   -0.51082  -0.50630  -0.50175  -0.50105  -0.49512
 Alpha  occ. eigenvalues --   -0.49306  -0.49235  -0.48844  -0.48357  -0.48314
 Alpha  occ. eigenvalues --   -0.47967  -0.47546  -0.47154  -0.46696  -0.46064
 Alpha  occ. eigenvalues --   -0.45642  -0.45572  -0.45199  -0.44732  -0.44140
 Alpha  occ. eigenvalues --   -0.43871  -0.43459  -0.43211  -0.43013  -0.42591
 Alpha  occ. eigenvalues --   -0.42480  -0.41901  -0.40735  -0.40503  -0.40022
 Alpha  occ. eigenvalues --   -0.39470  -0.38765  -0.38459  -0.38319  -0.36679
 Alpha  occ. eigenvalues --   -0.35366  -0.35026  -0.34230  -0.33859  -0.33039
 Alpha  occ. eigenvalues --   -0.32625  -0.32123  -0.31936  -0.31249  -0.30968
 Alpha  occ. eigenvalues --   -0.29445  -0.27428
 Alpha virt. eigenvalues --   -0.11962  -0.09959  -0.08255  -0.07821  -0.07360
 Alpha virt. eigenvalues --   -0.06156  -0.05678  -0.05338  -0.04754  -0.04648
 Alpha virt. eigenvalues --   -0.02656  -0.02024  -0.01956  -0.01606  -0.00742

 Mulliken charges:
               1
     1  N   -0.745266
     2  H    0.413466
     3  H    0.425922
     4  H    0.416109
     5  C   -0.129788
     6  H    0.207019
     7  C    0.637659
     8  C   -0.325287
     9  H    0.168967
    10  H    0.254939
    11  O   -0.522919
    12  C   -0.377001
    13  H    0.143553
    14  H    0.161845
    15  C    0.619694
    16  O   -0.616424
    17  O   -0.564585
    18  N   -0.571240
    19  H    0.367687
    20  C   -0.085848
    21  H    0.186472
    22  C    0.631914
    23  C   -0.362384
    24  H    0.176909
    25  H    0.172625
    26  O   -0.537746
    27  C    0.060077
    28  C    0.023111
    29  H    0.169160
    30  C    0.056001
    31  C    0.318025
    32  C   -0.233832
    33  H    0.125906
    34  N   -0.687284
    35  H    0.336813
    36  C   -0.152315
    37  H    0.138168
    38  C   -0.160084
    39  H    0.134888
    40  C   -0.141103
    41  H    0.127747
    42  N   -0.600500
    43  H    0.354232
    44  C   -0.071263
    45  H    0.164955
    46  C    0.666816
    47  C    0.088847
    48  H    0.165467
    49  O   -0.560829
    50  C   -0.451602
    51  H    0.146303
    52  H    0.182339
    53  H    0.140632
    54  O   -0.644986
    55  H    0.423171
    56  N   -0.633986
    57  H    0.415627
    58  C   -0.026755
    59  H    0.189132
    60  C    0.588654
    61  C   -0.311888
    62  H    0.149754
    63  H    0.184550
    64  O   -0.453425
    65  C   -0.275484
    66  H    0.139296
    67  H    0.192034
    68  C   -0.189145
    69  H    0.170090
    70  H    0.220950
    71  N   -0.600458
    72  H    0.343061
    73  N   -0.787518
    74  H    0.347988
    75  H    0.452244
    76  N   -0.774571
    77  H    0.365274
    78  H    0.370556
    79  C    0.813722
    80  O   -0.573182
    81  H    0.418326
 Sum of Mulliken charges =   1.00000

 Dipole moment (field-independent basis, Debye):
    X=             -1.9944    Y=             20.6160    Z=              0.4599  Tot=             20.7173
 Quadrupole moment (field-independent basis, Debye-Ang):
   XX=           -143.2664   YY=           -136.0072   ZZ=           -176.2288
   XY=             49.7796   XZ=            -41.8338   YZ=            -16.8263

 Normal termination of Gaussian 16 at Thu May 26 18:13:22 2022.
