 Gaussian 16, Revision C.01,
 Gaussian 16:  ES64L-G16RevC.01  3-Jul-2019

 -------------------------------------------------------------------
 # B3LYP/6-31G* guess=read geom=check nosymm integral(ultrafinegrid)
 -------------------------------------------------------------------

 ------------------------------------------------------
 Candidate Structure: Conf:315 Charge calc in gas phase
 ------------------------------------------------------
 Structure from the checkpoint file:  "conf-315.chk"
 Charge =  1 Multiplicity = 1

                          Input orientation:
 ---------------------------------------------------------------------
 Center     Atomic      Atomic             Coordinates (Angstroms)
 Number     Number       Type             X           Y           Z
 ---------------------------------------------------------------------
      1          7           0       -3.556437   -0.701026    3.749790
      2          1           0       -4.530463   -0.937568    3.552701
      3          1           0       -2.877916   -1.311776    3.127890
      4          1           0       -3.382443   -0.820570    4.750022
      5          6           0       -3.145926    0.658502    3.219210
      6          1           0       -4.038536    1.205461    2.911042
      7          6           0       -2.270606    0.282606    1.987656
      8          6           0       -2.385611    1.430365    4.313900
      9          1           0       -3.077909    1.614435    5.146619
     10          1           0       -1.574016    0.793861    4.692478
     11          8           0       -1.938223   -0.961275    1.940602
     12          6           0       -1.770916    2.778676    3.874981
     13          1           0       -0.967038    2.607191    3.152916
     14          1           0       -1.343856    3.252686    4.761314
     15          6           0       -2.803815    3.759571    3.301242
     16          8           0       -3.253323    4.678960    3.944330
     17          8           0       -3.207586    3.520671    2.037557
     18          7           0       -1.981972    1.267470    1.195378
     19          1           0       -2.654129    2.756502    1.632057
     20          6           0       -1.107748    1.002119    0.056086
     21          1           0       -1.440289    0.087160   -0.455718
     22          6           0        0.328018    0.802592    0.563360
     23          6           0       -1.150983    2.193688   -0.923272
     24          1           0       -0.326640    2.077157   -1.642743
     25          1           0       -0.923352    3.096150   -0.347291
     26          8           0        1.048260    1.742026    0.911337
     27          6           0       -2.443076    2.337187   -1.666818
     28          6           0       -3.470031    3.208040   -1.394015
     29          1           0       -3.567574    3.926644   -0.590916
     30          6           0       -2.846372    1.581484   -2.826849
     31          6           0       -4.130412    2.057367   -3.215196
     32          6           0       -2.256583    0.546258   -3.575809
     33          1           0       -1.296451    0.127409   -3.278127
     34          7           0       -4.482699    3.044459   -2.318279
     35          1           0       -5.344570    3.567800   -2.330480
     36          6           0       -4.197953    0.530378   -5.048320
     37          1           0       -4.705985    0.108972   -5.910883
     38          6           0       -4.813210    1.545069   -4.322724
     39          1           0       -5.792548    1.921304   -4.606183
     40          6           0       -2.932661    0.032089   -4.676871
     41          1           0       -2.491244   -0.776750   -5.253424
     42          7           0        0.749590   -0.490781    0.617304
     43          1           0        0.098705   -1.218918    0.353660
     44          6           0        1.949910   -0.869240    1.363824
     45          1           0        2.101176   -0.072430    2.097159
     46          6           0        3.112733   -0.856483    0.362801
     47          6           0        1.704788   -2.181682    2.127066
     48          1           0        1.455692   -2.969666    1.396019
     49          8           0        3.542585   -1.841930   -0.220170
     50          6           0        2.926188   -2.622398    2.921955
     51          1           0        3.760383   -2.854983    2.255085
     52          1           0        2.677299   -3.517943    3.498153
     53          1           0        3.230357   -1.839943    3.626218
     54          8           0        0.640570   -1.986196    3.048597
     55          1           0       -0.155573   -1.683002    2.568651
     56          7           0        3.553761    0.425239    0.113714
     57          1           0        3.028977    1.184355    0.540941
     58          6           0        4.475201    0.721773   -0.966137
     59          1           0        4.891112   -0.246212   -1.272221
     60          6           0        5.651105    1.587150   -0.502468
     61          6           0        3.789406    1.397219   -2.172352
     62          1           0        4.568596    1.601289   -2.917041
     63          1           0        3.400074    2.367394   -1.828243
     64          8           0        6.111559    2.500493   -1.155239
     65          6           0        2.649647    0.581522   -2.789346
     66          1           0        3.025100   -0.373778   -3.176589
     67          1           0        1.915804    0.332509   -2.015274
     68          6           0        1.887799    1.332702   -3.888029
     69          1           0        1.009211    0.764491   -4.209111
     70          1           0        1.520675    2.298314   -3.525589
     71          7           0        2.680459    1.591767   -5.112266
     72          1           0        2.768002    0.821756   -5.764541
     73          7           0        3.442719    3.732032   -4.590705
     74          1           0        3.697455    4.660030   -4.898816
     75          1           0        3.498898    3.539851   -3.598961
     76          7           0        3.630496    2.920680   -6.751726
     77          1           0        3.249576    2.355080   -7.497051
     78          1           0        4.269952    3.658428   -7.010355
     79          6           0        3.250022    2.742491   -5.474553
     80          8           0        6.129094    1.211527    0.694949
     81          1           0        6.880480    1.800481    0.900361
 ---------------------------------------------------------------------

 SCF Done:  E(RB3LYP) =  -2053.91279374     A.U. after    1 cycles

 Alpha  occ. eigenvalues --  -19.28067 -19.22742 -19.21565 -19.21112 -19.20042
 Alpha  occ. eigenvalues --  -19.19555 -19.19509 -19.16924 -14.53928 -14.53906
 Alpha  occ. eigenvalues --  -14.53737 -14.53592 -14.44494 -14.44079 -14.43562
 Alpha  occ. eigenvalues --  -14.38954 -10.50244 -10.40826 -10.36719 -10.36634
 Alpha  occ. eigenvalues --  -10.36462 -10.35712 -10.35684 -10.34548 -10.33078
 Alpha  occ. eigenvalues --  -10.30621 -10.30418 -10.30266 -10.30171 -10.29809
 Alpha  occ. eigenvalues --  -10.29532 -10.28110 -10.27818 -10.26356 -10.26179
 Alpha  occ. eigenvalues --  -10.25389 -10.25194 -10.24733 -10.24703 -10.24652
 Alpha  occ. eigenvalues --  -10.24324 -10.22956  -1.19205  -1.18509  -1.12635
 Alpha  occ. eigenvalues --   -1.12328  -1.11885  -1.11031  -1.10240  -1.07680
 Alpha  occ. eigenvalues --   -1.07448  -1.06885  -1.06674  -1.04572  -1.03962
 Alpha  occ. eigenvalues --   -1.00925  -1.00149  -0.97354  -0.92006  -0.90139
 Alpha  occ. eigenvalues --   -0.89038  -0.87082  -0.86612  -0.84402  -0.82294
 Alpha  occ. eigenvalues --   -0.81858  -0.80073  -0.79702  -0.79356  -0.78152
 Alpha  occ. eigenvalues --   -0.76852  -0.76039  -0.73728  -0.73257  -0.71682
 Alpha  occ. eigenvalues --   -0.71484  -0.69529  -0.68431  -0.67997  -0.67869
 Alpha  occ. eigenvalues --   -0.67297  -0.66923  -0.66292  -0.66104  -0.65483
 Alpha  occ. eigenvalues --   -0.65336  -0.63554  -0.62989  -0.62137  -0.61539
 Alpha  occ. eigenvalues --   -0.60793  -0.59899  -0.59805  -0.59249  -0.58566
 Alpha  occ. eigenvalues --   -0.57876  -0.57145  -0.57091  -0.56805  -0.56317
 Alpha  occ. eigenvalues --   -0.55814  -0.55537  -0.54844  -0.54497  -0.53811
 Alpha  occ. eigenvalues --   -0.53545  -0.52948  -0.52448  -0.51584  -0.50955
 Alpha  occ. eigenvalues --   -0.50159  -0.49829  -0.49622  -0.49393  -0.49115
 Alpha  occ. eigenvalues --   -0.48696  -0.48534  -0.48310  -0.48238  -0.47841
 Alpha  occ. eigenvalues --   -0.47335  -0.46908  -0.46652  -0.46290  -0.45308
 Alpha  occ. eigenvalues --   -0.45248  -0.45174  -0.45035  -0.44867  -0.44820
 Alpha  occ. eigenvalues --   -0.44260  -0.43870  -0.43551  -0.43314  -0.43046
 Alpha  occ. eigenvalues --   -0.42150  -0.42087  -0.41576  -0.40658  -0.40341
 Alpha  occ. eigenvalues --   -0.39628  -0.39562  -0.38732  -0.37128  -0.36704
 Alpha  occ. eigenvalues --   -0.35860  -0.34883  -0.34684  -0.33874  -0.33511
 Alpha  occ. eigenvalues --   -0.33363  -0.33034  -0.31624  -0.31099  -0.30372
 Alpha  occ. eigenvalues --   -0.28502  -0.26456
 Alpha virt. eigenvalues --   -0.14382  -0.09891  -0.08055  -0.07493  -0.06937
 Alpha virt. eigenvalues --   -0.06443  -0.05927  -0.05859  -0.05310  -0.04891
 Alpha virt. eigenvalues --   -0.04560  -0.03788  -0.03239  -0.02678  -0.01252

 Mulliken charges:
               1
     1  N   -0.770796
     2  H    0.398937
     3  H    0.429716
     4  H    0.396731
     5  C   -0.103075
     6  H    0.215452
     7  C    0.617397
     8  C   -0.299845
     9  H    0.174482
    10  H    0.169588
    11  O   -0.657261
    12  C   -0.374250
    13  H    0.192137
    14  H    0.185852
    15  C    0.568736
    16  O   -0.448851
    17  O   -0.627099
    18  N   -0.561607
    19  H    0.459616
    20  C   -0.041909
    21  H    0.145974
    22  C    0.634364
    23  C   -0.374112
    24  H    0.113112
    25  H    0.174804
    26  O   -0.559480
    27  C    0.062948
    28  C   -0.002906
    29  H    0.190245
    30  C    0.085776
    31  C    0.313714
    32  C   -0.230183
    33  H    0.098257
    34  N   -0.691287
    35  H    0.337039
    36  C   -0.153898
    37  H    0.133975
    38  C   -0.159945
    39  H    0.135650
    40  C   -0.141612
    41  H    0.116141
    42  N   -0.619903
    43  H    0.347339
    44  C   -0.081884
    45  H    0.184331
    46  C    0.635390
    47  C    0.127780
    48  H    0.128433
    49  O   -0.522988
    50  C   -0.464142
    51  H    0.173952
    52  H    0.168720
    53  H    0.152347
    54  O   -0.668116
    55  H    0.420581
    56  N   -0.615487
    57  H    0.368142
    58  C   -0.062164
    59  H    0.217049
    60  C    0.597460
    61  C   -0.293936
    62  H    0.157630
    63  H    0.144278
    64  O   -0.476822
    65  C   -0.269261
    66  H    0.170686
    67  H    0.188374
    68  C   -0.194787
    69  H    0.205651
    70  H    0.193862
    71  N   -0.584867
    72  H    0.368241
    73  N   -0.751295
    74  H    0.385784
    75  H    0.404509
    76  N   -0.758056
    77  H    0.386687
    78  H    0.387382
    79  C    0.815845
    80  O   -0.543883
    81  H    0.424616
 Sum of Mulliken charges =   1.00000

 Dipole moment (field-independent basis, Debye):
    X=              5.9211    Y=              6.4601    Z=            -16.9125  Tot=             19.0479
 Quadrupole moment (field-independent basis, Debye-Ang):
   XX=           -153.8869   YY=           -231.6822   ZZ=            -74.8204
   XY=             58.8846   XZ=            -86.2543   YZ=            -82.9926

 Normal termination of Gaussian 16 at Thu May 26 18:13:22 2022.
