 Gaussian 16, Revision C.01,
 Gaussian 16:  ES64L-G16RevC.01  3-Jul-2019

 -------------------------------------------------------------------
 # B3LYP/6-31G* guess=read geom=check nosymm integral(ultrafinegrid)
 -------------------------------------------------------------------

 ------------------------------------------------------
 Candidate Structure: Conf:771 Charge calc in gas phase
 ------------------------------------------------------
 Structure from the checkpoint file:  "conf-771.chk"
 Charge =  1 Multiplicity = 1

                          Input orientation:
 ---------------------------------------------------------------------
 Center     Atomic      Atomic             Coordinates (Angstroms)
 Number     Number       Type             X           Y           Z
 ---------------------------------------------------------------------
      1          7           0       -4.112787   -1.340668   -3.370164
      2          1           0       -4.914324   -1.930880   -3.128406
      3          1           0       -4.361550   -0.334558   -3.165075
      4          1           0       -3.883457   -1.469252   -4.359698
      5          6           0       -2.921912   -1.579826   -2.456545
      6          1           0       -3.078658   -2.543720   -1.964236
      7          6           0       -3.041771   -0.414856   -1.445137
      8          6           0       -1.606713   -1.550049   -3.253988
      9          1           0       -0.790478   -1.761743   -2.555105
     10          1           0       -1.595559   -2.374990   -3.975391
     11          8           0       -3.754474    0.548443   -1.745563
     12          6           0       -1.312472   -0.225470   -3.967050
     13          1           0       -1.254154    0.608176   -3.262251
     14          1           0       -2.100674    0.035376   -4.690741
     15          6           0        0.019055   -0.274625   -4.751159
     16          8           0        0.547718    0.846723   -4.986635
     17          8           0        0.436763   -1.411744   -5.093182
     18          7           0       -2.309126   -0.531169   -0.328742
     19          1           0       -1.902133   -1.438799   -0.133892
     20          6           0       -2.331381    0.442392    0.770096
     21          1           0       -2.982660    1.253968    0.438669
     22          6           0       -0.950239    1.080972    1.040478
     23          6           0       -2.934220   -0.188019    2.052801
     24          1           0       -2.892506    0.583236    2.827835
     25          1           0       -2.280281   -1.003907    2.391729
     26          8           0       -0.861346    2.030022    1.807311
     27          6           0       -4.340239   -0.676442    1.847620
     28          6           0       -5.487996    0.039167    2.092295
     29          1           0       -5.603858    1.021377    2.530620
     30          6           0       -4.763256   -1.927918    1.262194
     31          6           0       -6.184100   -1.888451    1.165665
     32          6           0       -4.096659   -3.088281    0.820154
     33          1           0       -3.020441   -3.193464    0.947047
     34          7           0       -6.592067   -0.677188    1.681239
     35          1           0       -7.550196   -0.386475    1.805529
     36          6           0       -6.237807   -4.056775    0.166840
     37          1           0       -6.789672   -4.894161   -0.250303
     38          6           0       -6.929959   -2.939212    0.619289
     39          1           0       -8.013935   -2.889517    0.559825
     40          6           0       -4.832499   -4.135178    0.274015
     41          1           0       -4.324772   -5.042166   -0.043264
     42          7           0        0.093482    0.490737    0.403366
     43          1           0       -0.093445   -0.162750   -0.348709
     44          6           0        1.423965    1.055826    0.304640
     45          1           0        1.365719    2.141099    0.455785
     46          6           0        1.900359    0.708934   -1.119342
     47          6           0        2.438132    0.458652    1.335435
     48          1           0        3.363984    1.053397    1.247431
     49          8           0        1.311030   -0.130516   -1.798144
     50          6           0        1.935439    0.548663    2.768995
     51          1           0        1.644033    1.570132    3.027396
     52          1           0        2.720812    0.209443    3.450451
     53          1           0        1.065443   -0.100764    2.899738
     54          8           0        2.699997   -0.907361    1.053644
     55          1           0        3.294034   -0.954826    0.285368
     56          7           0        3.033960    1.325583   -1.551983
     57          1           0        3.524733    1.945051   -0.919609
     58          6           0        3.711911    0.903461   -2.767120
     59          1           0        2.932007    0.494163   -3.415928
     60          6           0        4.692379   -0.258077   -2.559152
     61          6           0        4.412557    2.089373   -3.475567
     62          1           0        5.315470    1.715138   -3.968731
     63          1           0        4.757339    2.794408   -2.708110
     64          8           0        5.393485   -0.703798   -3.439574
     65          6           0        3.530855    2.830786   -4.498978
     66          1           0        2.489188    2.861630   -4.157607
     67          1           0        3.866527    3.871818   -4.577766
     68          6           0        3.581547    2.237810   -5.918588
     69          1           0        3.011651    2.879462   -6.600011
     70          1           0        4.615657    2.245882   -6.279514
     71          7           0        3.018562    0.892523   -5.997244
     72          1           0        2.000518    0.819681   -5.700186
     73          7           0        4.916818   -0.298617   -6.752883
     74          1           0        5.474191   -1.087182   -6.450790
     75          1           0        5.439798    0.562842   -6.802371
     76          7           0        3.002229   -1.404557   -6.063760
     77          1           0        2.008278   -1.421146   -5.716449
     78          1           0        3.369729   -2.238265   -6.499295
     79          6           0        3.644491   -0.249017   -6.258713
     80          8           0        4.699145   -0.764868   -1.300547
     81          1           0        5.338012   -1.504643   -1.304424
 ---------------------------------------------------------------------

 SCF Done:  E(RB3LYP) =  -2053.95504110     A.U. after    1 cycles

 Alpha  occ. eigenvalues --  -19.30466 -19.25603 -19.24185 -19.21914 -19.21349
 Alpha  occ. eigenvalues --  -19.19346 -19.16515 -19.16337 -14.58550 -14.49004
 Alpha  occ. eigenvalues --  -14.46431 -14.46314 -14.46049 -14.44424 -14.43786
 Alpha  occ. eigenvalues --  -14.43564 -10.42356 -10.42280 -10.41569 -10.38716
 Alpha  occ. eigenvalues --  -10.38673 -10.36945 -10.34735 -10.33662 -10.33020
 Alpha  occ. eigenvalues --  -10.32080 -10.32064 -10.31778 -10.30395 -10.30389
 Alpha  occ. eigenvalues --  -10.30207 -10.29012 -10.28470 -10.27889 -10.27623
 Alpha  occ. eigenvalues --  -10.27453 -10.27259 -10.27148 -10.26946 -10.26897
 Alpha  occ. eigenvalues --  -10.26680 -10.23831  -1.20909  -1.17982  -1.14003
 Alpha  occ. eigenvalues --   -1.12463  -1.11822  -1.11330  -1.10241  -1.09381
 Alpha  occ. eigenvalues --   -1.09087  -1.06277  -1.05594  -1.02915  -1.01118
 Alpha  occ. eigenvalues --   -1.00449  -0.99588  -0.97763  -0.92395  -0.91915
 Alpha  occ. eigenvalues --   -0.89598  -0.89127  -0.86320  -0.84982  -0.83580
 Alpha  occ. eigenvalues --   -0.82634  -0.82009  -0.80367  -0.79085  -0.77923
 Alpha  occ. eigenvalues --   -0.75528  -0.74297  -0.72808  -0.72428  -0.71849
 Alpha  occ. eigenvalues --   -0.70903  -0.70655  -0.69805  -0.69624  -0.69076
 Alpha  occ. eigenvalues --   -0.68317  -0.67670  -0.66941  -0.65874  -0.65352
 Alpha  occ. eigenvalues --   -0.64243  -0.63751  -0.62718  -0.62029  -0.61024
 Alpha  occ. eigenvalues --   -0.60229  -0.59952  -0.59412  -0.58867  -0.58815
 Alpha  occ. eigenvalues --   -0.57926  -0.57586  -0.57226  -0.56950  -0.56180
 Alpha  occ. eigenvalues --   -0.55980  -0.55680  -0.55437  -0.54898  -0.54369
 Alpha  occ. eigenvalues --   -0.53986  -0.53169  -0.52858  -0.52360  -0.52065
 Alpha  occ. eigenvalues --   -0.51645  -0.51565  -0.51074  -0.51001  -0.50470
 Alpha  occ. eigenvalues --   -0.50330  -0.49938  -0.49581  -0.49296  -0.48659
 Alpha  occ. eigenvalues --   -0.48390  -0.47686  -0.47511  -0.47223  -0.47077
 Alpha  occ. eigenvalues --   -0.46281  -0.46106  -0.45807  -0.45235  -0.44943
 Alpha  occ. eigenvalues --   -0.44736  -0.44446  -0.44193  -0.43641  -0.43425
 Alpha  occ. eigenvalues --   -0.43308  -0.42525  -0.42078  -0.41883  -0.41788
 Alpha  occ. eigenvalues --   -0.40057  -0.39769  -0.39424  -0.39237  -0.37065
 Alpha  occ. eigenvalues --   -0.35991  -0.35813  -0.35555  -0.35089  -0.34086
 Alpha  occ. eigenvalues --   -0.32930  -0.32635  -0.31924  -0.31503  -0.30865
 Alpha  occ. eigenvalues --   -0.30811  -0.28654
 Alpha virt. eigenvalues --   -0.11012  -0.09770  -0.09540  -0.09346  -0.07693
 Alpha virt. eigenvalues --   -0.06436  -0.06163  -0.05945  -0.04851  -0.04460
 Alpha virt. eigenvalues --   -0.03234  -0.02798  -0.01556  -0.01325  -0.01136

 Mulliken charges:
               1
     1  N   -0.753161
     2  H    0.417986
     3  H    0.431188
     4  H    0.414617
     5  C   -0.132013
     6  H    0.208211
     7  C    0.673760
     8  C   -0.291038
     9  H    0.203588
    10  H    0.187096
    11  O   -0.530902
    12  C   -0.375329
    13  H    0.183684
    14  H    0.131790
    15  C    0.645203
    16  O   -0.609815
    17  O   -0.594529
    18  N   -0.620206
    19  H    0.351982
    20  C   -0.062095
    21  H    0.217164
    22  C    0.624644
    23  C   -0.383105
    24  H    0.200517
    25  H    0.159909
    26  O   -0.515645
    27  C    0.070593
    28  C    0.015004
    29  H    0.174424
    30  C    0.082923
    31  C    0.311621
    32  C   -0.251356
    33  H    0.119823
    34  N   -0.683624
    35  H    0.342967
    36  C   -0.165643
    37  H    0.143456
    38  C   -0.163877
    39  H    0.144435
    40  C   -0.157860
    41  H    0.136462
    42  N   -0.617360
    43  H    0.356395
    44  C   -0.060349
    45  H    0.182209
    46  C    0.605934
    47  C    0.130022
    48  H    0.109478
    49  O   -0.528859
    50  C   -0.445207
    51  H    0.170491
    52  H    0.165471
    53  H    0.160468
    54  O   -0.642435
    55  H    0.421645
    56  N   -0.612482
    57  H    0.342092
    58  C   -0.054213
    59  H    0.244089
    60  C    0.607406
    61  C   -0.297168
    62  H    0.168674
    63  H    0.155174
    64  O   -0.466854
    65  C   -0.282920
    66  H    0.191261
    67  H    0.160352
    68  C   -0.155289
    69  H    0.188690
    70  H    0.142839
    71  N   -0.628157
    72  H    0.424307
    73  N   -0.751732
    74  H    0.365071
    75  H    0.356571
    76  N   -0.800028
    77  H    0.432338
    78  H    0.346226
    79  C    0.760725
    80  O   -0.578480
    81  H    0.430754
 Sum of Mulliken charges =   1.00000

 Dipole moment (field-independent basis, Debye):
    X=             -3.1214    Y=             -3.8644    Z=            -14.4633  Tot=             15.2926
 Quadrupole moment (field-independent basis, Debye-Ang):
   XX=            -79.2460   YY=           -221.1633   ZZ=           -169.9262
   XY=             34.4349   XZ=            -27.1320   YZ=             11.7807

 Normal termination of Gaussian 16 at Thu May 26 18:13:20 2022.
