 Gaussian 16, Revision C.01,
 Gaussian 16:  ES64L-G16RevC.01  3-Jul-2019

 ----------------------------------------------------------------------
 # B3LYP/6-31G* empiricaldispersion=gd3bj guess=read geom=check nosymm
 integral(ultrafinegrid)
 ----------------------------------------------------------------------

 ------------------------------------------------------
 Candidate Structure: Conf:315 Charge calc in gas phase
 ------------------------------------------------------
 Structure from the checkpoint file:  "conf-315.chk"
 Charge =  1 Multiplicity = 1

                          Input orientation:
 ---------------------------------------------------------------------
 Center     Atomic      Atomic             Coordinates (Angstroms)
 Number     Number       Type             X           Y           Z
 ---------------------------------------------------------------------
      1          7           0       -8.548033   -0.895102    8.637586
      2          1           0       -9.542038   -0.649968    8.600414
      3          1           0       -8.240323   -0.887649    9.614035
      4          1           0       -8.418953   -1.852030    8.193933
      5          6           0       -7.685518   -0.040913    7.731079
      6          1           0       -8.154178    0.936277    7.605152
      7          6           0       -7.654942   -0.871706    6.429824
      8          6           0       -6.272417    0.076708    8.348408
      9          1           0       -5.957822   -0.925599    8.664102
     10          1           0       -6.337285    0.708451    9.243056
     11          8           0       -7.814692   -2.098753    6.551854
     12          6           0       -5.272957    0.631346    7.360058
     13          6           0       -4.437315   -0.240114    6.651623
     14          1           0       -4.471760   -1.307118    6.858165
     15          6           0       -5.226157    2.002248    7.085501
     16          1           0       -5.864330    2.690057    7.636349
     17          6           0       -3.563411    0.252595    5.683892
     18          1           0       -2.910560   -0.428864    5.146988
     19          6           0       -4.355318    2.494809    6.113384
     20          1           0       -4.325256    3.559627    5.905992
     21          6           0       -3.521224    1.621361    5.414887
     22          1           0       -2.837716    2.004974    4.665078
     23          7           0       -7.416033   -0.208474    5.313597
     24          1           0       -7.255863    0.803245    5.299917
     25          6           0       -7.064616   -0.826287    4.038825
     26          1           0       -6.306954   -1.596188    4.223248
     27          6           0       -6.457717    0.333210    3.218797
     28          6           0       -8.278944   -1.444624    3.335474
     29          1           0       -7.976461   -1.894280    2.385515
     30          1           0       -9.031092   -0.676455    3.131934
     31          1           0       -8.718178   -2.223106    3.964068
     32          8           0       -6.654132    1.500164    3.571899
     33          7           0       -5.771113   -0.042850    2.135824
     34          1           0       -5.565012   -1.021579    1.940656
     35          6           0       -5.126175    0.864758    1.197430
     36          1           0       -5.880306    1.523214    0.750073
     37          6           0       -4.506960   -0.048508    0.128257
     38          6           0       -4.027390    1.709377    1.865162
     39          1           0       -3.521686    2.346791    1.136181
     40          1           0       -3.271115    1.052345    2.301852
     41          1           0       -4.473839    2.327180    2.645506
     42          8           0       -4.389379   -1.255966    0.337985
     43          7           0       -4.071696    0.557908   -1.005881
     44          1           0       -3.997292    1.567824   -0.963671
     45          6           0       -2.987849   -0.084463   -1.752540
     46          1           0       -3.280510   -1.122603   -1.916425
     47          6           0       -1.729564   -0.026222   -0.866920
     48          6           0       -2.757766    0.619986   -3.098994
     49          1           0       -3.710407    0.620969   -3.643707
     50          1           0       -2.491645    1.666475   -2.904716
     51          8           0       -1.512353    0.968407   -0.170477
     52          6           0       -1.664675   -0.042833   -3.906861
     53          6           0       -0.471732    0.622376   -4.199543
     54          1           0       -0.330914    1.644002   -3.854437
     55          6           0       -1.811054   -1.360505   -4.368056
     56          1           0       -2.734550   -1.901315   -4.169301
     57          6           0        0.540640    0.011424   -4.939993
     58          1           0        1.446845    0.556532   -5.186100
     59          6           0       -0.805007   -1.992019   -5.087172
     60          1           0       -0.920083   -3.011459   -5.439836
     61          8           0        1.321739   -1.965430   -6.107544
     62          1           0        2.088610   -1.374787   -6.298005
     63          6           0        0.382257   -1.307939   -5.386889
     64          7           0       -0.955319   -1.126272   -0.886899
     65          1           0       -1.071020   -1.821243   -1.619314
     66          6           0        0.292329   -1.229249   -0.152412
     67          1           0        0.611364   -0.216932    0.109254
     68          6           0        1.294551   -1.878689   -1.111987
     69          6           0        0.134303   -2.090932    1.119095
     70          1           0       -0.128311   -3.106578    0.796399
     71          1           0        1.111942   -2.159647    1.616313
     72          8           0        0.909493   -2.619468   -2.016085
     73          6           0       -0.919909   -1.585175    2.119414
     74          1           0       -1.867098   -1.470401    1.576271
     75          6           0       -1.135033   -2.634084    3.218034
     76          1           0       -0.219003   -2.789764    3.801973
     77          1           0       -1.921545   -2.316405    3.914887
     78          1           0       -1.433949   -3.600850    2.797237
     79          6           0       -0.537924   -0.228691    2.725421
     80          1           0        0.434911   -0.284431    3.231202
     81          1           0       -0.499774    0.552750    1.962542
     82          1           0       -1.277082    0.079738    3.476611
     83          7           0        2.599407   -1.607332   -0.887376
     84          1           0        2.899995   -0.918541   -0.206124
     85          6           0        3.613055   -2.004461   -1.847029
     86          1           0        3.426281   -3.042467   -2.138931
     87          6           0        4.969779   -1.823475   -1.159771
     88          6           0        3.535685   -1.079801   -3.095866
     89          1           0        2.479466   -0.877082   -3.284134
     90          1           0        4.023901   -0.134256   -2.842068
     91          8           0        5.132867   -0.926490   -0.340708
     92          6           0        4.146429   -1.684573   -4.374449
     93          1           0        3.472008   -2.441579   -4.779768
     94          1           0        5.118248   -2.126728   -4.146986
     95          6           0        4.360780   -0.619012   -5.438515
     96          8           0        5.435807    0.168208   -5.296720
     97          8           0        3.608559   -0.450174   -6.387058
     98          7           0        5.972442   -2.660321   -1.559367
     99          1           0        5.740718   -3.257476   -2.343382
    100          6           0        7.354668   -2.167039   -1.550221
    101          1           0        7.709770   -2.068963   -0.522377
    102          6           0        7.431911   -0.794933   -2.254044
    103          6           0        8.198509   -3.191874   -2.333391
    104          1           0        7.745380   -3.288786   -3.330835
    105          1           0        8.074200   -4.165445   -1.844309
    106          8           0        8.346066   -0.005587   -1.918586
    107          6           0        9.710845   -2.951077   -2.491635
    108          1           0       10.134201   -3.882167   -2.890718
    109          1           0       10.172862   -2.806537   -1.508476
    110          6           0       10.186801   -1.781686   -3.381310
    111          1           0       11.234641   -1.945743   -3.657474
    112          1           0       10.116952   -0.849340   -2.831964
    113          7           0        9.392793   -1.650946   -4.612433
    114          1           0        9.182078   -2.510412   -5.101483
    115          7           0        8.907484    0.628790   -4.464966
    116          1           0        8.450896    1.402867   -4.930991
    117          1           0        8.785503    0.612408   -3.419646
    118          7           0        8.190305   -0.595535   -6.301830
    119          1           0        7.313053   -0.081576   -6.369951
    120          1           0        8.194311   -1.471034   -6.807726
    121          6           0        8.817324   -0.543165   -5.097580
    122          8           0        6.622242   -0.659901   -3.215194
    123          1           0        5.916558   -0.032489   -4.429826
 ---------------------------------------------------------------------

 SCF Done:  E(RB3LYP) =  -2974.32744576     A.U. after    1 cycles

 Alpha  occ. eigenvalues --  -19.26025 -19.22848 -19.20925 -19.19791 -19.18850
 Alpha  occ. eigenvalues --  -19.18843 -19.16839 -19.16585 -19.16481 -19.15697
 Alpha  occ. eigenvalues --  -19.15340 -14.60281 -14.48374 -14.46491 -14.45004
 Alpha  occ. eigenvalues --  -14.44364 -14.42790 -14.42690 -14.40878 -14.40836
 Alpha  occ. eigenvalues --  -14.40615 -10.42656 -10.41330 -10.40498 -10.37935
 Alpha  occ. eigenvalues --  -10.37034 -10.36305 -10.33814 -10.33778 -10.33671
 Alpha  occ. eigenvalues --  -10.33551 -10.33493 -10.33174 -10.31326 -10.30387
 Alpha  occ. eigenvalues --  -10.29662 -10.28938 -10.28841 -10.28812 -10.28483
 Alpha  occ. eigenvalues --  -10.28303 -10.28255 -10.28010 -10.27998 -10.27676
 Alpha  occ. eigenvalues --  -10.27603 -10.27454 -10.26261 -10.26062 -10.24716
 Alpha  occ. eigenvalues --  -10.24594 -10.24427 -10.24093 -10.23690 -10.23612
 Alpha  occ. eigenvalues --  -10.22715 -10.22634 -10.22509 -10.22500 -10.21860
 Alpha  occ. eigenvalues --  -10.21651 -10.21506  -1.18659  -1.14227  -1.13897
 Alpha  occ. eigenvalues --   -1.12931  -1.11599  -1.10276  -1.09443  -1.08933
 Alpha  occ. eigenvalues --   -1.08380  -1.07943  -1.07452  -1.05850  -1.05325
 Alpha  occ. eigenvalues --   -1.01212  -1.00386  -0.99828  -0.99538  -0.97689
 Alpha  occ. eigenvalues --   -0.97434  -0.97312  -0.97159  -0.96417  -0.92553
 Alpha  occ. eigenvalues --   -0.88952  -0.88246  -0.86585  -0.86194  -0.85337
 Alpha  occ. eigenvalues --   -0.84767  -0.84407  -0.84080  -0.82635  -0.80968
 Alpha  occ. eigenvalues --   -0.80296  -0.79479  -0.77929  -0.77240  -0.76428
 Alpha  occ. eigenvalues --   -0.76257  -0.74012  -0.73797  -0.73713  -0.73234
 Alpha  occ. eigenvalues --   -0.73150  -0.71600  -0.71274  -0.70483  -0.69891
 Alpha  occ. eigenvalues --   -0.69238  -0.68422  -0.67972  -0.67784  -0.67061
 Alpha  occ. eigenvalues --   -0.66493  -0.66122  -0.65711  -0.65067  -0.64856
 Alpha  occ. eigenvalues --   -0.64242  -0.63195  -0.62850  -0.62793  -0.62168
 Alpha  occ. eigenvalues --   -0.62011  -0.61605  -0.60977  -0.60619  -0.59670
 Alpha  occ. eigenvalues --   -0.58923  -0.58736  -0.58387  -0.57472  -0.57243
 Alpha  occ. eigenvalues --   -0.57062  -0.56542  -0.56382  -0.56288  -0.55978
 Alpha  occ. eigenvalues --   -0.55458  -0.54784  -0.54226  -0.54030  -0.53898
 Alpha  occ. eigenvalues --   -0.53793  -0.53234  -0.52983  -0.52624  -0.52347
 Alpha  occ. eigenvalues --   -0.51921  -0.51859  -0.51626  -0.51269  -0.51231
 Alpha  occ. eigenvalues --   -0.51063  -0.50903  -0.50468  -0.50386  -0.50334
 Alpha  occ. eigenvalues --   -0.50242  -0.50049  -0.49574  -0.49449  -0.48846
 Alpha  occ. eigenvalues --   -0.48383  -0.48156  -0.47984  -0.47502  -0.47388
 Alpha  occ. eigenvalues --   -0.47096  -0.47061  -0.46820  -0.46533  -0.46383
 Alpha  occ. eigenvalues --   -0.46211  -0.45948  -0.45618  -0.45333  -0.45138
 Alpha  occ. eigenvalues --   -0.44963  -0.44770  -0.44523  -0.44302  -0.44085
 Alpha  occ. eigenvalues --   -0.43978  -0.43751  -0.43711  -0.43279  -0.43036
 Alpha  occ. eigenvalues --   -0.42814  -0.42766  -0.42523  -0.42107  -0.41841
 Alpha  occ. eigenvalues --   -0.41602  -0.41422  -0.40845  -0.40551  -0.40538
 Alpha  occ. eigenvalues --   -0.40282  -0.40029  -0.39589  -0.39037  -0.38805
 Alpha  occ. eigenvalues --   -0.38513  -0.37652  -0.37256  -0.37205  -0.36885
 Alpha  occ. eigenvalues --   -0.36442  -0.35750  -0.35571  -0.35226  -0.34768
 Alpha  occ. eigenvalues --   -0.34703  -0.34582  -0.34151  -0.33466  -0.33120
 Alpha  occ. eigenvalues --   -0.32792  -0.32431  -0.31599  -0.31285  -0.30977
 Alpha  occ. eigenvalues --   -0.30391  -0.30061  -0.29707  -0.29254  -0.28703
 Alpha  occ. eigenvalues --   -0.28377  -0.24492
 Alpha virt. eigenvalues --   -0.12176  -0.10911  -0.10619  -0.09816  -0.06709
 Alpha virt. eigenvalues --   -0.06676  -0.05889  -0.05535  -0.04847  -0.03870
 Alpha virt. eigenvalues --   -0.03258  -0.03007  -0.02910  -0.02831  -0.02164

 Mulliken charges:
               1
     1  N   -0.750777
     2  H    0.417648
     3  H    0.414839
     4  H    0.429939
     5  C   -0.111440
     6  H    0.213665
     7  C    0.654999
     8  C   -0.382409
     9  H    0.181547
    10  H    0.185881
    11  O   -0.553691
    12  C    0.150766
    13  C   -0.184758
    14  H    0.143987
    15  C   -0.193491
    16  H    0.134157
    17  C   -0.144506
    18  H    0.173999
    19  C   -0.111179
    20  H    0.160795
    21  C   -0.124763
    22  H    0.167874
    23  N   -0.593207
    24  H    0.382109
    25  C   -0.050499
    26  H    0.185274
    27  C    0.639466
    28  C   -0.452560
    29  H    0.178513
    30  H    0.171586
    31  H    0.186270
    32  O   -0.550161
    33  N   -0.632385
    34  H    0.364684
    35  C   -0.037254
    36  H    0.180560
    37  C    0.625121
    38  C   -0.467854
    39  H    0.175305
    40  H    0.173841
    41  H    0.185427
    42  O   -0.535207
    43  N   -0.586639
    44  H    0.339775
    45  C   -0.068470
    46  H    0.183495
    47  C    0.635591
    48  C   -0.369196
    49  H    0.167223
    50  H    0.152181
    51  O   -0.562008
    52  C    0.159143
    53  C   -0.192810
    54  H    0.127787
    55  C   -0.211202
    56  H    0.123083
    57  C   -0.214075
    58  H    0.145103
    59  C   -0.140963
    60  H    0.140135
    61  O   -0.689549
    62  H    0.453485
    63  C    0.364556
    64  N   -0.589561
    65  H    0.365867
    66  C   -0.076047
    67  H    0.176672
    68  C    0.633566
    69  C   -0.249912
    70  H    0.147860
    71  H    0.139472
    72  O   -0.538833
    73  C   -0.081836
    74  H    0.152070
    75  C   -0.450391
    76  H    0.144666
    77  H    0.124991
    78  H    0.148776
    79  C   -0.478801
    80  H    0.136630
    81  H    0.192712
    82  H    0.122396
    83  N   -0.620295
    84  H    0.351127
    85  C   -0.044917
    86  H    0.170736
    87  C    0.629923
    88  C   -0.291478
    89  H    0.198969
    90  H    0.172291
    91  O   -0.527040
    92  C   -0.384713
    93  H    0.190799
    94  H    0.149054
    95  C    0.588332
    96  O   -0.622718
    97  O   -0.480431
    98  N   -0.602269
    99  H    0.322831
   100  C   -0.002309
   101  H    0.180895
   102  C    0.620312
   103  C   -0.308058
   104  H    0.119840
   105  H    0.167848
   106  O   -0.583786
   107  C   -0.292855
   108  H    0.148529
   109  H    0.178468
   110  C   -0.155258
   111  H    0.173605
   112  H    0.227586
   113  N   -0.588125
   114  H    0.339927
   115  N   -0.737958
   116  H    0.354902
   117  H    0.412284
   118  N   -0.762658
   119  H    0.390787
   120  H    0.347909
   121  C    0.746968
   122  O   -0.623870
   123  H    0.465763
 Sum of Mulliken charges =   1.00000

 Dipole moment (field-independent basis, Debye):
    X=            -17.7189    Y=             -4.8857    Z=             23.7376  Tot=             30.0217
 Quadrupole moment (field-independent basis, Debye-Ang):
   XX=             30.6282   YY=           -342.8680   ZZ=            -73.3055
   XY=            -45.3401   XZ=           -335.3755   YZ=              7.0771

 Normal termination of Gaussian 16 at Thu Aug  4 01:13:50 2022.
