 Gaussian 16, Revision C.01,
 Gaussian 16:  ES64L-G16RevC.01  3-Jul-2019

 ----------------------------------------------------------------------
 # B3LYP/6-31G* empiricaldispersion=gd3bj guess=read geom=check nosymm
 integral(ultrafinegrid)
 ----------------------------------------------------------------------

 ------------------------------------------------------
 Candidate Structure: Conf:890 Charge calc in gas phase
 ------------------------------------------------------
 Structure from the checkpoint file:  "conf-890.chk"
 Charge =  1 Multiplicity = 1

                          Input orientation:
 ---------------------------------------------------------------------
 Center     Atomic      Atomic             Coordinates (Angstroms)
 Number     Number       Type             X           Y           Z
 ---------------------------------------------------------------------
      1          7           0       -8.899934    2.065631    6.250573
      2          1           0       -9.676159    2.288422    5.623156
      3          1           0       -8.943593    2.702855    7.059529
      4          1           0       -8.963940    1.048552    6.525004
      5          6           0       -7.553204    2.151149    5.570725
      6          1           0       -7.662946    2.698746    4.634938
      7          6           0       -7.178455    0.672896    5.336138
      8          6           0       -6.548575    2.885593    6.483642
      9          1           0       -5.658803    3.072278    5.876618
     10          1           0       -6.253245    2.225337    7.306560
     11          8           0       -7.875977   -0.198900    5.878978
     12          6           0       -7.138889    4.169232    7.023417
     13          6           0       -7.441919    5.237956    6.165138
     14          1           0       -7.210842    5.162321    5.106051
     15          6           0       -7.469817    4.273046    8.381701
     16          1           0       -7.222941    3.458718    9.059634
     17          6           0       -8.042831    6.391719    6.663408
     18          1           0       -8.263253    7.216808    5.992911
     19          6           0       -8.075168    5.431149    8.879609
     20          1           0       -8.313175    5.503139    9.936296
     21          6           0       -8.360595    6.491154    8.021368
     22          1           0       -8.826683    7.392855    8.405831
     23          7           0       -6.106390    0.443332    4.588813
     24          1           0       -5.554553    1.191772    4.169408
     25          6           0       -5.616420   -0.896926    4.286478
     26          1           0       -5.590553   -1.474557    5.217055
     27          6           0       -4.189787   -0.698035    3.749186
     28          6           0       -6.514363   -1.606286    3.260316
     29          1           0       -6.168480   -2.627295    3.073479
     30          1           0       -6.507237   -1.059075    2.313880
     31          1           0       -7.535845   -1.662441    3.643521
     32          8           0       -3.752689    0.438569    3.540980
     33          7           0       -3.490768   -1.819195    3.500884
     34          1           0       -3.927915   -2.721023    3.638458
     35          6           0       -2.132407   -1.807012    2.941621
     36          1           0       -1.656275   -0.898204    3.324620
     37          6           0       -2.160346   -1.698561    1.398611
     38          6           0       -1.361210   -3.037105    3.397394
     39          1           0       -0.344545   -3.001191    3.001436
     40          1           0       -1.821836   -3.953967    3.015947
     41          1           0       -1.317680   -3.075089    4.489728
     42          8           0       -1.625785   -2.544413    0.685936
     43          7           0       -2.793426   -0.596871    0.923855
     44          1           0       -3.069460    0.118471    1.591680
     45          6           0       -2.735778   -0.210724   -0.488401
     46          1           0       -2.727588   -1.139867   -1.064658
     47          6           0       -1.396929    0.525780   -0.735577
     48          6           0       -3.964269    0.634455   -0.891363
     49          1           0       -3.675634    1.230727   -1.762143
     50          1           0       -4.759364   -0.047782   -1.207135
     51          8           0       -1.339563    1.743886   -0.914647
     52          6           0       -4.508175    1.535581    0.199154
     53          6           0       -5.789949    1.318984    0.717427
     54          1           0       -6.409521    0.531472    0.295591
     55          6           0       -3.746226    2.582533    0.739677
     56          1           0       -2.756819    2.768236    0.336261
     57          6           0       -6.302050    2.102801    1.751632
     58          1           0       -7.307522    1.939675    2.127885
     59          6           0       -4.235590    3.357274    1.786931
     60          1           0       -3.620503    4.149374    2.209583
     61          8           0       -6.011469    3.818074    3.379202
     62          1           0       -5.401434    4.547872    3.572839
     63          6           0       -5.508041    3.108356    2.297438
     64          7           0       -0.319595   -0.281700   -0.667089
     65          1           0       -0.444038   -1.282440   -0.533921
     66          6           0        1.032479    0.221360   -0.503010
     67          1           0        1.051899    1.241605   -0.891342
     68          6           0        1.982928   -0.683635   -1.283420
     69          6           0        1.453810    0.180676    0.985856
     70          1           0        1.421302   -0.872353    1.294204
     71          1           0        2.506095    0.477885    1.064119
     72          8           0        1.759933   -1.888452   -1.384146
     73          6           0        0.586738    1.024458    1.932907
     74          1           0       -0.463931    0.741526    1.779383
     75          6           0        0.946438    0.700525    3.388894
     76          1           0        1.988438    0.966324    3.603798
     77          1           0        0.308637    1.256682    4.086420
     78          1           0        0.832608   -0.370251    3.600970
     79          6           0        0.709344    2.527490    1.656326
     80          1           0        1.751526    2.856952    1.755217
     81          1           0        0.354814    2.778774    0.652885
     82          1           0        0.111120    3.102586    2.373572
     83          7           0        3.078878   -0.068728   -1.804655
     84          1           0        3.274030    0.863365   -1.460186
     85          6           0        4.241942   -0.876001   -2.137817
     86          1           0        3.867092   -1.711493   -2.731426
     87          6           0        4.820961   -1.456795   -0.820730
     88          6           0        5.223400   -0.068368   -3.004483
     89          1           0        4.634284    0.369033   -3.817741
     90          1           0        5.640491    0.759266   -2.414963
     91          8           0        4.485687   -1.013528    0.279322
     92          6           0        6.372305   -0.892818   -3.621143
     93          1           0        7.087334   -1.189433   -2.848414
     94          1           0        6.890339   -0.262659   -4.349544
     95          6           0        5.823792   -2.133749   -4.342631
     96          8           0        5.812877   -3.215544   -3.603259
     97          8           0        5.379106   -2.062838   -5.484926
     98          7           0        5.640965   -2.515643   -0.992895
     99          1           0        5.831246   -2.839214   -1.958013
    100          6           0        5.976041   -3.400054    0.095862
    101          1           0        5.576133   -2.930321    1.003567
    102          6           0        7.477681   -3.544435    0.312436
    103          6           0        5.326721   -4.787810   -0.091715
    104          1           0        5.533519   -5.376138    0.806060
    105          1           0        5.823792   -5.309447   -0.919337
    106          8           0        7.996186   -4.496495    0.855264
    107          6           0        3.810828   -4.704616   -0.358298
    108          1           0        3.384179   -3.816687    0.120720
    109          1           0        3.307922   -5.567924    0.101878
    110          6           0        3.413809   -4.640543   -1.835809
    111          1           0        3.977049   -3.871834   -2.354521
    112          1           0        2.351436   -4.393048   -1.929014
    113          7           0        3.684465   -5.924566   -2.510677
    114          1           0        3.414089   -6.754987   -2.000660
    115          7           0        4.400115   -5.103887   -4.568152
    116          1           0        4.428084   -5.235488   -5.570682
    117          1           0        4.992854   -4.245840   -4.171927
    118          7           0        3.637249   -7.293853   -4.385493
    119          1           0        4.175088   -7.594793   -5.185305
    120          1           0        3.239197   -8.029530   -3.820919
    121          6           0        3.926763   -6.081592   -3.826377
    122          8           0        8.181058   -2.484069   -0.138720
    123          1           0        9.114260   -2.675184    0.074177
 ---------------------------------------------------------------------

 SCF Done:  E(RB3LYP) =  -2974.31734677     A.U. after    3 cycles

 Alpha  occ. eigenvalues --  -19.28782 -19.26361 -19.23135 -19.22991 -19.19522
 Alpha  occ. eigenvalues --  -19.17310 -19.17164 -19.16158 -19.14337 -19.13266
 Alpha  occ. eigenvalues --  -19.10881 -14.58970 -14.49160 -14.47239 -14.44578
 Alpha  occ. eigenvalues --  -14.44006 -14.43320 -14.40680 -14.40036 -14.39909
 Alpha  occ. eigenvalues --  -14.37281 -10.43111 -10.40104 -10.39616 -10.39427
 Alpha  occ. eigenvalues --  -10.36437 -10.35391 -10.35236 -10.34272 -10.33929
 Alpha  occ. eigenvalues --  -10.33438 -10.32917 -10.32293 -10.32018 -10.31215
 Alpha  occ. eigenvalues --  -10.30776 -10.30456 -10.30242 -10.30184 -10.30167
 Alpha  occ. eigenvalues --  -10.29884 -10.29507 -10.29083 -10.27801 -10.27666
 Alpha  occ. eigenvalues --  -10.27562 -10.27443 -10.27208 -10.26969 -10.26933
 Alpha  occ. eigenvalues --  -10.26281 -10.26259 -10.26239 -10.26089 -10.23907
 Alpha  occ. eigenvalues --  -10.23685 -10.22951 -10.22874 -10.22594 -10.22560
 Alpha  occ. eigenvalues --  -10.21680 -10.20349  -1.18775  -1.16026  -1.15195
 Alpha  occ. eigenvalues --   -1.13893  -1.13201  -1.11417  -1.09097  -1.08029
 Alpha  occ. eigenvalues --   -1.07990  -1.06019  -1.05965  -1.05155  -1.04740
 Alpha  occ. eigenvalues --   -1.03506  -1.00056  -0.97888  -0.97590  -0.97554
 Alpha  occ. eigenvalues --   -0.96779  -0.96617  -0.95351  -0.94694  -0.93809
 Alpha  occ. eigenvalues --   -0.93065  -0.89622  -0.86937  -0.86094  -0.85801
 Alpha  occ. eigenvalues --   -0.85779  -0.84714  -0.84284  -0.83279  -0.82676
 Alpha  occ. eigenvalues --   -0.81429  -0.79545  -0.79282  -0.79126  -0.77371
 Alpha  occ. eigenvalues --   -0.74628  -0.74025  -0.73496  -0.73089  -0.72988
 Alpha  occ. eigenvalues --   -0.72817  -0.72507  -0.71734  -0.71532  -0.70705
 Alpha  occ. eigenvalues --   -0.70066  -0.69688  -0.69529  -0.69259  -0.67349
 Alpha  occ. eigenvalues --   -0.66639  -0.66612  -0.65939  -0.65303  -0.64737
 Alpha  occ. eigenvalues --   -0.64028  -0.63340  -0.62862  -0.62719  -0.62563
 Alpha  occ. eigenvalues --   -0.62255  -0.61826  -0.61528  -0.61176  -0.61106
 Alpha  occ. eigenvalues --   -0.60143  -0.58896  -0.58230  -0.57509  -0.57463
 Alpha  occ. eigenvalues --   -0.57377  -0.57122  -0.56997  -0.56490  -0.56067
 Alpha  occ. eigenvalues --   -0.55739  -0.55517  -0.54951  -0.54244  -0.53922
 Alpha  occ. eigenvalues --   -0.53475  -0.53306  -0.53289  -0.53035  -0.52725
 Alpha  occ. eigenvalues --   -0.52572  -0.52066  -0.51941  -0.51823  -0.51455
 Alpha  occ. eigenvalues --   -0.51376  -0.51099  -0.50862  -0.50764  -0.50657
 Alpha  occ. eigenvalues --   -0.50270  -0.49871  -0.49636  -0.49346  -0.48978
 Alpha  occ. eigenvalues --   -0.48828  -0.48755  -0.48547  -0.48380  -0.47901
 Alpha  occ. eigenvalues --   -0.47550  -0.47496  -0.47309  -0.47093  -0.46941
 Alpha  occ. eigenvalues --   -0.46855  -0.46446  -0.46041  -0.45930  -0.45648
 Alpha  occ. eigenvalues --   -0.45432  -0.45233  -0.45117  -0.44862  -0.44508
 Alpha  occ. eigenvalues --   -0.44289  -0.44142  -0.43876  -0.43458  -0.43285
 Alpha  occ. eigenvalues --   -0.43033  -0.42844  -0.42284  -0.42023  -0.41706
 Alpha  occ. eigenvalues --   -0.41702  -0.41517  -0.41148  -0.40998  -0.40900
 Alpha  occ. eigenvalues --   -0.40352  -0.39650  -0.39151  -0.39087  -0.38647
 Alpha  occ. eigenvalues --   -0.38329  -0.37783  -0.37515  -0.37345  -0.37114
 Alpha  occ. eigenvalues --   -0.37034  -0.36830  -0.36734  -0.36641  -0.36150
 Alpha  occ. eigenvalues --   -0.34981  -0.34748  -0.34698  -0.33550  -0.32518
 Alpha  occ. eigenvalues --   -0.31964  -0.31723  -0.31433  -0.30916  -0.30272
 Alpha  occ. eigenvalues --   -0.30032  -0.29273  -0.28566  -0.27997  -0.27788
 Alpha  occ. eigenvalues --   -0.27252  -0.24752
 Alpha virt. eigenvalues --   -0.13038  -0.12033  -0.10807  -0.09637  -0.09458
 Alpha virt. eigenvalues --   -0.08476  -0.07680  -0.06439  -0.04971  -0.04290
 Alpha virt. eigenvalues --   -0.03315  -0.03137  -0.02539  -0.02440  -0.02247

 Mulliken charges:
               1
     1  N   -0.752522
     2  H    0.414066
     3  H    0.405403
     4  H    0.425986
     5  C   -0.118655
     6  H    0.242698
     7  C    0.650313
     8  C   -0.372135
     9  H    0.205040
    10  H    0.183891
    11  O   -0.550524
    12  C    0.104940
    13  C   -0.194316
    14  H    0.154978
    15  C   -0.215033
    16  H    0.152079
    17  C   -0.125387
    18  H    0.165141
    19  C   -0.120555
    20  H    0.167234
    21  C   -0.124247
    22  H    0.168497
    23  N   -0.621021
    24  H    0.405676
    25  C   -0.055244
    26  H    0.197545
    27  C    0.638550
    28  C   -0.462769
    29  H    0.163981
    30  H    0.178494
    31  H    0.190592
    32  O   -0.550794
    33  N   -0.597191
    34  H    0.344899
    35  C   -0.088469
    36  H    0.209970
    37  C    0.633648
    38  C   -0.463995
    39  H    0.196585
    40  H    0.166175
    41  H    0.157949
    42  O   -0.523412
    43  N   -0.633383
    44  H    0.391494
    45  C   -0.070798
    46  H    0.190313
    47  C    0.627693
    48  C   -0.352425
    49  H    0.195206
    50  H    0.148624
    51  O   -0.535157
    52  C    0.117692
    53  C   -0.188551
    54  H    0.138415
    55  C   -0.199344
    56  H    0.212519
    57  C   -0.181043
    58  H    0.116379
    59  C   -0.173363
    60  H    0.139522
    61  O   -0.691941
    62  H    0.422060
    63  C    0.349239
    64  N   -0.600543
    65  H    0.377071
    66  C   -0.101142
    67  H    0.177693
    68  C    0.655343
    69  C   -0.257983
    70  H    0.143505
    71  H    0.174680
    72  O   -0.548944
    73  C   -0.080847
    74  H    0.112112
    75  C   -0.445967
    76  H    0.157302
    77  H    0.133772
    78  H    0.131636
    79  C   -0.462521
    80  H    0.141733
    81  H    0.178015
    82  H    0.127842
    83  N   -0.586222
    84  H    0.330881
    85  C   -0.093756
    86  H    0.204244
    87  C    0.617391
    88  C   -0.284542
    89  H    0.172810
    90  H    0.139261
    91  O   -0.558568
    92  C   -0.349582
    93  H    0.161286
    94  H    0.158714
    95  C    0.589555
    96  O   -0.668553
    97  O   -0.532004
    98  N   -0.630768
    99  H    0.411005
   100  C   -0.067764
   101  H    0.205036
   102  C    0.593242
   103  C   -0.270262
   104  H    0.165576
   105  H    0.153509
   106  O   -0.472040
   107  C   -0.306401
   108  H    0.189189
   109  H    0.123802
   110  C   -0.147970
   111  H    0.201455
   112  H    0.190826
   113  N   -0.607114
   114  H    0.329794
   115  N   -0.778251
   116  H    0.345761
   117  H    0.468607
   118  N   -0.762800
   119  H    0.360365
   120  H    0.349683
   121  C    0.772585
   122  O   -0.554054
   123  H    0.412102
 Sum of Mulliken charges =   1.00000

 Dipole moment (field-independent basis, Debye):
    X=            -33.6915    Y=              0.2056    Z=             24.2479  Tot=             41.5105
 Quadrupole moment (field-independent basis, Debye-Ang):
   XX=            -94.4173   YY=           -210.0030   ZZ=           -204.2454
   XY=           -107.0075   XZ=           -205.0621   YZ=            113.1841

 Normal termination of Gaussian 16 at Thu Aug  4 01:15:00 2022.
