 Gaussian 16, Revision C.01,
 Gaussian 16:  ES64L-G16RevC.01  3-Jul-2019

 ----------------------------------------------------------------------
 # B3LYP/6-31G* empiricaldispersion=gd3bj guess=read geom=check nosymm
 integral(ultrafinegrid)
 ----------------------------------------------------------------------

 ------------------------------------------------------
 Candidate Structure: Conf:607 Charge calc in gas phase
 ------------------------------------------------------
 Structure from the checkpoint file:  "conf-607.chk"
 Charge =  1 Multiplicity = 1

                          Input orientation:
 ---------------------------------------------------------------------
 Center     Atomic      Atomic             Coordinates (Angstroms)
 Number     Number       Type             X           Y           Z
 ---------------------------------------------------------------------
      1          7           0       -4.906946    7.055458    6.404250
      2          1           0       -5.159154    7.323452    7.357726
      3          1           0       -4.660735    7.891192    5.844430
      4          1           0       -4.074831    6.404075    6.415485
      5          6           0       -5.958118    6.233472    5.698846
      6          1           0       -6.847863    6.196417    6.330940
      7          6           0       -5.307504    4.836879    5.598494
      8          6           0       -6.297481    6.844607    4.301772
      9          1           0       -7.122991    7.551052    4.430779
     10          1           0       -6.642498    6.028314    3.661052
     11          8           0       -4.101410    4.734246    5.837302
     12          6           0       -5.109305    7.537715    3.674536
     13          6           0       -4.931780    8.919491    3.861680
     14          1           0       -5.708564    9.502525    4.354831
     15          6           0       -4.133050    6.808507    2.982186
     16          1           0       -4.282696    5.746751    2.815309
     17          6           0       -3.793325    9.562278    3.366201
     18          1           0       -3.674463   10.632763    3.502330
     19          6           0       -3.003102    7.455863    2.484662
     20          1           0       -2.258418    6.886619    1.936466
     21          6           0       -2.826337    8.828058    2.680386
     22          1           0       -1.944360    9.324700    2.288223
     23          7           0       -6.121978    3.819656    5.277562
     24          1           0       -7.039298    4.067264    4.923581
     25          6           0       -5.569598    2.585918    4.718505
     26          1           0       -4.679318    2.340934    5.302817
     27          6           0       -5.155348    2.881745    3.256232
     28          6           0       -6.598621    1.457031    4.807088
     29          1           0       -6.182401    0.527988    4.409314
     30          1           0       -7.492464    1.697186    4.219738
     31          1           0       -6.893780    1.286485    5.846028
     32          8           0       -5.506164    3.931243    2.706102
     33          7           0       -4.423662    1.930980    2.665882
     34          1           0       -4.209957    1.040803    3.112530
     35          6           0       -4.015497    1.984419    1.271080
     36          1           0       -4.866537    2.325656    0.670345
     37          6           0       -3.657523    0.537291    0.893273
     38          6           0       -2.824974    2.933075    1.052009
     39          1           0       -2.571976    3.008996   -0.009977
     40          1           0       -1.943745    2.567561    1.584428
     41          1           0       -3.089193    3.930920    1.411087
     42          8           0       -3.613382   -0.348975    1.743536
     43          7           0       -3.422679    0.344181   -0.426153
     44          1           0       -3.303716    1.172047   -1.001198
     45          6           0       -2.673091   -0.800866   -0.896916
     46          1           0       -3.070921   -1.690605   -0.398147
     47          6           0       -1.200080   -0.637571   -0.454163
     48          6           0       -2.847432   -0.925601   -2.434326
     49          1           0       -2.336882   -1.829872   -2.786316
     50          1           0       -3.915202   -1.085032   -2.619966
     51          8           0       -0.844234    0.280609    0.287735
     52          6           0       -2.341162    0.293100   -3.166548
     53          6           0       -3.139637    1.442865   -3.296462
     54          1           0       -4.186866    1.403447   -2.999410
     55          6           0       -1.030581    0.357306   -3.657442
     56          1           0       -0.394791   -0.523940   -3.610679
     57          6           0       -2.629115    2.627817   -3.815289
     58          1           0       -3.248234    3.515026   -3.903057
     59          6           0       -0.513677    1.521639   -4.212759
     60          1           0        0.494219    1.549838   -4.611078
     61          8           0       -0.824422    3.871444   -4.683127
     62          1           0        0.177263    3.802210   -4.881813
     63          6           0       -1.292753    2.698321   -4.252487
     64          7           0       -0.336708   -1.583192   -0.892776
     65          1           0       -0.648492   -2.255283   -1.579641
     66          6           0        1.059274   -1.661978   -0.459038
     67          1           0        1.056208   -1.353074    0.592709
     68          6           0        1.988061   -0.663579   -1.200873
     69          6           0        1.547753   -3.103352   -0.599249
     70          1           0        1.249434   -3.479018   -1.587391
     71          1           0        2.641130   -3.092773   -0.633853
     72          8           0        2.970121   -1.041814   -1.844244
     73          6           0        1.054613   -4.052873    0.504087
     74          1           0       -0.028989   -3.909471    0.621194
     75          6           0        1.305772   -5.511596    0.105357
     76          1           0        2.377590   -5.697471   -0.044391
     77          1           0        0.955217   -6.201461    0.880142
     78          1           0        0.792847   -5.763790   -0.829212
     79          6           0        1.719643   -3.743004    1.852276
     80          1           0        2.807052   -3.904822    1.793884
     81          1           0        1.536792   -2.713183    2.182416
     82          1           0        1.344582   -4.402472    2.641295
     83          7           0        1.655805    0.629160   -1.023215
     84          1           0        0.838349    0.840713   -0.454189
     85          6           0        2.373067    1.701405   -1.686782
     86          1           0        2.628998    1.358220   -2.691702
     87          6           0        3.695077    2.005119   -0.966170
     88          6           0        1.466559    2.943211   -1.795335
     89          1           0        0.498621    2.587698   -2.158840
     90          1           0        1.305973    3.358233   -0.791101
     91          8           0        3.882636    1.731584    0.245608
     92          6           0        1.990210    4.050215   -2.735072
     93          1           0        2.816224    4.581071   -2.254950
     94          1           0        1.175252    4.760784   -2.899180
     95          6           0        2.480202    3.505889   -4.098422
     96          8           0        3.648228    3.015039   -4.134919
     97          8           0        1.694505    3.539991   -5.081036
     98          7           0        4.623887    2.539338   -1.757286
     99          1           0        4.318270    2.777947   -2.759391
    100          6           0        5.932084    2.975269   -1.309498
    101          1           0        6.020211    2.745548   -0.239086
    102          6           0        6.066164    4.503180   -1.385511
    103          6           0        7.056663    2.299418   -2.115998
    104          1           0        7.912968    2.978737   -2.121717
    105          1           0        6.716904    2.212020   -3.154973
    106          8           0        7.093396    5.095137   -1.621682
    107          6           0        7.552810    0.936593   -1.610243
    108          1           0        7.995937    1.041633   -0.611234
    109          1           0        8.369568    0.631387   -2.273904
    110          6           0        6.554585   -0.231170   -1.570104
    111          1           0        7.129034   -1.163495   -1.567487
    112          1           0        5.895196   -0.228592   -2.446856
    113          7           0        5.740219   -0.191554   -0.352948
    114          1           0        5.376047    0.718828   -0.054911
    115          7           0        5.333560   -2.486836   -0.145814
    116          1           0        4.622176   -3.176834    0.049077
    117          1           0        5.849745   -2.660627   -0.995870
    118          7           0        4.134800   -0.923518    1.108048
    119          1           0        3.574340   -1.668487    1.494418
    120          1           0        3.745740    0.026027    1.084955
    121          6           0        5.050462   -1.200251    0.163585
    122          8           0        4.906413    5.131156   -1.094137
    123          1           0        5.094557    6.086832   -1.156096
 ---------------------------------------------------------------------

 SCF Done:  E(RB3LYP) =  -2974.32137438     A.U. after    3 cycles

 Alpha  occ. eigenvalues --  -19.26952 -19.25347 -19.21503 -19.20205 -19.19842
 Alpha  occ. eigenvalues --  -19.19583 -19.18518 -19.18278 -19.16916 -19.11640
 Alpha  occ. eigenvalues --  -19.11571 -14.58712 -14.49522 -14.46949 -14.45286
 Alpha  occ. eigenvalues --  -14.45268 -14.45011 -14.44790 -14.43055 -14.41491
 Alpha  occ. eigenvalues --  -14.40126 -10.43417 -10.42380 -10.40344 -10.38506
 Alpha  occ. eigenvalues --  -10.37644 -10.36931 -10.36643 -10.35167 -10.34626
 Alpha  occ. eigenvalues --  -10.34569 -10.33021 -10.31653 -10.31321 -10.31168
 Alpha  occ. eigenvalues --  -10.31014 -10.30878 -10.30190 -10.29852 -10.29683
 Alpha  occ. eigenvalues --  -10.29551 -10.29120 -10.29066 -10.29012 -10.28826
 Alpha  occ. eigenvalues --  -10.28019 -10.27749 -10.27186 -10.26844 -10.26504
 Alpha  occ. eigenvalues --  -10.26260 -10.26179 -10.25687 -10.24833 -10.24647
 Alpha  occ. eigenvalues --  -10.23711 -10.23563 -10.23501 -10.23180 -10.22019
 Alpha  occ. eigenvalues --  -10.21452 -10.20966  -1.19292  -1.16289  -1.13592
 Alpha  occ. eigenvalues --   -1.13017  -1.12485  -1.11466  -1.11298  -1.09939
 Alpha  occ. eigenvalues --   -1.09203  -1.07199  -1.06278  -1.06172  -1.04627
 Alpha  occ. eigenvalues --   -1.01748  -1.01136  -1.00574  -1.00554  -0.99409
 Alpha  occ. eigenvalues --   -0.98399  -0.98134  -0.96739  -0.95862  -0.92625
 Alpha  occ. eigenvalues --   -0.89907  -0.89309  -0.88945  -0.86982  -0.86360
 Alpha  occ. eigenvalues --   -0.85508  -0.84865  -0.84598  -0.83513  -0.82228
 Alpha  occ. eigenvalues --   -0.81444  -0.79037  -0.78501  -0.77634  -0.76888
 Alpha  occ. eigenvalues --   -0.76439  -0.76235  -0.75489  -0.73932  -0.73646
 Alpha  occ. eigenvalues --   -0.72816  -0.72476  -0.72415  -0.71949  -0.70966
 Alpha  occ. eigenvalues --   -0.70475  -0.69100  -0.68965  -0.68812  -0.68047
 Alpha  occ. eigenvalues --   -0.67459  -0.67080  -0.66282  -0.65707  -0.65309
 Alpha  occ. eigenvalues --   -0.64829  -0.64787  -0.64260  -0.64014  -0.63243
 Alpha  occ. eigenvalues --   -0.62996  -0.62481  -0.61928  -0.61015  -0.60186
 Alpha  occ. eigenvalues --   -0.59735  -0.59240  -0.58693  -0.58624  -0.58218
 Alpha  occ. eigenvalues --   -0.57474  -0.57005  -0.56735  -0.56620  -0.56292
 Alpha  occ. eigenvalues --   -0.55985  -0.55904  -0.55799  -0.55482  -0.54588
 Alpha  occ. eigenvalues --   -0.54143  -0.54024  -0.53946  -0.53572  -0.53489
 Alpha  occ. eigenvalues --   -0.53106  -0.53080  -0.52647  -0.52135  -0.51977
 Alpha  occ. eigenvalues --   -0.51673  -0.51380  -0.51158  -0.50830  -0.50767
 Alpha  occ. eigenvalues --   -0.50498  -0.50365  -0.50317  -0.50096  -0.49849
 Alpha  occ. eigenvalues --   -0.49512  -0.49482  -0.49361  -0.48674  -0.48266
 Alpha  occ. eigenvalues --   -0.48063  -0.47946  -0.47853  -0.47679  -0.47383
 Alpha  occ. eigenvalues --   -0.46870  -0.46655  -0.46597  -0.46395  -0.46018
 Alpha  occ. eigenvalues --   -0.45814  -0.45672  -0.45407  -0.45112  -0.45029
 Alpha  occ. eigenvalues --   -0.44836  -0.44647  -0.44617  -0.44519  -0.44236
 Alpha  occ. eigenvalues --   -0.44026  -0.43560  -0.43029  -0.42918  -0.42727
 Alpha  occ. eigenvalues --   -0.42080  -0.41658  -0.41293  -0.41103  -0.40910
 Alpha  occ. eigenvalues --   -0.40779  -0.40776  -0.40495  -0.40337  -0.39874
 Alpha  occ. eigenvalues --   -0.39665  -0.39196  -0.38055  -0.37993  -0.37589
 Alpha  occ. eigenvalues --   -0.36989  -0.36055  -0.35848  -0.35700  -0.35595
 Alpha  occ. eigenvalues --   -0.35327  -0.35185  -0.35154  -0.35046  -0.34457
 Alpha  occ. eigenvalues --   -0.34390  -0.33752  -0.33080  -0.32708  -0.31503
 Alpha  occ. eigenvalues --   -0.31054  -0.30524  -0.29100  -0.27209  -0.26116
 Alpha  occ. eigenvalues --   -0.25760  -0.24335
 Alpha virt. eigenvalues --   -0.12847  -0.11712  -0.11038  -0.09033  -0.07676
 Alpha virt. eigenvalues --   -0.07623  -0.06504  -0.05613  -0.05124  -0.05046
 Alpha virt. eigenvalues --   -0.04789  -0.04554  -0.03996  -0.03314  -0.03106

 Mulliken charges:
               1
     1  N   -0.761957
     2  H    0.408747
     3  H    0.405677
     4  H    0.432013
     5  C   -0.109484
     6  H    0.212201
     7  C    0.654290
     8  C   -0.385295
     9  H    0.185246
    10  H    0.227381
    11  O   -0.526622
    12  C    0.090958
    13  C   -0.236870
    14  H    0.146711
    15  C   -0.179321
    16  H    0.210804
    17  C   -0.118011
    18  H    0.163291
    19  C   -0.132843
    20  H    0.163761
    21  C   -0.124011
    22  H    0.165608
    23  N   -0.560846
    24  H    0.348372
    25  C   -0.091398
    26  H    0.207273
    27  C    0.638447
    28  C   -0.469435
    29  H    0.190175
    30  H    0.168236
    31  H    0.183354
    32  O   -0.550641
    33  N   -0.609036
    34  H    0.363784
    35  C   -0.056450
    36  H    0.186667
    37  C    0.643679
    38  C   -0.457414
    39  H    0.173107
    40  H    0.181918
    41  H    0.167266
    42  O   -0.540969
    43  N   -0.604485
    44  H    0.354931
    45  C   -0.078564
    46  H    0.193117
    47  C    0.657701
    48  C   -0.383295
    49  H    0.144049
    50  H    0.175160
    51  O   -0.550085
    52  C    0.151495
    53  C   -0.235123
    54  H    0.124790
    55  C   -0.183683
    56  H    0.110904
    57  C   -0.168398
    58  H    0.134277
    59  C   -0.225667
    60  H    0.180716
    61  O   -0.685317
    62  H    0.464069
    63  C    0.368304
    64  N   -0.603729
    65  H    0.340958
    66  C   -0.068014
    67  H    0.170304
    68  C    0.626170
    69  C   -0.293178
    70  H    0.153324
    71  H    0.131452
    72  O   -0.559188
    73  C   -0.074373
    74  H    0.140940
    75  C   -0.443709
    76  H    0.135598
    77  H    0.159100
    78  H    0.153597
    79  C   -0.468505
    80  H    0.123086
    81  H    0.149626
    82  H    0.173559
    83  N   -0.626229
    84  H    0.383001
    85  C   -0.056329
    86  H    0.209374
    87  C    0.624462
    88  C   -0.313657
    89  H    0.179910
    90  H    0.138589
    91  O   -0.623903
    92  C   -0.386264
    93  H    0.164369
    94  H    0.154105
    95  C    0.604069
    96  O   -0.592095
    97  O   -0.577249
    98  N   -0.600915
    99  H    0.430733
   100  C   -0.083096
   101  H    0.187646
   102  C    0.596417
   103  C   -0.280276
   104  H    0.193124
   105  H    0.182906
   106  O   -0.450072
   107  C   -0.307548
   108  H    0.159743
   109  H    0.168711
   110  C   -0.151391
   111  H    0.150826
   112  H    0.209767
   113  N   -0.619851
   114  H    0.402548
   115  N   -0.757377
   116  H    0.365784
   117  H    0.374501
   118  N   -0.791276
   119  H    0.355514
   120  H    0.411749
   121  C    0.803187
   122  O   -0.553373
   123  H    0.419595
 Sum of Mulliken charges =   1.00000

 Dipole moment (field-independent basis, Debye):
    X=            -15.6163    Y=             13.5668    Z=             29.7378  Tot=             36.2252
 Quadrupole moment (field-independent basis, Debye-Ang):
   XX=           -184.0957   YY=           -156.8078   ZZ=           -279.8517
   XY=           -162.1885   XZ=           -119.0214   YZ=            187.9119

 Normal termination of Gaussian 16 at Thu Aug  4 01:15:00 2022.
