 Gaussian 16, Revision C.01,
 Gaussian 16:  ES64L-G16RevC.01  3-Jul-2019

 ----------------------------------------------------------------------
 # B3LYP/6-31G* empiricaldispersion=gd3bj guess=read geom=check nosymm
 integral(ultrafinegrid)
 ----------------------------------------------------------------------

 ------------------------------------------------------
 Candidate Structure: Conf:365 Charge calc in gas phase
 ------------------------------------------------------
 Structure from the checkpoint file:  "conf-365.chk"
 Charge =  1 Multiplicity = 1

                          Input orientation:
 ---------------------------------------------------------------------
 Center     Atomic      Atomic             Coordinates (Angstroms)
 Number     Number       Type             X           Y           Z
 ---------------------------------------------------------------------
      1          7           0       -4.981990    4.557782    2.164929
      2          1           0       -3.607181    4.506280    0.895367
      3          1           0       -5.334788    5.515025    2.116704
      4          1           0       -5.628858    3.978952    1.624023
      5          6           0       -5.069890    4.101699    3.565315
      6          1           0       -4.247007    4.568593    4.118998
      7          6           0       -4.915128    2.575011    3.537126
      8          6           0       -6.409113    4.465042    4.259136
      9          1           0       -6.381114    4.083539    5.287495
     10          1           0       -7.211402    3.931925    3.737637
     11          8           0       -5.626816    1.927403    2.767696
     12          6           0       -6.657884    5.952801    4.254199
     13          6           0       -6.043885    6.780878    5.203264
     14          1           0       -5.430537    6.336235    5.984063
     15          6           0       -7.452751    6.543022    3.262981
     16          1           0       -7.950368    5.911161    2.530955
     17          6           0       -6.220513    8.162646    5.165021
     18          1           0       -5.744323    8.789316    5.913555
     19          6           0       -7.630265    7.927372    3.220218
     20          1           0       -8.256028    8.367461    2.449281
     21          6           0       -7.013248    8.740116    4.170597
     22          1           0       -7.153733    9.816488    4.142070
     23          7           0       -3.997148    2.057158    4.392995
     24          1           0       -3.516707    2.754949    4.945869
     25          6           0       -3.232556    0.786617    4.346327
     26          1           0       -2.600613    0.810141    3.447122
     27          6           0       -3.955203   -0.578065    4.231183
     28          6           0       -2.313005    0.773327    5.569212
     29          1           0       -1.716099   -0.137205    5.554696
     30          1           0       -2.900074    0.788094    6.493459
     31          1           0       -1.643774    1.641663    5.557914
     32          8           0       -3.315475   -1.579742    4.563186
     33          7           0       -5.170718   -0.640501    3.655059
     34          1           0       -5.559705    0.214230    3.249332
     35          6           0       -5.753196   -1.928463    3.267169
     36          1           0       -5.322580   -2.672450    3.944067
     37          6           0       -5.330821   -2.292229    1.818190
     38          6           0       -7.270239   -1.891831    3.399103
     39          1           0       -7.698110   -2.850068    3.097243
     40          1           0       -7.699038   -1.123176    2.748747
     41          1           0       -7.549672   -1.680646    4.435215
     42          8           0       -6.156281   -2.553098    0.949384
     43          7           0       -3.987134   -2.256841    1.603560
     44          1           0       -3.357876   -2.100274    2.388579
     45          6           0       -3.351550   -2.252433    0.296589
     46          1           0       -3.358991   -3.264639   -0.132539
     47          6           0       -1.897983   -1.802534    0.529322
     48          6           0       -4.024688   -1.304444   -0.736992
     49          1           0       -3.699023   -1.609855   -1.739064
     50          1           0       -5.098485   -1.507903   -0.695574
     51          8           0       -1.480849   -1.493195    1.645066
     52          6           0       -3.746458    0.173980   -0.550613
     53          6           0       -3.469900    0.712891    0.708985
     54          1           0       -3.442817    0.066809    1.569843
     55          6           0       -3.782882    1.056453   -1.639983
     56          1           0       -3.983352    0.667517   -2.635785
     57          6           0       -3.231982    2.068929    0.879974
     58          1           0       -2.977747    2.467792    1.854731
     59          6           0       -3.612123    2.431786   -1.471685
     60          1           0       -3.691418    3.115228   -2.310976
     61          8           0       -3.225136    4.298870   -0.004386
     62          1           0       -1.827202    4.744729   -0.931843
     63          6           0       -3.356177    2.939694   -0.195964
     64          7           0       -1.135004   -1.673051   -0.583728
     65          1           0       -1.499699   -1.910672   -1.497144
     66          6           0        0.008884   -0.772820   -0.572080
     67          1           0       -0.263976    0.111436    0.013156
     68          6           0        0.294197   -0.385193   -2.020766
     69          6           0        1.237405   -1.452335    0.071626
     70          1           0        0.883148   -1.863846    1.022113
     71          1           0        1.524340   -2.298389   -0.566986
     72          8           0        0.124593   -1.206140   -2.934737
     73          6           0        2.456495   -0.554214    0.339937
     74          1           0        2.869384   -0.211092   -0.618734
     75          6           0        2.109415    0.682251    1.182212
     76          1           0        1.577618    0.387994    2.095152
     77          1           0        3.018551    1.219304    1.475771
     78          1           0        1.476842    1.393885    0.644564
     79          6           0        3.529291   -1.387154    1.063223
     80          1           0        3.197793   -1.642209    2.076686
     81          1           0        3.711382   -2.332662    0.533845
     82          1           0        4.470986   -0.827435    1.149455
     83          7           0        0.793349    0.852472   -2.200753
     84          1           0        0.677207    1.556643   -1.467996
     85          6           0        1.200381    1.367545   -3.511574
     86          1           0        0.430434    1.101823   -4.247066
     87          6           0        2.524441    0.677799   -3.895840
     88          6           0        1.393753    2.884424   -3.462928
     89          1           0        2.124726    3.123746   -2.684737
     90          1           0        1.857717    3.175382   -4.410001
     91          8           0        3.623018    1.162560   -3.642625
     92          6           0        0.113476    3.704482   -3.281058
     93          1           0       -0.710522    3.287967   -3.876714
     94          1           0        0.259931    4.720135   -3.663477
     95          6           0       -0.404366    3.841922   -1.861777
     96          8           0       -1.333420    4.787452   -1.794778
     97          8           0       -0.039574    3.173212   -0.901861
     98          7           0        2.364053   -0.535974   -4.497256
     99          1           0        1.444890   -0.964073   -4.390659
    100          6           0        3.514416   -1.412731   -4.591496
    101          1           0        4.352386   -0.797130   -4.941794
    102          6           0        3.319865   -2.523475   -5.611829
    103          6           0        3.874723   -1.974361   -3.201562
    104          1           0        3.102015   -2.688534   -2.892120
    105          1           0        3.822364   -1.120233   -2.519704
    106          8           0        4.002889   -3.526474   -5.645952
    107          6           0        5.264622   -2.605681   -3.083351
    108          1           0        6.014283   -1.926185   -3.510431
    109          1           0        5.304682   -3.545338   -3.639938
    110          6           0        5.564582   -2.826418   -1.606199
    111          1           0        4.804643   -3.479709   -1.161843
    112          1           0        5.538452   -1.862532   -1.084411
    113          7           0        6.883157   -3.445946   -1.397847
    114          1           0        7.468384   -3.591557   -2.210446
    115          7           0        6.696823   -3.412713    0.907583
    116          1           0        6.944748   -3.795891    1.808187
    117          1           0        5.867845   -2.833728    0.863538
    118          7           0        8.520456   -4.441008   -0.083831
    119          1           0        9.003882   -4.507625    0.800147
    120          1           0        8.991496   -4.814817   -0.894946
    121          6           0        7.366271   -3.761480   -0.199547
    122          8           0        2.325742   -2.279146   -6.482008
    123          1           0        2.298008   -3.039378   -7.094887
 ---------------------------------------------------------------------

 SCF Done:  E(RB3LYP) =  -2974.32238745     A.U. after    3 cycles

 Alpha  occ. eigenvalues --  -19.28039 -19.23936 -19.22340 -19.22038 -19.20397
 Alpha  occ. eigenvalues --  -19.19859 -19.19703 -19.19072 -19.18093 -19.16150
 Alpha  occ. eigenvalues --  -19.15427 -14.53851 -14.53734 -14.53702 -14.44126
 Alpha  occ. eigenvalues --  -14.43251 -14.42812 -14.42064 -14.40384 -14.39916
 Alpha  occ. eigenvalues --  -14.39409 -10.50149 -10.40649 -10.38371 -10.36533
 Alpha  occ. eigenvalues --  -10.36473 -10.36470 -10.35814 -10.34989 -10.33817
 Alpha  occ. eigenvalues --  -10.32458 -10.32391 -10.30733 -10.30447 -10.30192
 Alpha  occ. eigenvalues --  -10.30143 -10.30127 -10.29207 -10.29099 -10.28730
 Alpha  occ. eigenvalues --  -10.27384 -10.27203 -10.27077 -10.26568 -10.26181
 Alpha  occ. eigenvalues --  -10.25601 -10.25584 -10.25454 -10.24523 -10.24517
 Alpha  occ. eigenvalues --  -10.24427 -10.24407 -10.24324 -10.24218 -10.24212
 Alpha  occ. eigenvalues --  -10.24158 -10.24134 -10.23885 -10.23556 -10.23374
 Alpha  occ. eigenvalues --  -10.23133 -10.21419  -1.19108  -1.18686  -1.15869
 Alpha  occ. eigenvalues --   -1.11813  -1.11543  -1.10782  -1.10086  -1.09947
 Alpha  occ. eigenvalues --   -1.09757  -1.08390  -1.07814  -1.07101  -1.07091
 Alpha  occ. eigenvalues --   -1.06795  -1.00447  -1.00246  -1.00011  -0.98940
 Alpha  occ. eigenvalues --   -0.97245  -0.96940  -0.95942  -0.92028  -0.91029
 Alpha  occ. eigenvalues --   -0.90183  -0.89224  -0.87428  -0.85908  -0.84864
 Alpha  occ. eigenvalues --   -0.84239  -0.83402  -0.82247  -0.81582  -0.80465
 Alpha  occ. eigenvalues --   -0.79905  -0.79874  -0.79597  -0.78663  -0.78074
 Alpha  occ. eigenvalues --   -0.77552  -0.76725  -0.76236  -0.73462  -0.73184
 Alpha  occ. eigenvalues --   -0.72365  -0.71924  -0.71524  -0.71160  -0.70522
 Alpha  occ. eigenvalues --   -0.68496  -0.67751  -0.67072  -0.66936  -0.66749
 Alpha  occ. eigenvalues --   -0.66438  -0.66175  -0.65874  -0.65468  -0.65211
 Alpha  occ. eigenvalues --   -0.64317  -0.63795  -0.63646  -0.63239  -0.62926
 Alpha  occ. eigenvalues --   -0.62895  -0.61427  -0.61096  -0.60864  -0.60393
 Alpha  occ. eigenvalues --   -0.59921  -0.58811  -0.58292  -0.58145  -0.57778
 Alpha  occ. eigenvalues --   -0.56842  -0.56642  -0.56299  -0.56123  -0.55860
 Alpha  occ. eigenvalues --   -0.55466  -0.55390  -0.55154  -0.54312  -0.53994
 Alpha  occ. eigenvalues --   -0.53676  -0.53239  -0.53155  -0.52692  -0.52551
 Alpha  occ. eigenvalues --   -0.52259  -0.51868  -0.51824  -0.51499  -0.51364
 Alpha  occ. eigenvalues --   -0.51155  -0.50637  -0.50270  -0.50022  -0.49982
 Alpha  occ. eigenvalues --   -0.49705  -0.49427  -0.49075  -0.48837  -0.48454
 Alpha  occ. eigenvalues --   -0.48240  -0.47788  -0.47566  -0.47371  -0.47301
 Alpha  occ. eigenvalues --   -0.46999  -0.46954  -0.46793  -0.46623  -0.46523
 Alpha  occ. eigenvalues --   -0.46381  -0.46059  -0.45794  -0.45596  -0.45568
 Alpha  occ. eigenvalues --   -0.45460  -0.45169  -0.45068  -0.44874  -0.44750
 Alpha  occ. eigenvalues --   -0.44433  -0.44265  -0.43679  -0.43524  -0.43246
 Alpha  occ. eigenvalues --   -0.42922  -0.42831  -0.42812  -0.42632  -0.42340
 Alpha  occ. eigenvalues --   -0.42172  -0.41977  -0.41614  -0.41294  -0.41167
 Alpha  occ. eigenvalues --   -0.40861  -0.40609  -0.40534  -0.40333  -0.40199
 Alpha  occ. eigenvalues --   -0.40046  -0.39891  -0.39552  -0.39433  -0.39227
 Alpha  occ. eigenvalues --   -0.38630  -0.37456  -0.36482  -0.36169  -0.34993
 Alpha  occ. eigenvalues --   -0.34661  -0.34118  -0.33999  -0.33713  -0.33121
 Alpha  occ. eigenvalues --   -0.33056  -0.31954  -0.31727  -0.31703  -0.31210
 Alpha  occ. eigenvalues --   -0.30540  -0.30067  -0.29735  -0.29580  -0.29307
 Alpha  occ. eigenvalues --   -0.27847  -0.26736
 Alpha virt. eigenvalues --   -0.13612  -0.09974  -0.07763  -0.06827  -0.06551
 Alpha virt. eigenvalues --   -0.06064  -0.05739  -0.05606  -0.05301  -0.05223
 Alpha virt. eigenvalues --   -0.05147  -0.04892  -0.04657  -0.04026  -0.03792

 Mulliken charges:
               1
     1  N   -0.769759
     2  H    0.452340
     3  H    0.334829
     4  H    0.345335
     5  C   -0.054210
     6  H    0.144077
     7  C    0.643779
     8  C   -0.369340
     9  H    0.159086
    10  H    0.175416
    11  O   -0.540860
    12  C    0.160222
    13  C   -0.177853
    14  H    0.124287
    15  C   -0.202950
    16  H    0.135354
    17  C   -0.126248
    18  H    0.142323
    19  C   -0.125425
    20  H    0.144692
    21  C   -0.128249
    22  H    0.144474
    23  N   -0.625006
    24  H    0.339346
    25  C   -0.048120
    26  H    0.204063
    27  C    0.612629
    28  C   -0.482834
    29  H    0.209535
    30  H    0.168164
    31  H    0.138590
    32  O   -0.538831
    33  N   -0.620978
    34  H    0.395245
    35  C   -0.075462
    36  H    0.193709
    37  C    0.622497
    38  C   -0.443874
    39  H    0.173463
    40  H    0.162781
    41  H    0.149864
    42  O   -0.522250
    43  N   -0.651855
    44  H    0.390778
    45  C   -0.029018
    46  H    0.173412
    47  C    0.610165
    48  C   -0.378058
    49  H    0.134314
    50  H    0.228902
    51  O   -0.542179
    52  C    0.149527
    53  C   -0.169068
    54  H    0.138237
    55  C   -0.208014
    56  H    0.127802
    57  C   -0.168352
    58  H    0.117750
    59  C   -0.168539
    60  H    0.141916
    61  O   -0.736002
    62  H    0.458439
    63  C    0.335770
    64  N   -0.615170
    65  H    0.350574
    66  C   -0.025281
    67  H    0.188003
    68  C    0.596240
    69  C   -0.265644
    70  H    0.183555
    71  H    0.130170
    72  O   -0.571185
    73  C   -0.092032
    74  H    0.144269
    75  C   -0.469711
    76  H    0.161513
    77  H    0.143651
    78  H    0.176239
    79  C   -0.477387
    80  H    0.169187
    81  H    0.115212
    82  H    0.134370
    83  N   -0.643820
    84  H    0.412648
    85  C   -0.050794
    86  H    0.170932
    87  C    0.622461
    88  C   -0.300932
    89  H    0.181070
    90  H    0.171090
    91  O   -0.537016
    92  C   -0.368328
    93  H    0.186169
    94  H    0.194067
    95  C    0.611738
    96  O   -0.582955
    97  O   -0.511086
    98  N   -0.604235
    99  H    0.375916
   100  C   -0.054146
   101  H    0.208486
   102  C    0.589739
   103  C   -0.295025
   104  H    0.164796
   105  H    0.184290
   106  O   -0.469519
   107  C   -0.321246
   108  H    0.164319
   109  H    0.202123
   110  C   -0.153848
   111  H    0.193858
   112  H    0.190390
   113  N   -0.614111
   114  H    0.370564
   115  N   -0.773429
   116  H    0.385015
   117  H    0.411179
   118  N   -0.768481
   119  H    0.386725
   120  H    0.387205
   121  C    0.848106
   122  O   -0.544725
   123  H    0.424456
 Sum of Mulliken charges =   1.00000

 Dipole moment (field-independent basis, Debye):
    X=             25.0428    Y=             -6.3339    Z=              1.1112  Tot=             25.8553
 Quadrupole moment (field-independent basis, Debye-Ang):
   XX=           -122.9504   YY=           -264.2246   ZZ=           -304.2573
   XY=           -168.1545   XZ=            -19.1630   YZ=             38.4014

 Normal termination of Gaussian 16 at Thu Aug  4 01:15:06 2022.
