 Gaussian 16, Revision C.01,
 Gaussian 16:  ES64L-G16RevC.01  3-Jul-2019

 ----------------------------------------------------------------------
 # B3LYP/6-31G* empiricaldispersion=gd3bj guess=read geom=check nosymm
 integral(ultrafinegrid)
 ----------------------------------------------------------------------

 ------------------------------------------------------
 Candidate Structure: Conf:608 Charge calc in gas phase
 ------------------------------------------------------
 Structure from the checkpoint file:  "conf-608.chk"
 Charge =  1 Multiplicity = 1

                          Input orientation:
 ---------------------------------------------------------------------
 Center     Atomic      Atomic             Coordinates (Angstroms)
 Number     Number       Type             X           Y           Z
 ---------------------------------------------------------------------
      1          7           0       -3.545603    1.377597    5.149476
      2          1           0       -3.463548    0.378447    4.836647
      3          1           0       -3.156534    1.524675    6.082219
      4          1           0       -3.044641    1.984776    4.467567
      5          6           0       -5.023570    1.663479    5.049285
      6          1           0       -5.459516    1.443566    6.029070
      7          6           0       -5.501265    0.563945    4.063477
      8          6           0       -5.262128    3.139724    4.662903
      9          1           0       -5.023443    3.755567    5.538310
     10          1           0       -6.333173    3.277905    4.483679
     11          8           0       -4.774066   -0.431740    3.926856
     12          6           0       -4.437399    3.565760    3.470836
     13          6           0       -3.110655    4.000156    3.666584
     14          1           0       -2.742114    4.168463    4.679879
     15          6           0       -4.937675    3.467755    2.167290
     16          1           0       -5.965858    3.160495    1.999740
     17          6           0       -2.292361    4.299543    2.575646
     18          1           0       -1.267147    4.628005    2.700430
     19          6           0       -4.122915    3.792226    1.082119
     20          1           0       -4.500647    3.711137    0.070733
     21          6           0       -2.801424    4.186258    1.283715
     22          1           0       -2.153497    4.430448    0.456085
     23          7           0       -6.673969    0.737369    3.464225
     24          1           0       -7.165879    1.627659    3.495992
     25          6           0       -7.123205   -0.102862    2.352003
     26          1           0       -6.262543   -0.686239    2.017622
     27          6           0       -7.572339    0.907828    1.275340
     28          6           0       -8.272965   -1.026648    2.763224
     29          1           0       -8.590024   -1.636692    1.911661
     30          1           0       -9.129660   -0.437887    3.104929
     31          1           0       -7.952159   -1.692500    3.569357
     32          8           0       -8.093334    1.965866    1.645144
     33          7           0       -7.338463    0.514520    0.017091
     34          1           0       -6.850012   -0.363855   -0.139744
     35          6           0       -7.487583    1.263840   -1.236872
     36          1           0       -8.427359    0.956030   -1.717132
     37          6           0       -6.333968    0.700037   -2.104400
     38          6           0       -7.485741    2.782029   -1.072125
     39          1           0       -7.653951    3.252246   -2.046733
     40          1           0       -6.532938    3.129594   -0.663764
     41          1           0       -8.279744    3.098977   -0.398478
     42          8           0       -6.040899   -0.489989   -2.018566
     43          7           0       -5.691257    1.566718   -2.931229
     44          1           0       -5.805006    2.545790   -2.702089
     45          6           0       -4.333580    1.232917   -3.332807
     46          1           0       -4.352633    0.253227   -3.816952
     47          6           0       -3.466849    1.163601   -2.049704
     48          6           0       -3.788336    2.311959   -4.310689
     49          1           0       -2.939629    1.885936   -4.856372
     50          1           0       -4.572503    2.510128   -5.050218
     51          8           0       -3.903460    1.544924   -0.967800
     52          6           0       -3.349323    3.564941   -3.588918
     53          6           0       -4.258988    4.526983   -3.125202
     54          1           0       -5.301166    4.483049   -3.439464
     55          6           0       -2.004170    3.722174   -3.234425
     56          1           0       -1.267961    3.021816   -3.617703
     57          6           0       -3.859204    5.556884   -2.276737
     58          1           0       -4.570187    6.288631   -1.906961
     59          6           0       -1.587596    4.746245   -2.393393
     60          1           0       -0.542626    4.849944   -2.133202
     61          8           0       -2.176623    6.628864   -1.002019
     62          1           0       -1.313444    6.398252   -0.564135
     63          6           0       -2.518709    5.657975   -1.868777
     64          7           0       -2.206705    0.691099   -2.209131
     65          1           0       -1.845702    0.518642   -3.141650
     66          6           0       -1.174148    0.960250   -1.218500
     67          1           0       -1.491163    1.812543   -0.611592
     68          6           0        0.100351    1.341625   -1.970778
     69          6           0       -0.895370   -0.253692   -0.307703
     70          1           0       -0.681136   -1.114720   -0.956739
     71          1           0        0.014219   -0.050933    0.273895
     72          8           0        0.259746    1.005071   -3.164768
     73          6           0       -2.037859   -0.602293    0.658559
     74          1           0       -2.964299   -0.683581    0.077186
     75          6           0       -1.764287   -1.955781    1.325322
     76          1           0       -0.832568   -1.925047    1.907142
     77          1           0       -2.575361   -2.224721    2.011593
     78          1           0       -1.670881   -2.758498    0.583932
     79          6           0       -2.237844    0.494618    1.711454
     80          1           0       -1.314643    0.657753    2.285132
     81          1           0       -2.529796    1.442182    1.257444
     82          1           0       -3.034627    0.195266    2.399851
     83          7           0        1.005026    1.993722   -1.234052
     84          1           0        0.733432    2.414384   -0.302980
     85          6           0        2.252110    2.542255   -1.771728
     86          1           0        2.056351    2.955806   -2.770074
     87          6           0        3.222027    1.362037   -1.912203
     88          6           0        2.786368    3.627020   -0.833052
     89          1           0        2.993643    3.174169    0.140730
     90          1           0        3.747249    3.964094   -1.238242
     91          8           0        4.097070    1.116739   -1.068195
     92          6           0        1.847332    4.827266   -0.659570
     93          1           0        1.500081    5.191458   -1.635669
     94          1           0        2.411625    5.663856   -0.231687
     95          6           0        0.612146    4.638715    0.260990
     96          8           0        0.431576    3.513224    0.821960
     97          8           0       -0.118994    5.649042    0.399004
     98          7           0        2.977420    0.578934   -2.996667
     99          1           0        2.075335    0.750623   -3.456173
    100          6           0        3.505875   -0.763633   -3.019875
    101          1           0        4.396847   -0.716182   -2.404161
    102          6           0        4.018663   -1.277064   -4.347953
    103          6           0        2.512403   -1.789468   -2.397746
    104          1           0        2.620677   -2.768195   -2.879921
    105          1           0        1.498089   -1.438478   -2.610058
    106          8           0        4.738044   -2.262392   -4.401645
    107          6           0        2.727483   -1.922217   -0.885087
    108          1           0        1.842616   -2.368865   -0.417710
    109          1           0        2.842660   -0.929847   -0.440595
    110          6           0        3.920463   -2.824786   -0.524628
    111          1           0        3.639509   -3.873017   -0.662807
    112          1           0        4.206209   -2.694194    0.521910
    113          7           0        5.142613   -2.652226   -1.334812
    114          1           0        5.146129   -3.051473   -2.271928
    115          7           0        5.969770   -0.789319   -0.211999
    116          1           0        6.792936   -0.291025    0.102672
    117          1           0        5.135138   -0.194653   -0.347519
    118          7           0        7.352363   -2.048980   -1.604820
    119          1           0        8.023529   -1.302261   -1.716464
    120          1           0        7.540141   -2.921253   -2.079602
    121          6           0        6.147952   -1.817179   -1.054834
    122          8           0        3.605064   -0.595510   -5.417062
    123          1           0        3.978996   -1.028017   -6.209736
 ---------------------------------------------------------------------

 SCF Done:  E(RB3LYP) =  -2974.32561954     A.U. after    1 cycles

 Alpha  occ. eigenvalues --  -19.30238 -19.24537 -19.23781 -19.21760 -19.19735
 Alpha  occ. eigenvalues --  -19.19366 -19.18407 -19.18153 -19.17468 -19.13019
 Alpha  occ. eigenvalues --  -19.12261 -14.55910 -14.51363 -14.50447 -14.49250
 Alpha  occ. eigenvalues --  -14.46745 -14.44312 -14.43583 -14.41877 -14.41555
 Alpha  occ. eigenvalues --  -14.41553 -10.46727 -10.42664 -10.40767 -10.37924
 Alpha  occ. eigenvalues --  -10.37672 -10.36697 -10.35781 -10.35338 -10.34456
 Alpha  occ. eigenvalues --  -10.34372 -10.33437 -10.32018 -10.30973 -10.30697
 Alpha  occ. eigenvalues --  -10.30658 -10.30312 -10.29339 -10.29327 -10.29209
 Alpha  occ. eigenvalues --  -10.29020 -10.28012 -10.27361 -10.26095 -10.26014
 Alpha  occ. eigenvalues --  -10.25308 -10.25031 -10.24886 -10.24364 -10.24353
 Alpha  occ. eigenvalues --  -10.24267 -10.24227 -10.24136 -10.23499 -10.23291
 Alpha  occ. eigenvalues --  -10.23279 -10.23128 -10.22894 -10.22525 -10.22173
 Alpha  occ. eigenvalues --  -10.22143 -10.22078  -1.21225  -1.16254  -1.15374
 Alpha  occ. eigenvalues --   -1.13083  -1.12028  -1.11549  -1.10958  -1.10638
 Alpha  occ. eigenvalues --   -1.10321  -1.09081  -1.07089  -1.05769  -1.04704
 Alpha  occ. eigenvalues --   -1.03400  -1.03247  -1.02015  -1.00109  -0.99351
 Alpha  occ. eigenvalues --   -0.99078  -0.98327  -0.96833  -0.92923  -0.90727
 Alpha  occ. eigenvalues --   -0.89469  -0.89348  -0.87382  -0.86432  -0.86270
 Alpha  occ. eigenvalues --   -0.84667  -0.84436  -0.82591  -0.81723  -0.80644
 Alpha  occ. eigenvalues --   -0.80487  -0.80438  -0.78636  -0.77227  -0.76891
 Alpha  occ. eigenvalues --   -0.76405  -0.75965  -0.74499  -0.73790  -0.72980
 Alpha  occ. eigenvalues --   -0.72595  -0.72161  -0.71851  -0.71012  -0.70791
 Alpha  occ. eigenvalues --   -0.70166  -0.69570  -0.69176  -0.68483  -0.68195
 Alpha  occ. eigenvalues --   -0.67080  -0.66192  -0.65764  -0.65353  -0.65106
 Alpha  occ. eigenvalues --   -0.64882  -0.64204  -0.63824  -0.63585  -0.63521
 Alpha  occ. eigenvalues --   -0.62994  -0.62723  -0.62153  -0.61914  -0.60273
 Alpha  occ. eigenvalues --   -0.59853  -0.59600  -0.58713  -0.58423  -0.58218
 Alpha  occ. eigenvalues --   -0.57489  -0.57002  -0.56806  -0.56725  -0.56556
 Alpha  occ. eigenvalues --   -0.56382  -0.55553  -0.55173  -0.54918  -0.54326
 Alpha  occ. eigenvalues --   -0.54117  -0.53959  -0.53688  -0.53449  -0.53264
 Alpha  occ. eigenvalues --   -0.52998  -0.52658  -0.52086  -0.51672  -0.51474
 Alpha  occ. eigenvalues --   -0.51339  -0.51048  -0.50708  -0.50492  -0.50166
 Alpha  occ. eigenvalues --   -0.49844  -0.49617  -0.49515  -0.49194  -0.48873
 Alpha  occ. eigenvalues --   -0.48786  -0.48433  -0.48192  -0.47957  -0.47726
 Alpha  occ. eigenvalues --   -0.47419  -0.47304  -0.47206  -0.47010  -0.46830
 Alpha  occ. eigenvalues --   -0.46531  -0.46374  -0.46271  -0.45880  -0.45538
 Alpha  occ. eigenvalues --   -0.45372  -0.45239  -0.44941  -0.44839  -0.44581
 Alpha  occ. eigenvalues --   -0.44498  -0.44319  -0.44060  -0.44004  -0.43873
 Alpha  occ. eigenvalues --   -0.43380  -0.43046  -0.43000  -0.42639  -0.42441
 Alpha  occ. eigenvalues --   -0.42178  -0.42012  -0.41896  -0.41595  -0.41177
 Alpha  occ. eigenvalues --   -0.40240  -0.39937  -0.39698  -0.39681  -0.39594
 Alpha  occ. eigenvalues --   -0.38859  -0.38823  -0.38704  -0.38324  -0.38090
 Alpha  occ. eigenvalues --   -0.37987  -0.37856  -0.36688  -0.36636  -0.36216
 Alpha  occ. eigenvalues --   -0.35106  -0.35040  -0.33977  -0.33697  -0.33094
 Alpha  occ. eigenvalues --   -0.32916  -0.32397  -0.31509  -0.31374  -0.31263
 Alpha  occ. eigenvalues --   -0.30784  -0.30539  -0.29143  -0.28467  -0.27460
 Alpha  occ. eigenvalues --   -0.26441  -0.24864
 Alpha virt. eigenvalues --   -0.12751  -0.10188  -0.09641  -0.07691  -0.07460
 Alpha virt. eigenvalues --   -0.07374  -0.06450  -0.05948  -0.05328  -0.05199
 Alpha virt. eigenvalues --   -0.04657  -0.03919  -0.03077  -0.02935  -0.02344

 Mulliken charges:
               1
     1  N   -0.757142
     2  H    0.428632
     3  H    0.400569
     4  H    0.415704
     5  C   -0.117040
     6  H    0.218472
     7  C    0.665446
     8  C   -0.391383
     9  H    0.180599
    10  H    0.194720
    11  O   -0.540120
    12  C    0.146101
    13  C   -0.268656
    14  H    0.121797
    15  C   -0.208672
    16  H    0.156133
    17  C   -0.101631
    18  H    0.181039
    19  C   -0.121490
    20  H    0.173905
    21  C   -0.122634
    22  H    0.187221
    23  N   -0.594903
    24  H    0.370825
    25  C   -0.075979
    26  H    0.195564
    27  C    0.648287
    28  C   -0.442869
    29  H    0.173127
    30  H    0.175383
    31  H    0.173563
    32  O   -0.552854
    33  N   -0.620906
    34  H    0.364958
    35  C   -0.007557
    36  H    0.187668
    37  C    0.617283
    38  C   -0.516967
    39  H    0.156958
    40  H    0.189674
    41  H    0.208327
    42  O   -0.537208
    43  N   -0.598130
    44  H    0.354251
    45  C   -0.075491
    46  H    0.185247
    47  C    0.652316
    48  C   -0.385778
    49  H    0.156433
    50  H    0.171655
    51  O   -0.542699
    52  C    0.156908
    53  C   -0.212980
    54  H    0.120734
    55  C   -0.211946
    56  H    0.137032
    57  C   -0.169974
    58  H    0.141013
    59  C   -0.188350
    60  H    0.133159
    61  O   -0.682239
    62  H    0.458235
    63  C    0.358240
    64  N   -0.606369
    65  H    0.346049
    66  C   -0.067008
    67  H    0.213382
    68  C    0.626142
    69  C   -0.257023
    70  H    0.126396
    71  H    0.138936
    72  O   -0.603428
    73  C   -0.064536
    74  H    0.156670
    75  C   -0.450399
    76  H    0.124212
    77  H    0.150842
    78  H    0.138021
    79  C   -0.500171
    80  H    0.122780
    81  H    0.206231
    82  H    0.128751
    83  N   -0.642573
    84  H    0.422517
    85  C   -0.059875
    86  H    0.172158
    87  C    0.639790
    88  C   -0.284778
    89  H    0.169090
    90  H    0.142245
    91  O   -0.577722
    92  C   -0.379765
    93  H    0.156875
    94  H    0.170708
    95  C    0.629167
    96  O   -0.621187
    97  O   -0.607443
    98  N   -0.594402
    99  H    0.390593
   100  C   -0.053793
   101  H    0.163326
   102  C    0.590420
   103  C   -0.300931
   104  H    0.160818
   105  H    0.194574
   106  O   -0.492522
   107  C   -0.303101
   108  H    0.174699
   109  H    0.185576
   110  C   -0.156286
   111  H    0.186957
   112  H    0.195160
   113  N   -0.589998
   114  H    0.379318
   115  N   -0.749059
   116  H    0.362435
   117  H    0.435204
   118  N   -0.739489
   119  H    0.378076
   120  H    0.383362
   121  C    0.731409
   122  O   -0.532622
   123  H    0.430013
 Sum of Mulliken charges =   1.00000

 Dipole moment (field-independent basis, Debye):
    X=              8.0398    Y=             -9.1384    Z=              5.6986  Tot=             13.4396
 Quadrupole moment (field-independent basis, Debye-Ang):
   XX=           -148.0638   YY=           -391.1398   ZZ=           -243.0241
   XY=            -45.3721   XZ=            -88.7477   YZ=             27.1198

 Normal termination of Gaussian 16 at Thu Aug  4 01:14:14 2022.
