 Gaussian 16, Revision C.01,
 Gaussian 16:  ES64L-G16RevC.01  3-Jul-2019

 ----------------------------------------------------------------------
 # B3LYP/6-31G* empiricaldispersion=gd3bj guess=read geom=check nosymm
 integral(ultrafinegrid)
 ----------------------------------------------------------------------

 -----------------------------------------------------
 Candidate Structure: Conf:34 Charge calc in gas phase
 -----------------------------------------------------
 Structure from the checkpoint file:  "conf-34.chk"
 Charge =  1 Multiplicity = 1

                          Input orientation:
 ---------------------------------------------------------------------
 Center     Atomic      Atomic             Coordinates (Angstroms)
 Number     Number       Type             X           Y           Z
 ---------------------------------------------------------------------
      1          7           0       -4.823404    1.688643    0.894133
      2          1           0       -5.699136    1.271390    0.575960
      3          1           0       -4.407668    1.101360    1.673311
      4          1           0       -4.117087    1.681819    0.138696
      5          6           0       -4.963692    3.118783    1.343197
      6          1           0       -5.571481    3.634591    0.593396
      7          6           0       -3.495091    3.627576    1.275065
      8          6           0       -5.644935    3.149053    2.721305
      9          1           0       -4.958197    2.722850    3.457709
     10          1           0       -6.514620    2.478839    2.678317
     11          8           0       -2.725688    3.019353    0.525403
     12          6           0       -6.101309    4.529271    3.146099
     13          6           0       -5.539502    5.148768    4.270518
     14          1           0       -4.755710    4.647516    4.832303
     15          6           0       -7.091803    5.202783    2.418698
     16          1           0       -7.550501    4.725902    1.554494
     17          6           0       -5.958338    6.426291    4.650196
     18          1           0       -5.510934    6.896555    5.520533
     19          6           0       -7.510264    6.475255    2.801345
     20          1           0       -8.281048    6.985009    2.230964
     21          6           0       -6.941481    7.091117    3.918877
     22          1           0       -7.266396    8.083524    4.216431
     23          7           0       -3.151866    4.654592    2.067365
     24          1           0       -3.881396    5.037905    2.661325
     25          6           0       -1.795779    4.716674    2.672581
     26          1           0       -1.069982    4.312439    1.966081
     27          6           0       -1.970678    3.771385    3.888624
     28          6           0       -1.439033    6.133812    3.077113
     29          1           0       -0.418801    6.142165    3.470919
     30          1           0       -2.113187    6.497254    3.858649
     31          1           0       -1.485288    6.802585    2.212664
     32          8           0       -2.522992    4.172394    4.914693
     33          7           0       -1.644792    2.493996    3.593034
     34          1           0       -0.959778    2.323480    2.830829
     35          6           0       -1.931418    1.274964    4.353006
     36          1           0       -0.986871    0.890766    4.759112
     37          6           0       -2.421717    0.298070    3.268756
     38          6           0       -2.947083    1.393419    5.484264
     39          1           0       -3.067524    0.408134    5.947328
     40          1           0       -3.922566    1.711940    5.112170
     41          1           0       -2.613839    2.110533    6.231957
     42          8           0       -3.613845    0.278302    2.884108
     43          7           0       -1.467074   -0.473657    2.735696
     44          1           0       -0.500233   -0.174591    2.884036
     45          6           0       -1.682542   -1.153680    1.475931
     46          1           0       -2.591479   -1.754966    1.560677
     47          6           0       -0.481387   -2.062967    1.199510
     48          6           0       -1.828503   -0.135134    0.301624
     49          1           0       -2.168716    0.811384    0.721817
     50          1           0       -0.840631    0.097438   -0.102748
     51          8           0        0.467808   -2.160995    1.970995
     52          6           0       -2.745032   -0.605798   -0.803024
     53          6           0       -2.314615   -0.623990   -2.139999
     54          1           0       -1.297359   -0.320957   -2.371468
     55          6           0       -4.048434   -1.049309   -0.529217
     56          1           0       -4.394438   -1.086217    0.501652
     57          6           0       -3.152482   -1.051845   -3.165262
     58          1           0       -2.814771   -1.071569   -4.196146
     59          6           0       -4.900706   -1.475359   -1.547453
     60          1           0       -5.901998   -1.830205   -1.310726
     61          8           0       -5.225921   -1.887172   -3.917765
     62          1           0       -6.083525   -2.197199   -3.587185
     63          6           0       -4.453382   -1.476998   -2.874197
     64          7           0       -0.511425   -2.677090   -0.022690
     65          1           0       -1.264672   -2.407380   -0.647177
     66          6           0        0.740249   -3.037919   -0.705030
     67          1           0        1.340800   -3.623866   -0.006671
     68          6           0        1.432869   -1.694176   -0.999179
     69          6           0        0.449286   -3.827241   -1.978160
     70          1           0       -0.047672   -3.156669   -2.689464
     71          1           0        1.411989   -4.097210   -2.432666
     72          8           0        1.118880   -1.011238   -1.985423
     73          6           0       -0.393882   -5.096591   -1.771983
     74          1           0       -1.363129   -4.794959   -1.351091
     75          6           0       -0.655898   -5.765621   -3.126540
     76          1           0        0.282997   -6.098817   -3.586541
     77          1           0       -1.299778   -6.644241   -3.012202
     78          1           0       -1.145139   -5.076463   -3.824748
     79          6           0        0.260317   -6.075105   -0.789449
     80          1           0        1.263800   -6.360497   -1.131058
     81          1           0        0.351038   -5.648488    0.215225
     82          1           0       -0.332843   -6.991768   -0.703460
     83          7           0        2.297171   -1.271614   -0.045769
     84          1           0        2.291165   -1.827441    0.804150
     85          6           0        2.549719    0.162174    0.195212
     86          1           0        1.617313    0.699177   -0.014887
     87          6           0        3.619025    0.713487   -0.759717
     88          6           0        2.923421    0.387857    1.660815
     89          1           0        2.252029   -0.225060    2.266981
     90          1           0        3.953751    0.055717    1.826196
     91          8           0        4.705750    1.151037   -0.347589
     92          6           0        2.744243    1.847248    2.080629
     93          1           0        3.349147    2.520519    1.465334
     94          1           0        3.107567    1.968947    3.109301
     95          6           0        1.277173    2.335065    2.058428
     96          8           0        1.078909    3.562130    2.045082
     97          8           0        0.375248    1.422689    2.086584
     98          7           0        3.266041    0.733014   -2.064689
     99          1           0        2.387769    0.269785   -2.325696
    100          6           0        4.139942    1.348796   -3.032266
    101          1           0        4.707508    2.072412   -2.458168
    102          6           0        3.454380    2.193503   -4.084773
    103          6           0        5.152717    0.372287   -3.702368
    104          1           0        5.314234    0.653221   -4.749872
    105          1           0        4.704778   -0.625568   -3.703902
    106          8           0        4.073978    3.018280   -4.737084
    107          6           0        6.492223    0.351640   -2.954835
    108          1           0        7.077184   -0.521941   -3.264726
    109          1           0        6.305716    0.242606   -1.883362
    110          6           0        7.378102    1.579471   -3.230736
    111          1           0        7.801664    1.506870   -4.236689
    112          1           0        8.210990    1.615231   -2.523939
    113          7           0        6.718735    2.899943   -3.195195
    114          1           0        6.176917    3.173042   -4.014277
    115          7           0        6.640016    3.115865   -0.878761
    116          1           0        6.664901    3.745199   -0.086037
    117          1           0        6.141566    2.228963   -0.706174
    118          7           0        6.318842    4.968835   -2.255972
    119          1           0        5.863840    5.504051   -1.529728
    120          1           0        6.456902    5.414680   -3.152270
    121          6           0        6.550049    3.653792   -2.103488
    122          8           0        2.152775    1.944410   -4.244584
    123          1           0        1.818758    2.534433   -4.948280
 ---------------------------------------------------------------------

 SCF Done:  E(RB3LYP) =  -2974.32222378     A.U. after    3 cycles

 Alpha  occ. eigenvalues --  -19.30702 -19.25423 -19.24967 -19.21628 -19.20815
 Alpha  occ. eigenvalues --  -19.20802 -19.20109 -19.19880 -19.15938 -19.12517
 Alpha  occ. eigenvalues --  -19.11206 -14.52902 -14.51054 -14.50106 -14.49005
 Alpha  occ. eigenvalues --  -14.44467 -14.43896 -14.43522 -14.43342 -14.42506
 Alpha  occ. eigenvalues --  -14.39444 -10.46439 -10.43125 -10.37905 -10.37859
 Alpha  occ. eigenvalues --  -10.36975 -10.36641 -10.36066 -10.35173 -10.34193
 Alpha  occ. eigenvalues --  -10.33693 -10.33073 -10.32910 -10.30898 -10.30679
 Alpha  occ. eigenvalues --  -10.30248 -10.29914 -10.29401 -10.29034 -10.28976
 Alpha  occ. eigenvalues --  -10.28890 -10.27498 -10.27460 -10.27287 -10.27253
 Alpha  occ. eigenvalues --  -10.27113 -10.26600 -10.26288 -10.26154 -10.25856
 Alpha  occ. eigenvalues --  -10.25764 -10.25453 -10.25365 -10.25328 -10.25163
 Alpha  occ. eigenvalues --  -10.25152 -10.23727 -10.23035 -10.23033 -10.22820
 Alpha  occ. eigenvalues --  -10.22131 -10.21995  -1.21682  -1.15082  -1.13603
 Alpha  occ. eigenvalues --   -1.13281  -1.13115  -1.12473  -1.12379  -1.11535
 Alpha  occ. eigenvalues --   -1.10874  -1.07882  -1.07362  -1.04974  -1.04391
 Alpha  occ. eigenvalues --   -1.02977  -1.01913  -1.00768  -1.00200  -1.00185
 Alpha  occ. eigenvalues --   -0.99895  -0.96667  -0.95885  -0.93397  -0.92870
 Alpha  occ. eigenvalues --   -0.90726  -0.88187  -0.87995  -0.86545  -0.86099
 Alpha  occ. eigenvalues --   -0.84712  -0.83407  -0.82826  -0.82196  -0.81587
 Alpha  occ. eigenvalues --   -0.81134  -0.80489  -0.80279  -0.79332  -0.76898
 Alpha  occ. eigenvalues --   -0.76666  -0.74954  -0.74129  -0.73996  -0.72746
 Alpha  occ. eigenvalues --   -0.72340  -0.71907  -0.71406  -0.70685  -0.70287
 Alpha  occ. eigenvalues --   -0.69587  -0.69079  -0.68736  -0.68339  -0.67309
 Alpha  occ. eigenvalues --   -0.67107  -0.66863  -0.66526  -0.66046  -0.65373
 Alpha  occ. eigenvalues --   -0.64947  -0.64442  -0.64034  -0.63569  -0.63418
 Alpha  occ. eigenvalues --   -0.62927  -0.62699  -0.62181  -0.61490  -0.60217
 Alpha  occ. eigenvalues --   -0.59928  -0.59422  -0.58904  -0.58772  -0.58168
 Alpha  occ. eigenvalues --   -0.57823  -0.57515  -0.57292  -0.56912  -0.56481
 Alpha  occ. eigenvalues --   -0.56228  -0.55946  -0.55849  -0.54949  -0.54489
 Alpha  occ. eigenvalues --   -0.54160  -0.53878  -0.53750  -0.53418  -0.52882
 Alpha  occ. eigenvalues --   -0.52772  -0.52362  -0.52247  -0.52186  -0.51980
 Alpha  occ. eigenvalues --   -0.51872  -0.51701  -0.51177  -0.50982  -0.50414
 Alpha  occ. eigenvalues --   -0.50224  -0.49947  -0.49658  -0.49366  -0.49073
 Alpha  occ. eigenvalues --   -0.48656  -0.48651  -0.48360  -0.48307  -0.48203
 Alpha  occ. eigenvalues --   -0.48076  -0.47647  -0.47502  -0.46977  -0.46776
 Alpha  occ. eigenvalues --   -0.46428  -0.46342  -0.46260  -0.46077  -0.45735
 Alpha  occ. eigenvalues --   -0.45500  -0.45357  -0.44771  -0.44586  -0.44471
 Alpha  occ. eigenvalues --   -0.44285  -0.44078  -0.43685  -0.43441  -0.43135
 Alpha  occ. eigenvalues --   -0.42960  -0.42796  -0.42572  -0.42422  -0.42405
 Alpha  occ. eigenvalues --   -0.42186  -0.42157  -0.42029  -0.41813  -0.41249
 Alpha  occ. eigenvalues --   -0.41130  -0.40967  -0.40572  -0.40396  -0.40341
 Alpha  occ. eigenvalues --   -0.40036  -0.39751  -0.39462  -0.38832  -0.38764
 Alpha  occ. eigenvalues --   -0.38613  -0.38596  -0.37645  -0.36839  -0.35824
 Alpha  occ. eigenvalues --   -0.35118  -0.34622  -0.34578  -0.34199  -0.33895
 Alpha  occ. eigenvalues --   -0.33690  -0.33234  -0.33050  -0.31799  -0.31765
 Alpha  occ. eigenvalues --   -0.31482  -0.29671  -0.29556  -0.28804  -0.27726
 Alpha  occ. eigenvalues --   -0.27241  -0.25352
 Alpha virt. eigenvalues --   -0.12436  -0.09969  -0.09209  -0.08638  -0.07957
 Alpha virt. eigenvalues --   -0.07359  -0.07257  -0.06999  -0.06969  -0.06271
 Alpha virt. eigenvalues --   -0.06125  -0.05286  -0.03180  -0.02448  -0.01616

 Mulliken charges:
               1
     1  N   -0.796565
     2  H    0.384511
     3  H    0.471568
     4  H    0.418305
     5  C   -0.113406
     6  H    0.206215
     7  C    0.641658
     8  C   -0.398689
     9  H    0.216402
    10  H    0.166592
    11  O   -0.522263
    12  C    0.130454
    13  C   -0.231554
    14  H    0.206451
    15  C   -0.174218
    16  H    0.119247
    17  C   -0.130257
    18  H    0.157140
    19  C   -0.126566
    20  H    0.146769
    21  C   -0.124309
    22  H    0.150142
    23  N   -0.599343
    24  H    0.365559
    25  C   -0.077125
    26  H    0.231505
    27  C    0.601013
    28  C   -0.461287
    29  H    0.181272
    30  H    0.162498
    31  H    0.150588
    32  O   -0.545642
    33  N   -0.650634
    34  H    0.423774
    35  C   -0.027358
    36  H    0.164518
    37  C    0.621689
    38  C   -0.456560
    39  H    0.149613
    40  H    0.162806
    41  H    0.194136
    42  O   -0.618416
    43  N   -0.556827
    44  H    0.388541
    45  C   -0.058439
    46  H    0.189925
    47  C    0.607082
    48  C   -0.410435
    49  H    0.205605
    50  H    0.191396
    51  O   -0.524841
    52  C    0.102312
    53  C   -0.214329
    54  H    0.179222
    55  C   -0.237641
    56  H    0.145815
    57  C   -0.158492
    58  H    0.155804
    59  C   -0.198848
    60  H    0.131958
    61  O   -0.630218
    62  H    0.414891
    63  C    0.356500
    64  N   -0.601247
    65  H    0.356950
    66  C   -0.057523
    67  H    0.178170
    68  C    0.617021
    69  C   -0.288658
    70  H    0.160179
    71  H    0.144528
    72  O   -0.567959
    73  C   -0.071819
    74  H    0.131144
    75  C   -0.444120
    76  H    0.144136
    77  H    0.152016
    78  H    0.143230
    79  C   -0.455221
    80  H    0.141701
    81  H    0.155295
    82  H    0.154635
    83  N   -0.601462
    84  H    0.372810
    85  C   -0.069036
    86  H    0.208073
    87  C    0.649767
    88  C   -0.292175
    89  H    0.176478
    90  H    0.142716
    91  O   -0.574385
    92  C   -0.357783
    93  H    0.130550
    94  H    0.157274
    95  C    0.590394
    96  O   -0.568850
    97  O   -0.655726
    98  N   -0.622418
    99  H    0.400881
   100  C   -0.030006
   101  H    0.163855
   102  C    0.589482
   103  C   -0.283939
   104  H    0.163510
   105  H    0.182906
   106  O   -0.488835
   107  C   -0.303439
   108  H    0.172073
   109  H    0.189406
   110  C   -0.155780
   111  H    0.186427
   112  H    0.196843
   113  N   -0.594386
   114  H    0.381174
   115  N   -0.748314
   116  H    0.365767
   117  H    0.435794
   118  N   -0.741106
   119  H    0.381064
   120  H    0.382910
   121  C    0.730876
   122  O   -0.536237
   123  H    0.431173
 Sum of Mulliken charges =   1.00000

 Dipole moment (field-independent basis, Debye):
    X=              5.4416    Y=              9.6654    Z=            -11.4726  Tot=             15.9578
 Quadrupole moment (field-independent basis, Debye-Ang):
   XX=           -129.4992   YY=           -280.4860   ZZ=           -334.8298
   XY=             37.2269   XZ=            -59.2126   YZ=            -19.6813

 Normal termination of Gaussian 16 at Thu Aug  4 01:00:52 2022.
