 Gaussian 16, Revision C.01,
 Gaussian 16:  ES64L-G16RevC.01  3-Jul-2019

 ----------------------------------------------------------------------
 # B3LYP/6-31G* empiricaldispersion=gd3bj guess=read geom=check nosymm
 integral(ultrafinegrid)
 ----------------------------------------------------------------------

 ------------------------------------------------------
 Candidate Structure: Conf:727 Charge calc in gas phase
 ------------------------------------------------------
 Structure from the checkpoint file:  "conf-727.chk"
 Charge =  1 Multiplicity = 1

                          Input orientation:
 ---------------------------------------------------------------------
 Center     Atomic      Atomic             Coordinates (Angstroms)
 Number     Number       Type             X           Y           Z
 ---------------------------------------------------------------------
      1          7           0       -2.832560    3.965275   -0.686185
      2          1           0       -2.122338    3.591234   -1.457768
      3          1           0       -2.615733    4.946733   -0.497593
      4          1           0       -3.816617    3.939092   -1.015021
      5          6           0       -2.804098    3.159796    0.574361
      6          1           0       -2.251150    2.242472    0.358935
      7          6           0       -4.277090    2.789089    0.875799
      8          6           0       -2.095726    3.954652    1.690027
      9          1           0       -2.671007    4.869528    1.879098
     10          1           0       -1.117271    4.263853    1.296829
     11          8           0       -5.173374    3.315861    0.210671
     12          6           0       -1.914489    3.188352    2.980931
     13          6           0       -2.503305    3.645066    4.164818
     14          1           0       -3.088698    4.561143    4.155355
     15          6           0       -1.172154    2.001401    3.007522
     16          1           0       -0.726376    1.614227    2.098216
     17          6           0       -2.340185    2.936310    5.354579
     18          1           0       -2.798726    3.304690    6.267270
     19          6           0       -1.021079    1.284021    4.191813
     20          1           0       -0.468142    0.351030    4.178815
     21          6           0       -1.598177    1.755423    5.370225
     22          1           0       -1.482527    1.197971    6.294520
     23          7           0       -4.427157    1.861723    1.829070
     24          1           0       -3.621040    1.592120    2.394395
     25          6           0       -5.688330    1.346616    2.370366
     26          1           0       -6.157263    2.124762    2.989553
     27          6           0       -5.215818    0.217487    3.314977
     28          6           0       -6.674088    0.904015    1.287115
     29          1           0       -7.630209    0.615813    1.737045
     30          1           0       -6.279385    0.060285    0.712833
     31          1           0       -6.866142    1.730795    0.603260
     32          8           0       -4.099866    0.299006    3.836218
     33          7           0       -6.023400   -0.847080    3.501068
     34          1           0       -6.854393   -0.940425    2.932088
     35          6           0       -5.495901   -2.089320    4.100319
     36          1           0       -4.786783   -1.780698    4.870880
     37          6           0       -4.760572   -2.817575    2.951482
     38          6           0       -6.619775   -2.929179    4.683602
     39          1           0       -6.207651   -3.825823    5.154009
     40          1           0       -7.303251   -3.260809    3.896722
     41          1           0       -7.171456   -2.358599    5.435775
     42          8           0       -5.291782   -3.716337    2.310514
     43          7           0       -3.535065   -2.299950    2.639497
     44          1           0       -3.235034   -1.444731    3.103484
     45          6           0       -2.990057   -2.525328    1.311549
     46          1           0       -3.007828   -3.600173    1.114671
     47          6           0       -1.549014   -2.004365    1.278851
     48          6           0       -3.864921   -1.807556    0.235084
     49          1           0       -4.812547   -2.351754    0.182745
     50          1           0       -4.066632   -0.796611    0.603099
     51          8           0       -1.242055   -0.930219    1.808202
     52          6           0       -3.155048   -1.727240   -1.086569
     53          6           0       -2.651994   -0.500888   -1.526541
     54          1           0       -2.939321    0.409330   -1.007176
     55          6           0       -2.816015   -2.883833   -1.803460
     56          1           0       -3.240440   -3.841953   -1.511395
     57          6           0       -1.748328   -0.428836   -2.582061
     58          1           0       -1.356842    0.535471   -2.886030
     59          6           0       -1.884105   -2.830966   -2.838068
     60          1           0       -1.557196   -3.729698   -3.350842
     61          8           0       -0.226211   -1.582529   -4.059520
     62          1           0        0.554653   -1.618016   -3.452694
     63          6           0       -1.308684   -1.607990   -3.180028
     64          7           0       -0.660950   -2.791614    0.630698
     65          1           0       -1.006889   -3.584505    0.107904
     66          6           0        0.756631   -2.458357    0.488439
     67          1           0        1.051428   -1.989299    1.430125
     68          6           0        0.970029   -1.432580   -0.640370
     69          6           0        1.578723   -3.725498    0.260431
     70          1           0        1.378234   -4.401473    1.102047
     71          1           0        1.219409   -4.218066   -0.652263
     72          8           0        1.274490   -1.759692   -1.793927
     73          6           0        3.097622   -3.492864    0.136748
     74          1           0        3.274270   -2.962523   -0.805787
     75          6           0        3.656792   -2.627048    1.274133
     76          1           0        3.378049   -3.030158    2.256954
     77          1           0        4.750479   -2.599346    1.226759
     78          1           0        3.312309   -1.590096    1.204231
     79          6           0        3.812100   -4.847563    0.067670
     80          1           0        3.692949   -5.403402    1.006398
     81          1           0        3.415214   -5.470114   -0.743003
     82          1           0        4.885226   -4.714002   -0.105598
     83          7           0        0.815567   -0.154519   -0.251449
     84          1           0        0.501179    0.007798    0.697996
     85          6           0        1.151210    0.960941   -1.108528
     86          1           0        0.599866    0.855733   -2.045541
     87          6           0        2.659719    0.937860   -1.428343
     88          6           0        0.735027    2.260647   -0.398447
     89          1           0       -0.288142    2.103068   -0.045386
     90          1           0        1.369375    2.406549    0.483254
     91          8           0        3.478654    0.460488   -0.656076
     92          6           0        0.769647    3.519923   -1.283343
     93          1           0        1.798417    3.805708   -1.510274
     94          1           0        0.302921    4.346717   -0.733545
     95          6           0        0.006063    3.243175   -2.577410
     96          8           0       -1.255062    3.096871   -2.535956
     97          8           0        0.691771    3.048301   -3.619727
     98          7           0        2.979821    1.482766   -2.638001
     99          1           0        2.277682    2.069158   -3.095133
    100          6           0        4.372469    1.682539   -2.969667
    101          1           0        4.928518    0.867814   -2.498326
    102          6           0        4.892316    2.984283   -2.359909
    103          6           0        4.610620    1.638267   -4.491141
    104          1           0        4.089543    0.746906   -4.856470
    105          1           0        5.677869    1.476193   -4.662955
    106          8           0        4.214215    3.829133   -1.817856
    107          6           0        4.151872    2.900061   -5.262758
    108          1           0        5.024329    3.449903   -5.631144
    109          1           0        3.620715    3.593326   -4.597769
    110          6           0        3.234073    2.604067   -6.455038
    111          1           0        3.648248    1.807015   -7.079189
    112          1           0        3.143660    3.486640   -7.095865
    113          7           0        1.886188    2.245687   -6.013931
    114          1           0        1.432796    2.930519   -5.408917
    115          7           0        1.914943   -0.064939   -6.458725
    116          1           0        1.373846   -0.918415   -6.489367
    117          1           0        2.634335    0.032000   -7.158269
    118          7           0        0.169663    0.904575   -5.283201
    119          1           0       -0.111187   -0.030467   -4.961461
    120          1           0       -0.073436    1.695929   -4.676128
    121          6           0        1.334892    1.030588   -5.918747
    122          8           0        6.224819    3.099005   -2.529653
    123          1           0        6.494583    3.943520   -2.120651
 ---------------------------------------------------------------------

 SCF Done:  E(RB3LYP) =  -2974.38668637     A.U. after    3 cycles

 Alpha  occ. eigenvalues --  -19.27721 -19.24944 -19.23068 -19.22282 -19.21686
 Alpha  occ. eigenvalues --  -19.21142 -19.21063 -19.20869 -19.20618 -19.19244
 Alpha  occ. eigenvalues --  -19.19099 -14.52076 -14.48438 -14.47523 -14.46185
 Alpha  occ. eigenvalues --  -14.46121 -14.45395 -14.44808 -14.44539 -14.43095
 Alpha  occ. eigenvalues --  -14.42943 -10.43707 -10.40033 -10.39985 -10.38807
 Alpha  occ. eigenvalues --  -10.38405 -10.37965 -10.37374 -10.36169 -10.36131
 Alpha  occ. eigenvalues --  -10.36109 -10.33786 -10.33629 -10.32491 -10.31862
 Alpha  occ. eigenvalues --  -10.31836 -10.31639 -10.31549 -10.31343 -10.31048
 Alpha  occ. eigenvalues --  -10.29137 -10.28612 -10.28389 -10.28254 -10.27798
 Alpha  occ. eigenvalues --  -10.27546 -10.27488 -10.27478 -10.27375 -10.27326
 Alpha  occ. eigenvalues --  -10.27109 -10.27091 -10.26943 -10.26816 -10.26508
 Alpha  occ. eigenvalues --  -10.26362 -10.26260 -10.25680 -10.25291 -10.24660
 Alpha  occ. eigenvalues --  -10.22745 -10.22544  -1.18696  -1.15180  -1.14053
 Alpha  occ. eigenvalues --   -1.13953  -1.13212  -1.12771  -1.12426  -1.12012
 Alpha  occ. eigenvalues --   -1.11081  -1.10924  -1.09670  -1.07723  -1.04850
 Alpha  occ. eigenvalues --   -1.03180  -1.02386  -1.02226  -1.01912  -1.01281
 Alpha  occ. eigenvalues --   -1.00286  -1.00023  -0.99891  -0.94109  -0.93974
 Alpha  occ. eigenvalues --   -0.89897  -0.89713  -0.88909  -0.88080  -0.87523
 Alpha  occ. eigenvalues --   -0.86560  -0.84515  -0.84212  -0.83246  -0.82954
 Alpha  occ. eigenvalues --   -0.82252  -0.81981  -0.80687  -0.79570  -0.77756
 Alpha  occ. eigenvalues --   -0.77189  -0.75418  -0.74690  -0.74347  -0.73819
 Alpha  occ. eigenvalues --   -0.72821  -0.72723  -0.71904  -0.71424  -0.69932
 Alpha  occ. eigenvalues --   -0.69775  -0.69472  -0.68935  -0.68491  -0.68096
 Alpha  occ. eigenvalues --   -0.67870  -0.67528  -0.66965  -0.66531  -0.66329
 Alpha  occ. eigenvalues --   -0.66119  -0.65460  -0.65192  -0.64642  -0.63871
 Alpha  occ. eigenvalues --   -0.62832  -0.62370  -0.62066  -0.61760  -0.61018
 Alpha  occ. eigenvalues --   -0.60481  -0.59966  -0.59605  -0.59209  -0.58679
 Alpha  occ. eigenvalues --   -0.58257  -0.58149  -0.57724  -0.57446  -0.57184
 Alpha  occ. eigenvalues --   -0.57078  -0.56903  -0.56787  -0.56261  -0.55873
 Alpha  occ. eigenvalues --   -0.55670  -0.55196  -0.54747  -0.54594  -0.54231
 Alpha  occ. eigenvalues --   -0.54006  -0.53795  -0.53681  -0.53561  -0.53085
 Alpha  occ. eigenvalues --   -0.53081  -0.52805  -0.52623  -0.52114  -0.51774
 Alpha  occ. eigenvalues --   -0.51317  -0.51082  -0.50886  -0.50677  -0.50581
 Alpha  occ. eigenvalues --   -0.50312  -0.49873  -0.49788  -0.49515  -0.49428
 Alpha  occ. eigenvalues --   -0.49227  -0.49159  -0.48953  -0.48719  -0.48605
 Alpha  occ. eigenvalues --   -0.48529  -0.48303  -0.48122  -0.47905  -0.47199
 Alpha  occ. eigenvalues --   -0.47033  -0.46818  -0.46667  -0.46541  -0.46373
 Alpha  occ. eigenvalues --   -0.46071  -0.45627  -0.45407  -0.45032  -0.44915
 Alpha  occ. eigenvalues --   -0.44676  -0.44658  -0.44241  -0.44121  -0.43716
 Alpha  occ. eigenvalues --   -0.43582  -0.43487  -0.43303  -0.43168  -0.42693
 Alpha  occ. eigenvalues --   -0.42594  -0.42417  -0.42203  -0.42014  -0.41773
 Alpha  occ. eigenvalues --   -0.39944  -0.39245  -0.39027  -0.38497  -0.38416
 Alpha  occ. eigenvalues --   -0.38189  -0.37070  -0.36927  -0.36724  -0.36688
 Alpha  occ. eigenvalues --   -0.36652  -0.36188  -0.35945  -0.35377  -0.35239
 Alpha  occ. eigenvalues --   -0.35137  -0.34960  -0.34582  -0.33822  -0.33745
 Alpha  occ. eigenvalues --   -0.33475  -0.32710  -0.32644  -0.32371  -0.32306
 Alpha  occ. eigenvalues --   -0.32052  -0.31066
 Alpha virt. eigenvalues --   -0.09689  -0.09232  -0.08959  -0.08469  -0.08223
 Alpha virt. eigenvalues --   -0.08073  -0.07976  -0.07709  -0.07159  -0.06656
 Alpha virt. eigenvalues --   -0.06270  -0.05446  -0.04735  -0.04704  -0.04563

 Mulliken charges:
               1
     1  N   -0.801805
     2  H    0.459147
     3  H    0.382921
     4  H    0.407921
     5  C   -0.105636
     6  H    0.215323
     7  C    0.637867
     8  C   -0.385286
     9  H    0.170795
    10  H    0.184192
    11  O   -0.534525
    12  C    0.127636
    13  C   -0.181005
    14  H    0.135044
    15  C   -0.187426
    16  H    0.128829
    17  C   -0.118210
    18  H    0.148654
    19  C   -0.104979
    20  H    0.150694
    21  C   -0.114208
    22  H    0.148111
    23  N   -0.646240
    24  H    0.410655
    25  C   -0.014450
    26  H    0.199692
    27  C    0.607925
    28  C   -0.502446
    29  H    0.161451
    30  H    0.169862
    31  H    0.218620
    32  O   -0.534652
    33  N   -0.595691
    34  H    0.349899
    35  C   -0.069469
    36  H    0.192866
    37  C    0.615383
    38  C   -0.459424
    39  H    0.180107
    40  H    0.174995
    41  H    0.164436
    42  O   -0.516372
    43  N   -0.626766
    44  H    0.379095
    45  C   -0.030509
    46  H    0.176573
    47  C    0.631440
    48  C   -0.381511
    49  H    0.192405
    50  H    0.148547
    51  O   -0.569158
    52  C    0.169038
    53  C   -0.196043
    54  H    0.119863
    55  C   -0.223617
    56  H    0.149676
    57  C   -0.172071
    58  H    0.160050
    59  C   -0.141179
    60  H    0.154259
    61  O   -0.734565
    62  H    0.459830
    63  C    0.323235
    64  N   -0.594690
    65  H    0.342726
    66  C   -0.070547
    67  H    0.182416
    68  C    0.695004
    69  C   -0.279746
    70  H    0.147420
    71  H    0.144647
    72  O   -0.592515
    73  C   -0.082923
    74  H    0.158175
    75  C   -0.463686
    76  H    0.135214
    77  H    0.154317
    78  H    0.163887
    79  C   -0.447283
    80  H    0.144008
    81  H    0.141220
    82  H    0.151203
    83  N   -0.616966
    84  H    0.376725
    85  C   -0.035735
    86  H    0.159493
    87  C    0.637546
    88  C   -0.332190
    89  H    0.148606
    90  H    0.184131
    91  O   -0.521105
    92  C   -0.388953
    93  H    0.216800
    94  H    0.136634
    95  C    0.624728
    96  O   -0.602304
    97  O   -0.602283
    98  N   -0.644625
    99  H    0.390693
   100  C   -0.069266
   101  H    0.214509
   102  C    0.605672
   103  C   -0.292715
   104  H    0.161825
   105  H    0.182210
   106  O   -0.462291
   107  C   -0.294196
   108  H    0.174086
   109  H    0.173300
   110  C   -0.171488
   111  H    0.156469
   112  H    0.190713
   113  N   -0.598134
   114  H    0.395290
   115  N   -0.759852
   116  H    0.381079
   117  H    0.368612
   118  N   -0.809482
   119  H    0.408734
   120  H    0.396153
   121  C    0.766840
   122  O   -0.560767
   123  H    0.422869
 Sum of Mulliken charges =   1.00000

 Dipole moment (field-independent basis, Debye):
    X=             -2.9520    Y=              7.0086    Z=             -7.9844  Tot=             11.0266
 Quadrupole moment (field-independent basis, Debye-Ang):
   XX=           -283.0261   YY=           -307.9794   ZZ=           -245.9718
   XY=             -0.5806   XZ=            -76.5435   YZ=             -9.2732

 Normal termination of Gaussian 16 at Thu Aug  4 01:15:55 2022.
