 Gaussian 16, Revision C.01,
 Gaussian 16:  ES64L-G16RevC.01  3-Jul-2019

 ----------------------------------------------------------------------
 # B3LYP/6-31G* empiricaldispersion=gd3bj guess=read geom=check nosymm
 integral(ultrafinegrid)
 ----------------------------------------------------------------------

 ------------------------------------------------------
 Candidate Structure: Conf:586 Charge calc in gas phase
 ------------------------------------------------------
 Structure from the checkpoint file:  "conf-586.chk"
 Charge =  1 Multiplicity = 1

                          Input orientation:
 ---------------------------------------------------------------------
 Center     Atomic      Atomic             Coordinates (Angstroms)
 Number     Number       Type             X           Y           Z
 ---------------------------------------------------------------------
      1          7           0       -4.152900    1.578381    8.264991
      2          1           0       -4.864195    0.823165    8.043968
      3          1           0       -4.124438    1.791533    9.263792
      4          1           0       -3.230090    1.237190    7.944654
      5          6           0       -4.611416    2.723827    7.395151
      6          1           0       -4.972616    3.524318    8.045750
      7          6           0       -5.785246    2.099112    6.596433
      8          6           0       -3.449053    3.214551    6.495258
      9          1           0       -2.742178    3.775332    7.116112
     10          1           0       -3.860770    3.923905    5.770570
     11          8           0       -6.048135    0.905854    6.790212
     12          6           0       -2.756288    2.059426    5.808415
     13          6           0       -1.586245    1.517709    6.364741
     14          1           0       -1.105773    2.014823    7.206679
     15          6           0       -3.315114    1.451283    4.675840
     16          1           0       -4.210788    1.862799    4.224441
     17          6           0       -0.998820    0.378722    5.805410
     18          1           0       -0.087986   -0.027237    6.234351
     19          6           0       -2.722966    0.324471    4.107921
     20          1           0       -3.163654   -0.116258    3.218434
     21          6           0       -1.572530   -0.220277    4.685025
     22          1           0       -1.114940   -1.103686    4.255610
     23          7           0       -6.409661    2.894037    5.729596
     24          1           0       -6.129350    3.862526    5.612100
     25          6           0       -7.312008    2.391378    4.677205
     26          1           0       -7.236097    1.302622    4.699743
     27          6           0       -6.720364    2.992745    3.388450
     28          6           0       -8.751825    2.843711    4.899357
     29          1           0       -9.395658    2.435166    4.114183
     30          1           0       -8.813224    3.934474    4.859228
     31          1           0       -9.116550    2.490691    5.867776
     32          8           0       -6.696618    4.215379    3.258312
     33          7           0       -6.191696    2.105383    2.525165
     34          1           0       -6.163104    1.113080    2.745185
     35          6           0       -5.470589    2.450537    1.307024
     36          1           0       -6.161719    2.916799    0.594373
     37          6           0       -4.948281    1.117993    0.754132
     38          6           0       -4.275735    3.392195    1.553716
     39          1           0       -3.762064    3.613740    0.614500
     40          1           0       -3.547872    2.916052    2.216478
     41          1           0       -4.629632    4.322627    1.999059
     42          8           0       -4.867660    0.122188    1.476177
     43          7           0       -4.554446    1.135851   -0.539836
     44          1           0       -4.482842    2.043636   -0.982732
     45          6           0       -3.626900    0.128552   -1.043996
     46          1           0       -4.019321   -0.847920   -0.751803
     47          6           0       -2.257239    0.347597   -0.359737
     48          6           0       -3.553175    0.231588   -2.588644
     49          1           0       -4.480224   -0.189575   -2.995876
     50          1           0       -3.534783    1.293080   -2.862999
     51          8           0       -1.809117    1.482495   -0.187092
     52          6           0       -2.313887   -0.428846   -3.141480
     53          6           0       -1.332370    0.338581   -3.775178
     54          1           0       -1.535275    1.382459   -4.001657
     55          6           0       -2.041336   -1.781721   -2.894686
     56          1           0       -2.812084   -2.420981   -2.465727
     57          6           0       -0.073257   -0.185649   -4.062916
     58          1           0        0.703660    0.425272   -4.511812
     59          6           0       -0.775352   -2.305845   -3.132925
     60          1           0       -0.536784   -3.332091   -2.872210
     61          8           0        1.537027   -1.915049   -3.693358
     62          1           0        1.756810   -2.141021   -2.764145
     63          6           0        0.232686   -1.483588   -3.650691
     64          7           0       -1.641165   -0.776797    0.077838
     65          1           0       -1.973924   -1.666586   -0.268527
     66          6           0       -0.305919   -0.759509    0.675451
     67          1           0       -0.260781    0.152280    1.274981
     68          6           0        0.768093   -0.682390   -0.421717
     69          6           0       -0.102306   -1.984025    1.563550
     70          1           0       -0.893780   -1.972610    2.324285
     71          1           0       -0.252644   -2.887565    0.959992
     72          8           0        1.307334   -1.696730   -0.877892
     73          6           0        1.286233   -2.070579    2.233449
     74          1           0        1.995973   -2.376618    1.458044
     75          6           0        1.780423   -0.729605    2.796890
     76          1           0        1.042719   -0.270995    3.468909
     77          1           0        2.702165   -0.880721    3.368833
     78          1           0        2.019931   -0.017587    2.000781
     79          6           0        1.261844   -3.154953    3.316824
     80          1           0        0.599293   -2.872245    4.147431
     81          1           0        0.904434   -4.112313    2.919940
     82          1           0        2.262068   -3.315951    3.732706
     83          7           0        1.067385    0.569317   -0.810853
     84          1           0        0.478517    1.325323   -0.480348
     85          6           0        2.116175    0.832465   -1.777614
     86          1           0        1.856248    0.362421   -2.721048
     87          6           0        3.443692    0.227868   -1.288781
     88          6           0        2.225209    2.351026   -2.006740
     89          1           0        1.317157    2.668706   -2.533044
     90          1           0        2.232297    2.846205   -1.027952
     91          8           0        3.842006    0.311598   -0.133626
     92          6           0        3.471015    2.816519   -2.766859
     93          1           0        4.374442    2.629528   -2.177996
     94          1           0        3.428176    3.903265   -2.910837
     95          6           0        3.696601    2.178709   -4.126329
     96          8           0        4.862644    2.548676   -4.647428
     97          8           0        2.927832    1.391829   -4.663371
     98          7           0        4.140248   -0.328666   -2.311907
     99          1           0        3.684460   -0.353746   -3.217268
    100          6           0        5.543347   -0.718175   -2.293276
    101          1           0        5.658374   -1.777378   -2.040027
    102          6           0        6.363018    0.041367   -1.256211
    103          6           0        6.065973   -0.404281   -3.707901
    104          1           0        5.837921    0.645369   -3.888345
    105          1           0        5.467703   -0.986258   -4.418736
    106          8           0        7.127826   -0.480618   -0.481187
    107          6           0        7.548205   -0.612589   -3.996916
    108          1           0        7.817115   -1.677408   -3.968829
    109          1           0        8.166407   -0.115628   -3.239058
    110          6           0        7.903639   -0.010020   -5.366949
    111          1           0        8.981102   -0.100913   -5.546654
    112          1           0        7.653397    1.053414   -5.387490
    113          7           0        7.206532   -0.635052   -6.484231
    114          1           0        7.348999   -1.630986   -6.588018
    115          7           0        5.491972    0.953605   -6.737526
    116          1           0        4.730714    1.172746   -7.377847
    117          1           0        5.101558    1.959943   -5.445921
    118          7           0        5.599283   -1.012211   -8.074463
    119          1           0        4.821427   -0.653678   -8.612476
    120          1           0        6.312255   -1.428759   -8.662253
    121          6           0        6.068620   -0.155471   -7.079488
    122          8           0        6.257019    1.386130   -1.395641
    123          1           0        6.818846    1.772635   -0.698713
 ---------------------------------------------------------------------

 SCF Done:  E(RB3LYP) =  -2974.31086195     A.U. after    2 cycles

 Alpha  occ. eigenvalues --  -19.27132 -19.23732 -19.21825 -19.21429 -19.20560
 Alpha  occ. eigenvalues --  -19.20133 -19.19496 -19.17883 -19.17830 -19.17103
 Alpha  occ. eigenvalues --  -19.15764 -14.59165 -14.50268 -14.46037 -14.45275
 Alpha  occ. eigenvalues --  -14.43796 -14.41639 -14.40901 -14.40760 -14.40325
 Alpha  occ. eigenvalues --  -14.35343 -10.43926 -10.41022 -10.38804 -10.38413
 Alpha  occ. eigenvalues --  -10.36393 -10.36121 -10.35326 -10.34992 -10.34597
 Alpha  occ. eigenvalues --  -10.34503 -10.34331 -10.33061 -10.32802 -10.31988
 Alpha  occ. eigenvalues --  -10.31646 -10.30782 -10.29998 -10.29928 -10.29622
 Alpha  occ. eigenvalues --  -10.29355 -10.29300 -10.29013 -10.28389 -10.27683
 Alpha  occ. eigenvalues --  -10.27468 -10.27101 -10.27048 -10.26535 -10.25088
 Alpha  occ. eigenvalues --  -10.24851 -10.24785 -10.24784 -10.24377 -10.24028
 Alpha  occ. eigenvalues --  -10.23895 -10.23892 -10.23734 -10.23406 -10.23174
 Alpha  occ. eigenvalues --  -10.22787 -10.22133  -1.19615  -1.14607  -1.14095
 Alpha  occ. eigenvalues --   -1.13597  -1.13170  -1.12491  -1.11222  -1.09669
 Alpha  occ. eigenvalues --   -1.08281  -1.07453  -1.06686  -1.05529  -1.04023
 Alpha  occ. eigenvalues --   -1.03723  -1.02505  -1.01963  -1.00185  -0.98299
 Alpha  occ. eigenvalues --   -0.97520  -0.97409  -0.94811  -0.93308  -0.91195
 Alpha  occ. eigenvalues --   -0.90467  -0.89168  -0.87566  -0.86875  -0.85790
 Alpha  occ. eigenvalues --   -0.85698  -0.85496  -0.84427  -0.84258  -0.81341
 Alpha  occ. eigenvalues --   -0.80050  -0.79854  -0.79792  -0.78569  -0.76995
 Alpha  occ. eigenvalues --   -0.76802  -0.74853  -0.74400  -0.73515  -0.72975
 Alpha  occ. eigenvalues --   -0.72752  -0.72690  -0.72063  -0.71070  -0.70719
 Alpha  occ. eigenvalues --   -0.69777  -0.69534  -0.69180  -0.67585  -0.66982
 Alpha  occ. eigenvalues --   -0.66884  -0.66398  -0.66259  -0.65519  -0.64540
 Alpha  occ. eigenvalues --   -0.63931  -0.63773  -0.63616  -0.62536  -0.62075
 Alpha  occ. eigenvalues --   -0.61891  -0.61339  -0.60723  -0.59972  -0.59591
 Alpha  occ. eigenvalues --   -0.59346  -0.58775  -0.58460  -0.57880  -0.57727
 Alpha  occ. eigenvalues --   -0.57536  -0.56948  -0.56880  -0.56829  -0.56240
 Alpha  occ. eigenvalues --   -0.55890  -0.55511  -0.54884  -0.54434  -0.54020
 Alpha  occ. eigenvalues --   -0.53869  -0.53437  -0.53381  -0.52994  -0.52891
 Alpha  occ. eigenvalues --   -0.52387  -0.52265  -0.52091  -0.51986  -0.51769
 Alpha  occ. eigenvalues --   -0.51443  -0.51370  -0.51312  -0.51006  -0.50709
 Alpha  occ. eigenvalues --   -0.50594  -0.50203  -0.49777  -0.49563  -0.49504
 Alpha  occ. eigenvalues --   -0.49130  -0.49039  -0.48531  -0.48309  -0.48125
 Alpha  occ. eigenvalues --   -0.47603  -0.47424  -0.47303  -0.47260  -0.47070
 Alpha  occ. eigenvalues --   -0.46602  -0.46458  -0.46249  -0.46114  -0.46004
 Alpha  occ. eigenvalues --   -0.45820  -0.45387  -0.45297  -0.45221  -0.44967
 Alpha  occ. eigenvalues --   -0.44691  -0.44547  -0.44225  -0.43981  -0.43661
 Alpha  occ. eigenvalues --   -0.43286  -0.42905  -0.42657  -0.42461  -0.42263
 Alpha  occ. eigenvalues --   -0.42052  -0.41754  -0.41655  -0.41443  -0.40584
 Alpha  occ. eigenvalues --   -0.40453  -0.39960  -0.39882  -0.39723  -0.39187
 Alpha  occ. eigenvalues --   -0.38693  -0.38459  -0.38407  -0.38036  -0.37566
 Alpha  occ. eigenvalues --   -0.36625  -0.36300  -0.35871  -0.35751  -0.35707
 Alpha  occ. eigenvalues --   -0.35246  -0.34887  -0.34647  -0.34471  -0.34300
 Alpha  occ. eigenvalues --   -0.33755  -0.32808  -0.32069  -0.31561  -0.31411
 Alpha  occ. eigenvalues --   -0.30882  -0.30618  -0.30053  -0.29770  -0.29002
 Alpha  occ. eigenvalues --   -0.28540  -0.27530
 Alpha virt. eigenvalues --   -0.13321  -0.12259  -0.11863  -0.09107  -0.08137
 Alpha virt. eigenvalues --   -0.07253  -0.06273  -0.05805  -0.05110  -0.04882
 Alpha virt. eigenvalues --   -0.03687  -0.03652  -0.03329  -0.02662  -0.01699

 Mulliken charges:
               1
     1  N   -0.760221
     2  H    0.435203
     3  H    0.410482
     4  H    0.405293
     5  C   -0.107852
     6  H    0.221240
     7  C    0.651245
     8  C   -0.387358
     9  H    0.191682
    10  H    0.202741
    11  O   -0.529608
    12  C    0.127033
    13  C   -0.243416
    14  H    0.148050
    15  C   -0.177752
    16  H    0.144218
    17  C   -0.118856
    18  H    0.167755
    19  C   -0.148734
    20  H    0.200589
    21  C   -0.128655
    22  H    0.178943
    23  N   -0.587941
    24  H    0.362143
    25  C   -0.059685
    26  H    0.191661
    27  C    0.609533
    28  C   -0.447858
    29  H    0.179971
    30  H    0.185599
    31  H    0.171373
    32  O   -0.529620
    33  N   -0.624657
    34  H    0.362641
    35  C   -0.025682
    36  H    0.185358
    37  C    0.622507
    38  C   -0.473218
    39  H    0.173807
    40  H    0.166521
    41  H    0.198435
    42  O   -0.541366
    43  N   -0.588282
    44  H    0.344560
    45  C   -0.058949
    46  H    0.177012
    47  C    0.639696
    48  C   -0.365215
    49  H    0.175759
    50  H    0.148764
    51  O   -0.559635
    52  C    0.161862
    53  C   -0.194888
    54  H    0.130904
    55  C   -0.223837
    56  H    0.121521
    57  C   -0.186282
    58  H    0.196226
    59  C   -0.156585
    60  H    0.141307
    61  O   -0.690634
    62  H    0.442854
    63  C    0.342420
    64  N   -0.586587
    65  H    0.337217
    66  C   -0.072521
    67  H    0.174722
    68  C    0.689483
    69  C   -0.283292
    70  H    0.128450
    71  H    0.151476
    72  O   -0.582170
    73  C   -0.078149
    74  H    0.177714
    75  C   -0.475487
    76  H    0.114576
    77  H    0.153972
    78  H    0.180972
    79  C   -0.454560
    80  H    0.120937
    81  H    0.148030
    82  H    0.155908
    83  N   -0.619517
    84  H    0.359509
    85  C   -0.039257
    86  H    0.199204
    87  C    0.641282
    88  C   -0.296561
    89  H    0.157743
    90  H    0.151774
    91  O   -0.541665
    92  C   -0.388799
    93  H    0.217635
    94  H    0.176687
    95  C    0.588328
    96  O   -0.610815
    97  O   -0.500745
    98  N   -0.648159
    99  H    0.367257
   100  C    0.031212
   101  H    0.174114
   102  C    0.596474
   103  C   -0.336527
   104  H    0.190456
   105  H    0.161290
   106  O   -0.466462
   107  C   -0.276407
   108  H    0.140108
   109  H    0.160222
   110  C   -0.145224
   111  H    0.157169
   112  H    0.191220
   113  N   -0.593188
   114  H    0.328842
   115  N   -0.719177
   116  H    0.297979
   117  H    0.471328
   118  N   -0.760020
   119  H    0.335627
   120  H    0.334220
   121  C    0.663193
   122  O   -0.565540
   123  H    0.414371
 Sum of Mulliken charges =   1.00000

 Dipole moment (field-independent basis, Debye):
    X=            -14.5564    Y=              7.9228    Z=             19.7467  Tot=             25.7797
 Quadrupole moment (field-independent basis, Debye-Ang):
   XX=           -232.5432   YY=           -334.4102   ZZ=            -60.1672
   XY=            -45.5494   XZ=           -165.1572   YZ=             74.2227

 Normal termination of Gaussian 16 at Thu Aug  4 01:14:37 2022.
