 Gaussian 16, Revision C.01,
 Gaussian 16:  ES64L-G16RevC.01  3-Jul-2019

 ----------------------------------------------------------------------
 # B3LYP/6-31G* empiricaldispersion=gd3bj guess=read geom=check nosymm
 integral(ultrafinegrid)
 ----------------------------------------------------------------------

 ------------------------------------------------------
 Candidate Structure: Conf:126 Charge calc in gas phase
 ------------------------------------------------------
 Structure from the checkpoint file:  "conf-126.chk"
 Charge =  1 Multiplicity = 1

                          Input orientation:
 ---------------------------------------------------------------------
 Center     Atomic      Atomic             Coordinates (Angstroms)
 Number     Number       Type             X           Y           Z
 ---------------------------------------------------------------------
      1          7           0       -9.720177   -1.044065    1.386236
      2          1           0       -9.575381   -1.335907    0.415262
      3          1           0      -10.718288   -0.880146    1.536752
      4          1           0       -9.339721   -1.801588    2.029281
      5          6           0       -8.849211    0.138347    1.765593
      6          1           0       -8.600772    0.713378    0.869920
      7          6           0       -7.627384   -0.572729    2.392317
      8          6           0       -9.596805    1.025925    2.794190
      9          1           0       -9.577867    0.533159    3.773281
     10          1           0      -10.648250    1.095203    2.486002
     11          8           0       -7.814005   -1.723315    2.831934
     12          6           0       -9.028222    2.426530    2.867871
     13          6           0       -7.883498    2.710278    3.617581
     14          1           0       -7.410200    1.931556    4.204922
     15          6           0       -9.629518    3.457153    2.130656
     16          1           0      -10.532999    3.254873    1.559482
     17          6           0       -7.324872    3.988751    3.603324
     18          1           0       -6.414825    4.176174    4.162552
     19          6           0       -9.084115    4.741436    2.129588
     20          1           0       -9.568127    5.533698    1.566176
     21          6           0       -7.922656    5.006180    2.861609
     22          1           0       -7.492253    6.002836    2.856118
     23          7           0       -6.489028    0.095441    2.458619
     24          1           0       -6.379689    1.027165    2.058488
     25          6           0       -5.299395   -0.435395    3.119287
     26          1           0       -5.626989   -0.963448    4.021346
     27          6           0       -4.458415    0.787304    3.504661
     28          6           0       -4.516615   -1.397854    2.208879
     29          1           0       -3.665479   -1.832509    2.742374
     30          1           0       -4.123988   -0.908915    1.314767
     31          1           0       -5.171799   -2.219166    1.907376
     32          8           0       -4.739141    1.910891    3.090191
     33          7           0       -3.391175    0.528814    4.306048
     34          1           0       -3.124757   -0.444432    4.408666
     35          6           0       -2.249713    1.459791    4.317468
     36          1           0       -2.667764    2.467646    4.303383
     37          6           0       -1.495244    1.143889    3.016207
     38          6           0       -1.382912    1.239847    5.548284
     39          1           0       -0.567511    1.969595    5.566594
     40          1           0       -0.936795    0.241388    5.521168
     41          1           0       -1.975145    1.351676    6.460768
     42          8           0       -0.840009    0.097521    2.942178
     43          7           0       -1.696498    1.995146    1.990229
     44          1           0       -2.401220    2.711645    2.119857
     45          6           0       -1.411671    1.607554    0.597121
     46          1           0       -1.766670    0.584888    0.451001
     47          6           0        0.099112    1.642493    0.295222
     48          6           0       -2.139674    2.531811   -0.379933
     49          1           0       -1.768948    3.554671   -0.256907
     50          1           0       -1.837969    2.195826   -1.375187
     51          8           0        0.651233    2.591821   -0.252754
     52          6           0       -3.644145    2.479435   -0.262223
     53          6           0       -4.334340    1.298331   -0.580884
     54          1           0       -3.774536    0.401449   -0.840076
     55          6           0       -4.384666    3.600048    0.121373
     56          1           0       -3.869458    4.525830    0.366891
     57          6           0       -5.724436    1.257900   -0.543524
     58          1           0       -6.256812    0.351006   -0.817174
     59          6           0       -5.779705    3.568404    0.172760
     60          1           0       -6.341679    4.448813    0.471679
     61          8           0       -7.828161    2.306897   -0.172827
     62          1           0       -8.192220    3.116108    0.225619
     63          6           0       -6.445812    2.396474   -0.175943
     64          7           0        0.747621    0.502277    0.654454
     65          1           0        0.239195   -0.131809    1.265004
     66          6           0        2.149552    0.287682    0.406572
     67          1           0        2.506054    1.206754   -0.074394
     68          6           0        2.372199   -0.851588   -0.602382
     69          6           0        2.934976    0.046460    1.708440
     70          1           0        2.672897   -0.944441    2.104078
     71          1           0        4.004114    0.015472    1.470443
     72          8           0        3.490766   -1.460283   -0.625589
     73          6           0        2.700952    1.105444    2.796674
     74          1           0        1.634520    1.088879    3.051352
     75          6           0        3.492499    0.729822    4.055356
     76          1           0        4.573264    0.734152    3.856926
     77          1           0        3.305821    1.443512    4.865377
     78          1           0        3.220633   -0.268675    4.417841
     79          6           0        3.066218    2.516313    2.318071
     80          1           0        4.116502    2.556397    1.995359
     81          1           0        2.439169    2.844648    1.484031
     82          1           0        2.947439    3.241586    3.131058
     83          7           0        1.390623   -1.123138   -1.440283
     84          1           0        0.467176   -0.603352   -1.419560
     85          6           0        1.380462   -2.258897   -2.373452
     86          1           0        1.894080   -3.089218   -1.871602
     87          6           0        2.178876   -1.937669   -3.659325
     88          6           0       -0.060977   -2.657064   -2.719646
     89          1           0       -0.448730   -1.945049   -3.451175
     90          1           0       -0.000968   -3.625570   -3.227176
     91          8           0        1.682494   -1.897725   -4.773199
     92          6           0       -1.021521   -2.735434   -1.523555
     93          1           0       -0.518671   -3.139060   -0.632390
     94          1           0       -1.835287   -3.434257   -1.741882
     95          6           0       -1.674507   -1.385568   -1.132049
     96          8           0       -2.682013   -1.432671   -0.390777
     97          8           0       -1.121665   -0.325744   -1.578399
     98          7           0        3.506863   -1.688090   -3.431404
     99          1           0        3.859285   -1.947882   -2.515335
    100          6           0        4.429540   -1.551072   -4.529780
    101          1           0        3.948240   -0.954733   -5.309797
    102          6           0        4.770482   -2.916407   -5.129692
    103          6           0        5.718449   -0.863256   -4.043902
    104          1           0        6.438432   -0.831472   -4.866522
    105          1           0        6.159963   -1.501684   -3.265874
    106          8           0        4.622934   -3.977076   -4.570521
    107          6           0        5.463869    0.551792   -3.487876
    108          1           0        4.399390    0.677067   -3.257308
    109          1           0        5.711330    1.311927   -4.235395
    110          6           0        6.270183    0.847107   -2.220028
    111          1           0        6.167300    1.900156   -1.932762
    112          1           0        7.332967    0.643085   -2.398634
    113          7           0        5.800241   -0.011311   -1.128850
    114          1           0        4.823551   -0.338713   -1.139308
    115          7           0        7.792805   -0.140454    0.082589
    116          1           0        8.414774   -0.715059    0.631506
    117          1           0        8.205004    0.608648   -0.451297
    118          7           0        5.993348   -1.521287    0.595412
    119          1           0        6.354141   -1.682823    1.524901
    120          1           0        5.001891   -1.730283    0.421085
    121          6           0        6.529687   -0.544947   -0.156916
    122          8           0        5.312501   -2.783270   -6.360626
    123          1           0        5.516503   -3.683899   -6.676789
 ---------------------------------------------------------------------

 SCF Done:  E(RB3LYP) =  -2974.32507464     A.U. after    2 cycles

 Alpha  occ. eigenvalues --  -19.25148 -19.24970 -19.24153 -19.20773 -19.20033
 Alpha  occ. eigenvalues --  -19.19400 -19.18333 -19.16368 -19.15734 -19.11034
 Alpha  occ. eigenvalues --  -19.10395 -14.57774 -14.49410 -14.47746 -14.47073
 Alpha  occ. eigenvalues --  -14.46903 -14.44328 -14.42335 -14.41125 -14.40340
 Alpha  occ. eigenvalues --  -14.39602 -10.44636 -10.40825 -10.37476 -10.37444
 Alpha  occ. eigenvalues --  -10.37272 -10.35608 -10.35066 -10.33281 -10.33212
 Alpha  occ. eigenvalues --  -10.32695 -10.32290 -10.32258 -10.30588 -10.30588
 Alpha  occ. eigenvalues --  -10.29767 -10.29662 -10.28951 -10.28816 -10.28474
 Alpha  occ. eigenvalues --  -10.28138 -10.27978 -10.27837 -10.27746 -10.27691
 Alpha  occ. eigenvalues --  -10.27627 -10.27133 -10.26755 -10.24933 -10.24703
 Alpha  occ. eigenvalues --  -10.24443 -10.24326 -10.24246 -10.24141 -10.24085
 Alpha  occ. eigenvalues --  -10.23784 -10.23008 -10.22770 -10.22510 -10.22068
 Alpha  occ. eigenvalues --  -10.21374 -10.20512  -1.16771  -1.15983  -1.13421
 Alpha  occ. eigenvalues --   -1.12784  -1.12456  -1.11441  -1.10419  -1.10015
 Alpha  occ. eigenvalues --   -1.08343  -1.07546  -1.07020  -1.03951  -1.03659
 Alpha  occ. eigenvalues --   -1.02768  -1.01295  -1.00911  -0.98775  -0.98520
 Alpha  occ. eigenvalues --   -0.97884  -0.96616  -0.95477  -0.94924  -0.90957
 Alpha  occ. eigenvalues --   -0.90480  -0.88569  -0.86975  -0.86546  -0.84479
 Alpha  occ. eigenvalues --   -0.83965  -0.83600  -0.83361  -0.82390  -0.82330
 Alpha  occ. eigenvalues --   -0.80379  -0.79934  -0.77951  -0.77588  -0.77126
 Alpha  occ. eigenvalues --   -0.75389  -0.74493  -0.74082  -0.73480  -0.72327
 Alpha  occ. eigenvalues --   -0.71456  -0.71376  -0.71296  -0.70634  -0.69923
 Alpha  occ. eigenvalues --   -0.69611  -0.69447  -0.68838  -0.67677  -0.67295
 Alpha  occ. eigenvalues --   -0.67142  -0.66817  -0.66599  -0.65396  -0.64653
 Alpha  occ. eigenvalues --   -0.64185  -0.64108  -0.63387  -0.62513  -0.62426
 Alpha  occ. eigenvalues --   -0.61734  -0.61632  -0.61014  -0.60665  -0.59992
 Alpha  occ. eigenvalues --   -0.59749  -0.59476  -0.58834  -0.58202  -0.57269
 Alpha  occ. eigenvalues --   -0.57204  -0.56891  -0.56370  -0.55568  -0.55380
 Alpha  occ. eigenvalues --   -0.55051  -0.54951  -0.54615  -0.54442  -0.54301
 Alpha  occ. eigenvalues --   -0.54084  -0.53810  -0.53126  -0.52788  -0.52608
 Alpha  occ. eigenvalues --   -0.52354  -0.52052  -0.51858  -0.51488  -0.51331
 Alpha  occ. eigenvalues --   -0.51078  -0.50560  -0.50278  -0.49996  -0.49971
 Alpha  occ. eigenvalues --   -0.49956  -0.49083  -0.48925  -0.48770  -0.48683
 Alpha  occ. eigenvalues --   -0.48525  -0.48149  -0.47730  -0.47475  -0.47228
 Alpha  occ. eigenvalues --   -0.46923  -0.46784  -0.46566  -0.46054  -0.45959
 Alpha  occ. eigenvalues --   -0.45635  -0.45299  -0.45272  -0.45108  -0.44993
 Alpha  occ. eigenvalues --   -0.44847  -0.44705  -0.44340  -0.44236  -0.43956
 Alpha  occ. eigenvalues --   -0.43809  -0.43529  -0.43405  -0.43328  -0.43222
 Alpha  occ. eigenvalues --   -0.43135  -0.43096  -0.42691  -0.42261  -0.42012
 Alpha  occ. eigenvalues --   -0.41725  -0.41474  -0.41146  -0.40654  -0.40151
 Alpha  occ. eigenvalues --   -0.39968  -0.39291  -0.39067  -0.38974  -0.38307
 Alpha  occ. eigenvalues --   -0.38110  -0.37963  -0.37800  -0.37697  -0.37245
 Alpha  occ. eigenvalues --   -0.37242  -0.37107  -0.36631  -0.36009  -0.35434
 Alpha  occ. eigenvalues --   -0.34783  -0.34659  -0.33887  -0.33827  -0.33803
 Alpha  occ. eigenvalues --   -0.33171  -0.33062  -0.31635  -0.30863  -0.30256
 Alpha  occ. eigenvalues --   -0.29434  -0.29066  -0.28715  -0.27408  -0.26581
 Alpha  occ. eigenvalues --   -0.25629  -0.24426
 Alpha virt. eigenvalues --   -0.10458  -0.09741  -0.09461  -0.08896  -0.08662
 Alpha virt. eigenvalues --   -0.07087  -0.05675  -0.05637  -0.04954  -0.04587
 Alpha virt. eigenvalues --   -0.04553  -0.04296  -0.03846  -0.02453  -0.02125

 Mulliken charges:
               1
     1  N   -0.754097
     2  H    0.418186
     3  H    0.404501
     4  H    0.428037
     5  C   -0.136244
     6  H    0.267253
     7  C    0.646341
     8  C   -0.388138
     9  H    0.195034
    10  H    0.162871
    11  O   -0.558812
    12  C    0.176793
    13  C   -0.180263
    14  H    0.146631
    15  C   -0.223344
    16  H    0.138691
    17  C   -0.101978
    18  H    0.163368
    19  C   -0.145278
    20  H    0.160275
    21  C   -0.128824
    22  H    0.158770
    23  N   -0.605868
    24  H    0.410045
    25  C   -0.073152
    26  H    0.188569
    27  C    0.623741
    28  C   -0.475229
    29  H    0.160092
    30  H    0.244455
    31  H    0.173151
    32  O   -0.534094
    33  N   -0.586406
    34  H    0.345654
    35  C   -0.061922
    36  H    0.173155
    37  C    0.634866
    38  C   -0.463902
    39  H    0.168487
    40  H    0.175452
    41  H    0.164206
    42  O   -0.562043
    43  N   -0.598898
    44  H    0.349968
    45  C   -0.078374
    46  H    0.235244
    47  C    0.655696
    48  C   -0.393915
    49  H    0.157574
    50  H    0.210998
    51  O   -0.541552
    52  C    0.141197
    53  C   -0.186755
    54  H    0.222644
    55  C   -0.198113
    56  H    0.129181
    57  C   -0.199609
    58  H    0.116004
    59  C   -0.172654
    60  H    0.125804
    61  O   -0.691897
    62  H    0.421918
    63  C    0.319972
    64  N   -0.624217
    65  H    0.371093
    66  C   -0.062837
    67  H    0.195811
    68  C    0.642089
    69  C   -0.262045
    70  H    0.137545
    71  H    0.104394
    72  O   -0.654195
    73  C   -0.075728
    74  H    0.153705
    75  C   -0.441884
    76  H    0.119972
    77  H    0.148116
    78  H    0.141943
    79  C   -0.471075
    80  H    0.115748
    81  H    0.190823
    82  H    0.142617
    83  N   -0.614435
    84  H    0.446592
    85  C   -0.083421
    86  H    0.170720
    87  C    0.634101
    88  C   -0.279190
    89  H    0.189367
    90  H    0.147483
    91  O   -0.503457
    92  C   -0.373450
    93  H    0.135751
    94  H    0.154983
    95  C    0.618764
    96  O   -0.595393
    97  O   -0.625174
    98  N   -0.624531
    99  H    0.354363
   100  C   -0.035906
   101  H    0.202598
   102  C    0.592096
   103  C   -0.304517
   104  H    0.181346
   105  H    0.146038
   106  O   -0.459544
   107  C   -0.300113
   108  H    0.190606
   109  H    0.176070
   110  C   -0.160020
   111  H    0.188046
   112  H    0.158543
   113  N   -0.621007
   114  H    0.409103
   115  N   -0.762928
   116  H    0.375773
   117  H    0.379763
   118  N   -0.775962
   119  H    0.359276
   120  H    0.425220
   121  C    0.785154
   122  O   -0.566458
   123  H    0.418411
 Sum of Mulliken charges =   1.00000

 Dipole moment (field-independent basis, Debye):
    X=             -9.1350    Y=              2.0791    Z=             10.5886  Tot=             14.1382
 Quadrupole moment (field-independent basis, Debye-Ang):
   XX=            118.9792   YY=           -343.4130   ZZ=           -334.1856
   XY=            -16.1318   XZ=            -69.4223   YZ=              6.4475

 Normal termination of Gaussian 16 at Thu Aug  4 00:58:18 2022.
