 Gaussian 16, Revision C.01,
 Gaussian 16:  ES64L-G16RevC.01  3-Jul-2019

 ----------------------------------------------------------------------
 # B3LYP/6-31G* empiricaldispersion=gd3bj guess=read geom=check nosymm
 integral(ultrafinegrid)
 ----------------------------------------------------------------------

 ------------------------------------------------------
 Candidate Structure: Conf:234 Charge calc in gas phase
 ------------------------------------------------------
 Structure from the checkpoint file:  "conf-234.chk"
 Charge =  1 Multiplicity = 1

                          Input orientation:
 ---------------------------------------------------------------------
 Center     Atomic      Atomic             Coordinates (Angstroms)
 Number     Number       Type             X           Y           Z
 ---------------------------------------------------------------------
      1          7           0       -9.194637   -1.259535    7.978872
      2          1           0       -9.351714   -2.170862    7.548590
      3          1           0      -10.080268   -0.904697    8.332185
      4          1           0       -8.544496   -1.398413    8.761173
      5          6           0       -8.554692   -0.310475    7.036863
      6          1           0       -9.093709   -0.311252    6.085756
      7          6           0       -7.111487   -0.774242    6.833344
      8          6           0       -8.565757    1.116979    7.602133
      9          1           0       -8.000827    1.113134    8.538166
     10          1           0       -9.604171    1.374162    7.837461
     11          8           0       -6.507391   -1.336771    7.739819
     12          6           0       -7.975182    2.107275    6.631483
     13          6           0       -6.672236    2.576474    6.795074
     14          1           0       -6.073741    2.220978    7.629177
     15          6           0       -8.715033    2.530617    5.527077
     16          1           0       -9.722005    2.145146    5.389553
     17          6           0       -6.129822    3.475786    5.877613
     18          1           0       -5.113785    3.833601    6.013441
     19          6           0       -8.175099    3.430166    4.610664
     20          1           0       -8.767212    3.755495    3.763470
     21          6           0       -6.878900    3.907056    4.786494
     22          1           0       -6.454398    4.606356    4.076026
     23          7           0       -6.579734   -0.483561    5.633245
     24          1           0       -7.079446    0.107645    4.979610
     25          6           0       -5.155339   -0.614147    5.372516
     26          1           0       -4.614614   -0.474016    6.312957
     27          6           0       -4.809930    0.507903    4.401269
     28          6           0       -4.802490   -1.982108    4.789447
     29          1           0       -3.730999   -2.039967    4.580452
     30          1           0       -5.346217   -2.139687    3.855447
     31          1           0       -5.072645   -2.770813    5.494252
     32          8           0       -5.589969    0.846337    3.522696
     33          7           0       -3.593928    1.094966    4.586127
     34          1           0       -2.895414    0.537743    5.053937
     35          6           0       -3.067283    1.958002    3.541244
     36          1           0       -3.915985    2.520317    3.147117
     37          6           0       -2.487463    1.080961    2.425016
     38          6           0       -2.018192    2.901524    4.115599
     39          1           0       -1.641053    3.580390    3.347796
     40          1           0       -1.175764    2.331373    4.516972
     41          1           0       -2.455839    3.491280    4.924134
     42          8           0       -2.068431   -0.056189    2.641136
     43          7           0       -2.468644    1.657988    1.205158
     44          1           0       -2.778572    2.607066    1.100171
     45          6           0       -1.943149    0.975800    0.036904
     46          1           0       -2.383755   -0.022319    0.014319
     47          6           0       -0.426583    0.874142    0.151950
     48          6           0       -2.289269    1.745252   -1.244169
     49          1           0       -1.802509    2.719911   -1.214364
     50          1           0       -1.849379    1.214248   -2.095655
     51          8           0        0.263545    1.895121    0.226466
     52          6           0       -3.759474    1.952723   -1.465418
     53          6           0       -4.672019    0.898443   -1.452369
     54          1           0       -4.317806   -0.112256   -1.287010
     55          6           0       -4.238653    3.239548   -1.701990
     56          1           0       -3.538631    4.067105   -1.742119
     57          6           0       -6.030812    1.116007   -1.668383
     58          1           0       -6.737595    0.294563   -1.661836
     59          6           0       -5.595483    3.476106   -1.909677
     60          1           0       -5.948685    4.486580   -2.093175
     61          8           0       -7.840207    2.574236   -2.090552
     62          1           0       -8.019685    3.508816   -2.236856
     63          6           0       -6.493797    2.410108   -1.890654
     64          7           0        0.124615   -0.357638    0.141438
     65          1           0       -0.462607   -1.170649    0.085997
     66          6           0        1.567477   -0.539317    0.293714
     67          1           0        1.911153    0.285855    0.923190
     68          6           0        2.173111   -0.342615   -1.102097
     69          6           0        1.916613   -1.873325    0.927186
     70          1           0        1.652253   -2.679401    0.239808
     71          1           0        3.003862   -1.916546    1.046674
     72          8           0        2.525228   -1.273846   -1.837371
     73          6           0        1.248805   -2.116836    2.284236
     74          1           0        0.164008   -2.147442    2.129616
     75          6           0        1.696479   -3.469839    2.834371
     76          1           0        2.774979   -3.467240    3.018072
     77          1           0        1.196155   -3.699518    3.779269
     78          1           0        1.474639   -4.277853    2.131505
     79          6           0        1.548587   -0.998573    3.280391
     80          1           0        2.623245   -0.947345    3.486725
     81          1           0        1.220113   -0.023274    2.912199
     82          1           0        1.032735   -1.183614    4.227887
     83          7           0        2.210180    0.949203   -1.480069
     84          1           0        1.787260    1.623094   -0.849495
     85          6           0        2.346714    1.369178   -2.868650
     86          1           0        1.957365    0.554887   -3.495884
     87          6           0        3.813526    1.557680   -3.264103
     88          6           0        1.491356    2.621892   -3.063167
     89          1           0        1.826702    3.422447   -2.397889
     90          1           0        1.619980    3.004976   -4.077252
     91          8           0        4.260445    2.568603   -3.784909
     92          6           0        0.047924    2.261580   -2.745412
     93          1           0        0.018716    1.855304   -1.740346
     94          1           0       -0.342254    1.504699   -3.430422
     95          6           0       -0.968364    3.430125   -2.670292
     96          8           0       -0.516692    4.542101   -2.345228
     97          8           0       -2.159034    3.073342   -2.836924
     98          7           0        4.580838    0.471877   -2.962922
     99          1           0        4.082446   -0.379354   -2.725395
    100          6           0        5.933916    0.365695   -3.444257
    101          1           0        6.349982    1.374474   -3.497276
    102          6           0        5.963149   -0.202863   -4.854725
    103          6           0        6.780803   -0.490043   -2.492997
    104          1           0        6.790101    0.011848   -1.521766
    105          1           0        7.810758   -0.499120   -2.860973
    106          8           0        5.028598   -0.693453   -5.435026
    107          6           0        6.262207   -1.914467   -2.334529
    108          1           0        6.163945   -2.385255   -3.316542
    109          1           0        5.268407   -1.906505   -1.880775
    110          6           0        7.187625   -2.761491   -1.477872
    111          1           0        7.293417   -2.318437   -0.479972
    112          1           0        8.181482   -2.788161   -1.936127
    113          7           0        6.656832   -4.134612   -1.390613
    114          1           0        5.647163   -4.192066   -1.378299
    115          7           0        8.491557   -4.895346   -0.156195
    116          1           0        9.058666   -5.687934    0.101704
    117          1           0        8.991327   -4.058390   -0.408912
    118          7           0        6.628839   -6.274928   -0.503140
    119          1           0        7.171617   -7.058501   -0.171687
    120          1           0        5.914085   -6.518160   -1.176005
    121          6           0        7.276583   -5.101058   -0.695112
    122          8           0        7.201112   -0.112617   -5.388409
    123          1           0        7.139347   -0.487261   -6.279057
 ---------------------------------------------------------------------

 SCF Done:  E(RB3LYP) =  -2974.08344554     A.U. after    1 cycles

 Alpha  occ. eigenvalues --  -19.24831 -19.24649 -19.19481 -19.18999 -19.17253
 Alpha  occ. eigenvalues --  -19.15714 -19.15711 -19.14547 -19.13484 -19.02062
 Alpha  occ. eigenvalues --  -19.00884 -14.62682 -14.54237 -14.53569 -14.53177
 Alpha  occ. eigenvalues --  -14.47297 -14.42856 -14.40307 -14.39238 -14.37901
 Alpha  occ. eigenvalues --  -14.37824 -10.49832 -10.41741 -10.40271 -10.36665
 Alpha  occ. eigenvalues --  -10.36285 -10.36021 -10.33506 -10.32458 -10.32299
 Alpha  occ. eigenvalues --  -10.31941 -10.31470 -10.30165 -10.29803 -10.29023
 Alpha  occ. eigenvalues --  -10.28649 -10.28617 -10.28334 -10.28178 -10.27554
 Alpha  occ. eigenvalues --  -10.27536 -10.27325 -10.27271 -10.27159 -10.26088
 Alpha  occ. eigenvalues --  -10.24115 -10.24103 -10.23892 -10.23672 -10.23669
 Alpha  occ. eigenvalues --  -10.23423 -10.22930 -10.21960 -10.20059 -10.17544
 Alpha  occ. eigenvalues --  -10.17141 -10.17088 -10.16802 -10.16355 -10.16176
 Alpha  occ. eigenvalues --  -10.16010 -10.13171  -1.18955  -1.18468  -1.15996
 Alpha  occ. eigenvalues --   -1.15654  -1.11830  -1.07945  -1.07539  -1.07427
 Alpha  occ. eigenvalues --   -1.07125  -1.06949  -1.06562  -1.05401  -1.05369
 Alpha  occ. eigenvalues --   -1.04107  -0.99598  -0.96846  -0.96703  -0.96413
 Alpha  occ. eigenvalues --   -0.96202  -0.95849  -0.94946  -0.92736  -0.90883
 Alpha  occ. eigenvalues --   -0.88088  -0.87221  -0.86539  -0.84871  -0.84398
 Alpha  occ. eigenvalues --   -0.83773  -0.83470  -0.82742  -0.81036  -0.80270
 Alpha  occ. eigenvalues --   -0.79564  -0.78391  -0.77698  -0.77109  -0.76234
 Alpha  occ. eigenvalues --   -0.75430  -0.75147  -0.74792  -0.73546  -0.73313
 Alpha  occ. eigenvalues --   -0.73094  -0.71947  -0.71417  -0.71241  -0.70022
 Alpha  occ. eigenvalues --   -0.69970  -0.69432  -0.68793  -0.67936  -0.67349
 Alpha  occ. eigenvalues --   -0.66815  -0.66086  -0.65835  -0.65298  -0.65050
 Alpha  occ. eigenvalues --   -0.63633  -0.63057  -0.62320  -0.62071  -0.61544
 Alpha  occ. eigenvalues --   -0.61349  -0.60924  -0.60749  -0.60424  -0.59848
 Alpha  occ. eigenvalues --   -0.59480  -0.59164  -0.58072  -0.58028  -0.57691
 Alpha  occ. eigenvalues --   -0.56440  -0.56164  -0.55796  -0.55468  -0.54916
 Alpha  occ. eigenvalues --   -0.54845  -0.54162  -0.53680  -0.53551  -0.53421
 Alpha  occ. eigenvalues --   -0.53150  -0.52758  -0.52588  -0.51897  -0.51846
 Alpha  occ. eigenvalues --   -0.51297  -0.50954  -0.50814  -0.50750  -0.50273
 Alpha  occ. eigenvalues --   -0.50191  -0.49903  -0.49702  -0.49417  -0.48490
 Alpha  occ. eigenvalues --   -0.48446  -0.48110  -0.47672  -0.47217  -0.46641
 Alpha  occ. eigenvalues --   -0.46452  -0.46147  -0.46076  -0.45515  -0.45463
 Alpha  occ. eigenvalues --   -0.45280  -0.45017  -0.44650  -0.44604  -0.44432
 Alpha  occ. eigenvalues --   -0.44309  -0.44202  -0.43934  -0.43673  -0.43637
 Alpha  occ. eigenvalues --   -0.43528  -0.43390  -0.43131  -0.43075  -0.42837
 Alpha  occ. eigenvalues --   -0.42413  -0.42215  -0.42026  -0.41675  -0.41616
 Alpha  occ. eigenvalues --   -0.41408  -0.40798  -0.40558  -0.40327  -0.40006
 Alpha  occ. eigenvalues --   -0.39537  -0.39045  -0.38948  -0.38622  -0.37926
 Alpha  occ. eigenvalues --   -0.37709  -0.37648  -0.37472  -0.37330  -0.37005
 Alpha  occ. eigenvalues --   -0.36250  -0.34999  -0.34223  -0.33993  -0.33860
 Alpha  occ. eigenvalues --   -0.33470  -0.33264  -0.32924  -0.32775  -0.32558
 Alpha  occ. eigenvalues --   -0.32345  -0.31076  -0.30770  -0.30560  -0.30262
 Alpha  occ. eigenvalues --   -0.29768  -0.29463  -0.28695  -0.28192  -0.27494
 Alpha  occ. eigenvalues --   -0.26735  -0.25693  -0.23434  -0.20334  -0.17069
 Alpha  occ. eigenvalues --   -0.16138  -0.15909
 Alpha virt. eigenvalues --   -0.15049  -0.12559  -0.10690  -0.10089  -0.09622
 Alpha virt. eigenvalues --   -0.09241  -0.06448  -0.05655  -0.05633  -0.05109
 Alpha virt. eigenvalues --   -0.04712  -0.04259  -0.03969  -0.02472  -0.01950

 Mulliken charges:
               1
     1  N   -0.714838
     2  H    0.430559
     3  H    0.420914
     4  H    0.425044
     5  C   -0.149636
     6  H    0.218989
     7  C    0.634419
     8  C   -0.372679
     9  H    0.187080
    10  H    0.174377
    11  O   -0.531233
    12  C    0.152350
    13  C   -0.182729
    14  H    0.141769
    15  C   -0.194976
    16  H    0.126662
    17  C   -0.125692
    18  H    0.158932
    19  C   -0.114163
    20  H    0.166975
    21  C   -0.107566
    22  H    0.168549
    23  N   -0.588710
    24  H    0.370621
    25  C   -0.049998
    26  H    0.177226
    27  C    0.620356
    28  C   -0.447732
    29  H    0.185178
    30  H    0.180578
    31  H    0.165343
    32  O   -0.516744
    33  N   -0.584329
    34  H    0.334770
    35  C   -0.092416
    36  H    0.190017
    37  C    0.647907
    38  C   -0.457343
    39  H    0.190526
    40  H    0.158593
    41  H    0.155923
    42  O   -0.571850
    43  N   -0.577266
    44  H    0.343196
    45  C   -0.030560
    46  H    0.128962
    47  C    0.653927
    48  C   -0.395674
    49  H    0.197324
    50  H    0.179797
    51  O   -0.548440
    52  C    0.193467
    53  C   -0.191778
    54  H    0.090426
    55  C   -0.142878
    56  H    0.178433
    57  C   -0.171731
    58  H    0.104489
    59  C   -0.222012
    60  H    0.101960
    61  O   -0.660975
    62  H    0.398963
    63  C    0.343570
    64  N   -0.593585
    65  H    0.337355
    66  C   -0.064932
    67  H    0.180147
    68  C    0.622404
    69  C   -0.278308
    70  H    0.144805
    71  H    0.116667
    72  O   -0.588556
    73  C   -0.075240
    74  H    0.147817
    75  C   -0.439919
    76  H    0.124944
    77  H    0.145011
    78  H    0.133052
    79  C   -0.447740
    80  H    0.127110
    81  H    0.174488
    82  H    0.138100
    83  N   -0.601314
    84  H    0.393078
    85  C   -0.078542
    86  H    0.178249
    87  C    0.629550
    88  C   -0.280054
    89  H    0.165481
    90  H    0.160234
    91  O   -0.513767
    92  C   -0.374583
    93  H    0.147776
    94  H    0.117182
    95  C    0.570115
    96  O   -0.592696
    97  O   -0.599843
    98  N   -0.634182
    99  H    0.379092
   100  C   -0.048996
   101  H    0.212693
   102  C    0.586736
   103  C   -0.285058
   104  H    0.167068
   105  H    0.162139
   106  O   -0.452098
   107  C   -0.334653
   108  H    0.182694
   109  H    0.187161
   110  C   -0.166982
   111  H    0.190774
   112  H    0.180043
   113  N   -0.584765
   114  H    0.381282
   115  N   -0.729024
   116  H    0.381775
   117  H    0.396931
   118  N   -0.729869
   119  H    0.376134
   120  H    0.388325
   121  C    0.770079
   122  O   -0.570702
   123  H    0.414688
 Sum of Mulliken charges =   1.00000

 Dipole moment (field-independent basis, Debye):
    X=             -0.7470    Y=            -33.4576    Z=             37.4358  Tot=             50.2137
 Quadrupole moment (field-independent basis, Debye-Ang):
   XX=            203.9441   YY=           -267.0264   ZZ=           -162.5764
   XY=           -144.0852   XZ=           -307.7818   YZ=             35.7804

 Normal termination of Gaussian 16 at Thu Aug  4 01:04:56 2022.
