 Gaussian 16, Revision C.01,
 Gaussian 16:  ES64L-G16RevC.01  3-Jul-2019

 ----------------------------------------------------------------------
 # B3LYP/6-31G* empiricaldispersion=gd3bj guess=read geom=check nosymm
 integral(ultrafinegrid)
 ----------------------------------------------------------------------

 ------------------------------------------------------
 Candidate Structure: Conf:112 Charge calc in gas phase
 ------------------------------------------------------
 Structure from the checkpoint file:  "conf-112.chk"
 Charge =  1 Multiplicity = 1

                          Input orientation:
 ---------------------------------------------------------------------
 Center     Atomic      Atomic             Coordinates (Angstroms)
 Number     Number       Type             X           Y           Z
 ---------------------------------------------------------------------
      1          7           0       -8.339924    1.924471    7.614603
      2          1           0       -9.269061    1.524348    7.490416
      3          1           0       -8.250799    2.306242    8.552916
      4          1           0       -7.661113    1.163933    7.506718
      5          6           0       -8.034678    2.920991    6.573226
      6          1           0       -8.945502    3.466418    6.298387
      7          6           0       -7.551804    2.145770    5.348971
      8          6           0       -6.987666    3.935933    7.057970
      9          1           0       -7.453807    4.554725    7.831168
     10          1           0       -6.731284    4.597176    6.225928
     11          8           0       -7.308453    0.945118    5.421725
     12          6           0       -5.752281    3.289156    7.612167
     13          6           0       -5.623087    3.031104    8.975534
     14          1           0       -6.407345    3.341266    9.656099
     15          6           0       -4.710233    2.911798    6.763958
     16          1           0       -4.792703    3.119773    5.702228
     17          6           0       -4.498603    2.381124    9.478471
     18          1           0       -4.427004    2.176215   10.540363
     19          6           0       -3.574770    2.281915    7.264675
     20          1           0       -2.792031    1.986028    6.578783
     21          6           0       -3.473314    1.995988    8.621258
     22          1           0       -2.596748    1.490706    9.006376
     23          7           0       -7.394786    2.858782    4.209531
     24          1           0       -7.624506    3.836653    4.202178
     25          6           0       -7.015664    2.240066    2.939810
     26          1           0       -7.544001    1.283959    2.881094
     27          6           0       -5.512612    1.951506    2.948120
     28          6           0       -7.406961    3.144657    1.786993
     29          1           0       -7.127197    2.688008    0.835917
     30          1           0       -6.897092    4.105287    1.865294
     31          1           0       -8.487358    3.304798    1.790641
     32          8           0       -4.682925    2.726639    2.465900
     33          7           0       -5.153043    0.792772    3.535646
     34          1           0       -5.844608    0.324887    4.108624
     35          6           0       -3.752433    0.465248    3.760982
     36          1           0       -3.225226    1.422659    3.884760
     37          6           0       -3.158733   -0.231414    2.527732
     38          6           0       -3.612157   -0.393403    5.005079
     39          1           0       -2.557174   -0.551998    5.235531
     40          1           0       -4.079289   -1.365807    4.842163
     41          1           0       -4.104780    0.085372    5.858075
     42          8           0       -2.608882   -1.326934    2.583266
     43          7           0       -3.299931    0.444384    1.360645
     44          1           0       -3.613511    1.406891    1.389519
     45          6           0       -2.694042   -0.075824    0.151009
     46          1           0       -2.795555   -1.160566    0.192486
     47          6           0       -1.210834    0.287209    0.097927
     48          6           0       -3.385765    0.473054   -1.095917
     49          1           0       -4.448367    0.236211   -1.004610
     50          1           0       -3.282728    1.561241   -1.098939
     51          8           0       -0.825953    1.395429   -0.254935
     52          6           0       -2.811395   -0.093671   -2.372091
     53          6           0       -2.296508    0.736301   -3.373237
     54          1           0       -2.251447    1.812990   -3.243191
     55          6           0       -2.772853   -1.473059   -2.581138
     56          1           0       -3.176016   -2.130552   -1.820882
     57          6           0       -1.802656    0.204543   -4.562937
     58          1           0       -1.427703    0.841703   -5.353797
     59          6           0       -2.256668   -2.016844   -3.755650
     60          1           0       -2.245746   -3.093006   -3.891082
     61          8           0       -1.252223   -1.636746   -5.926622
     62          1           0       -1.290558   -2.597063   -5.927098
     63          6           0       -1.763639   -1.172556   -4.747662
     64          7           0       -0.361154   -0.689395    0.480851
     65          1           0       -0.719887   -1.521238    0.922210
     66          6           0        1.065290   -0.481150    0.352692
     67          1           0        1.364061    0.321036    1.036025
     68          6           0        1.353957   -0.029523   -1.073031
     69          6           0        1.830877   -1.766293    0.667293
     70          1           0        1.628417   -2.037812    1.706935
     71          1           0        1.418390   -2.559751    0.040453
     72          8           0        0.924359   -0.627296   -2.046578
     73          6           0        3.345113   -1.704015    0.445891
     74          1           0        3.512623   -1.477924   -0.615579
     75          6           0        4.023241   -0.628596    1.288266
     76          1           0        3.749405   -0.740934    2.341803
     77          1           0        5.113251   -0.731679    1.220956
     78          1           0        3.776453    0.386341    0.974424
     79          6           0        3.975118   -3.061116    0.740831
     80          1           0        3.843157   -3.318199    1.793966
     81          1           0        3.531428   -3.852337    0.132915
     82          1           0        5.046923   -3.032695    0.531887
     83          7           0        2.151596    1.063411   -1.164678
     84          1           0        2.447880    1.558515   -0.343039
     85          6           0        2.725387    1.482272   -2.421222
     86          1           0        2.613657    0.640403   -3.108251
     87          6           0        4.202663    1.776030   -2.160836
     88          6           0        1.993612    2.691726   -2.996624
     89          1           0        2.126403    3.542484   -2.327636
     90          1           0        2.432422    2.965359   -3.958293
     91          8           0        4.565527    2.410774   -1.175498
     92          6           0        0.515124    2.364936   -3.196886
     93          1           0       -0.011896    2.207485   -2.261202
     94          1           0        0.431792    1.438907   -3.776119
     95          6           0       -0.197904    3.456687   -4.020264
     96          8           0       -1.381955    3.707186   -3.700952
     97          8           0        0.449054    3.935464   -4.961196
     98          7           0        5.058335    1.290784   -3.089422
     99          1           0        4.703165    0.790887   -3.889121
    100          6           0        6.488642    1.462953   -2.963657
    101          1           0        6.657655    2.244334   -2.220820
    102          6           0        7.107755    1.924441   -4.266641
    103          6           0        7.208891    0.188620   -2.496730
    104          1           0        8.276075    0.414057   -2.490819
    105          1           0        7.051614   -0.609926   -3.224652
    106          8           0        8.092588    2.608607   -4.353878
    107          6           0        6.758857   -0.255630   -1.115645
    108          1           0        5.699737   -0.531423   -1.119511
    109          1           0        6.859661    0.581345   -0.425884
    110          6           0        7.541696   -1.442587   -0.571436
    111          1           0        7.388004   -2.314945   -1.211482
    112          1           0        7.177103   -1.721402    0.420764
    113          7           0        9.002477   -1.246645   -0.513084
    114          1           0        9.487902   -1.434161   -1.378503
    115          7           0        8.868579    0.322426    1.209229
    116          1           0        9.355973    0.801580    1.949311
    117          1           0        7.980488   -0.073366    1.467964
    118          7           0       10.883169   -0.004729    0.052497
    119          1           0       11.364793    0.498799    0.782810
    120          1           0       11.452265   -0.678217   -0.442905
    121          6           0        9.582016   -0.323225    0.264201
    122          8           0        6.456177    1.428031   -5.346018
    123          1           0        6.926818    1.748188   -6.126386
 ---------------------------------------------------------------------

 SCF Done:  E(RB3LYP) =  -2974.13949293     A.U. after    3 cycles

 Alpha  occ. eigenvalues --  -19.26922 -19.25737 -19.20128 -19.20015 -19.16985
 Alpha  occ. eigenvalues --  -19.16382 -19.15536 -19.12882 -19.12024 -19.01234
 Alpha  occ. eigenvalues --  -19.00946 -14.62585 -14.52261 -14.52122 -14.52026
 Alpha  occ. eigenvalues --  -14.49978 -14.44039 -14.41228 -14.39452 -14.38042
 Alpha  occ. eigenvalues --  -14.36864 -10.47765 -10.43647 -10.41674 -10.38182
 Alpha  occ. eigenvalues --  -10.37034 -10.35153 -10.34612 -10.33896 -10.33279
 Alpha  occ. eigenvalues --  -10.32276 -10.31612 -10.30698 -10.30265 -10.30080
 Alpha  occ. eigenvalues --  -10.29809 -10.29791 -10.29788 -10.29470 -10.29434
 Alpha  occ. eigenvalues --  -10.29413 -10.28515 -10.28006 -10.27079 -10.25974
 Alpha  occ. eigenvalues --  -10.25066 -10.24982 -10.24711 -10.23727 -10.23701
 Alpha  occ. eigenvalues --  -10.23527 -10.23393 -10.23310 -10.19826 -10.18785
 Alpha  occ. eigenvalues --  -10.18230 -10.17941 -10.17725 -10.16110 -10.16029
 Alpha  occ. eigenvalues --  -10.15906 -10.11446  -1.20379  -1.16991  -1.16962
 Alpha  occ. eigenvalues --   -1.16909  -1.12177  -1.08413  -1.08064  -1.07902
 Alpha  occ. eigenvalues --   -1.06389  -1.06236  -1.05759  -1.05510  -1.05278
 Alpha  occ. eigenvalues --   -1.04123  -1.00829  -0.98384  -0.98111  -0.96215
 Alpha  occ. eigenvalues --   -0.94878  -0.94793  -0.94452  -0.93912  -0.90478
 Alpha  occ. eigenvalues --   -0.88874  -0.87102  -0.86552  -0.85851  -0.85643
 Alpha  occ. eigenvalues --   -0.85100  -0.84560  -0.83950  -0.80830  -0.80805
 Alpha  occ. eigenvalues --   -0.80232  -0.79096  -0.77745  -0.76598  -0.76510
 Alpha  occ. eigenvalues --   -0.76019  -0.75504  -0.74710  -0.74410  -0.74010
 Alpha  occ. eigenvalues --   -0.73510  -0.73180  -0.71943  -0.71866  -0.71076
 Alpha  occ. eigenvalues --   -0.70402  -0.70117  -0.69059  -0.68707  -0.68027
 Alpha  occ. eigenvalues --   -0.67128  -0.66112  -0.65813  -0.65175  -0.64645
 Alpha  occ. eigenvalues --   -0.64221  -0.64033  -0.63288  -0.62784  -0.61683
 Alpha  occ. eigenvalues --   -0.61373  -0.60872  -0.60814  -0.60472  -0.60102
 Alpha  occ. eigenvalues --   -0.59996  -0.59200  -0.59105  -0.58644  -0.58146
 Alpha  occ. eigenvalues --   -0.57953  -0.57812  -0.57120  -0.56655  -0.56160
 Alpha  occ. eigenvalues --   -0.56103  -0.55272  -0.54735  -0.54270  -0.53997
 Alpha  occ. eigenvalues --   -0.53891  -0.53374  -0.53102  -0.53035  -0.52610
 Alpha  occ. eigenvalues --   -0.52327  -0.51911  -0.51794  -0.51569  -0.51266
 Alpha  occ. eigenvalues --   -0.51213  -0.49981  -0.49591  -0.49198  -0.48997
 Alpha  occ. eigenvalues --   -0.48969  -0.47856  -0.47773  -0.47520  -0.47402
 Alpha  occ. eigenvalues --   -0.47029  -0.47001  -0.46839  -0.46537  -0.46231
 Alpha  occ. eigenvalues --   -0.45893  -0.45760  -0.45595  -0.45350  -0.45227
 Alpha  occ. eigenvalues --   -0.45203  -0.45006  -0.44884  -0.44633  -0.44413
 Alpha  occ. eigenvalues --   -0.43911  -0.43660  -0.43383  -0.43100  -0.42774
 Alpha  occ. eigenvalues --   -0.42434  -0.42315  -0.41919  -0.41565  -0.41380
 Alpha  occ. eigenvalues --   -0.41307  -0.40853  -0.40548  -0.40338  -0.40050
 Alpha  occ. eigenvalues --   -0.39858  -0.39400  -0.39119  -0.38759  -0.38477
 Alpha  occ. eigenvalues --   -0.38215  -0.38074  -0.38021  -0.37761  -0.36275
 Alpha  occ. eigenvalues --   -0.36174  -0.36037  -0.35966  -0.35087  -0.34741
 Alpha  occ. eigenvalues --   -0.34503  -0.34238  -0.33581  -0.33531  -0.32952
 Alpha  occ. eigenvalues --   -0.31947  -0.31393  -0.30867  -0.30413  -0.30288
 Alpha  occ. eigenvalues --   -0.29543  -0.28955  -0.28338  -0.27393  -0.26420
 Alpha  occ. eigenvalues --   -0.25716  -0.25328  -0.23179  -0.20657  -0.16800
 Alpha  occ. eigenvalues --   -0.15270  -0.14480
 Alpha virt. eigenvalues --   -0.13648  -0.13567  -0.12496  -0.11842  -0.10330
 Alpha virt. eigenvalues --   -0.08985  -0.07803  -0.07328  -0.05956  -0.05517
 Alpha virt. eigenvalues --   -0.05392  -0.04143  -0.03867  -0.03316  -0.03145

 Mulliken charges:
               1
     1  N   -0.707736
     2  H    0.421627
     3  H    0.408800
     4  H    0.431256
     5  C   -0.134929
     6  H    0.219599
     7  C    0.653443
     8  C   -0.402004
     9  H    0.188139
    10  H    0.208057
    11  O   -0.541425
    12  C    0.153492
    13  C   -0.226118
    14  H    0.123373
    15  C   -0.184893
    16  H    0.164780
    17  C   -0.123072
    18  H    0.160103
    19  C   -0.130129
    20  H    0.172329
    21  C   -0.123044
    22  H    0.165025
    23  N   -0.598978
    24  H    0.349362
    25  C   -0.063595
    26  H    0.189751
    27  C    0.627510
    28  C   -0.479254
    29  H    0.209436
    30  H    0.189015
    31  H    0.158565
    32  O   -0.531718
    33  N   -0.593808
    34  H    0.367761
    35  C   -0.071743
    36  H    0.181357
    37  C    0.631185
    38  C   -0.477416
    39  H    0.176539
    40  H    0.175082
    41  H    0.136712
    42  O   -0.539757
    43  N   -0.620690
    44  H    0.376376
    45  C   -0.058952
    46  H    0.161430
    47  C    0.662486
    48  C   -0.367795
    49  H    0.128167
    50  H    0.185175
    51  O   -0.518027
    52  C    0.156103
    53  C   -0.199837
    54  H    0.214495
    55  C   -0.185555
    56  H    0.095485
    57  C   -0.186710
    58  H    0.165370
    59  C   -0.192637
    60  H    0.093690
    61  O   -0.645758
    62  H    0.396693
    63  C    0.355806
    64  N   -0.620600
    65  H    0.342102
    66  C    0.005645
    67  H    0.134765
    68  C    0.643877
    69  C   -0.297618
    70  H    0.133329
    71  H    0.167193
    72  O   -0.531357
    73  C   -0.089312
    74  H    0.149371
    75  C   -0.450069
    76  H    0.142832
    77  H    0.091086
    78  H    0.171216
    79  C   -0.446874
    80  H    0.145287
    81  H    0.161238
    82  H    0.111207
    83  N   -0.585439
    84  H    0.335767
    85  C   -0.079628
    86  H    0.158299
    87  C    0.627998
    88  C   -0.242214
    89  H    0.134758
    90  H    0.152670
    91  O   -0.557760
    92  C   -0.393581
    93  H    0.181654
    94  H    0.146591
    95  C    0.562170
    96  O   -0.573361
    97  O   -0.569128
    98  N   -0.613992
    99  H    0.357584
   100  C   -0.046463
   101  H    0.210952
   102  C    0.590681
   103  C   -0.282921
   104  H    0.139298
   105  H    0.156223
   106  O   -0.452920
   107  C   -0.289391
   108  H    0.206438
   109  H    0.173495
   110  C   -0.212605
   111  H    0.199175
   112  H    0.185982
   113  N   -0.564763
   114  H    0.366851
   115  N   -0.718554
   116  H    0.375670
   117  H    0.389744
   118  N   -0.730149
   119  H    0.373721
   120  H    0.378514
   121  C    0.740058
   122  O   -0.569082
   123  H    0.426345
 Sum of Mulliken charges =   1.00000

 Dipole moment (field-independent basis, Debye):
    X=              3.3420    Y=             -5.7595    Z=             46.6758  Tot=             47.1484
 Quadrupole moment (field-independent basis, Debye-Ang):
   XX=            310.1051   YY=           -382.8617   ZZ=           -154.0930
   XY=           -123.7477   XZ=           -258.1829   YZ=            146.3021

 Normal termination of Gaussian 16 at Thu Aug  4 00:58:30 2022.
