 Gaussian 16, Revision C.01,
 Gaussian 16:  ES64L-G16RevC.01  3-Jul-2019

 ----------------------------------------------------------------------
 # B3LYP/6-31G* empiricaldispersion=gd3bj guess=read geom=check nosymm
 integral(ultrafinegrid)
 ----------------------------------------------------------------------

 ------------------------------------------------------
 Candidate Structure: Conf:304 Charge calc in gas phase
 ------------------------------------------------------
 Structure from the checkpoint file:  "conf-304.chk"
 Charge =  1 Multiplicity = 1

                          Input orientation:
 ---------------------------------------------------------------------
 Center     Atomic      Atomic             Coordinates (Angstroms)
 Number     Number       Type             X           Y           Z
 ---------------------------------------------------------------------
      1          7           0       -5.351505    1.161921    2.100809
      2          1           0       -5.198293    1.134835    1.080776
      3          1           0       -5.136169    2.111044    2.423123
      4          1           0       -6.329880    0.883412    2.347972
      5          6           0       -4.483041    0.133955    2.778883
      6          1           0       -3.784478   -0.247221    2.037838
      7          6           0       -5.461722   -0.973264    3.224104
      8          6           0       -3.724003    0.737996    3.964197
      9          1           0       -3.052246   -0.045728    4.326167
     10          1           0       -4.426373    0.962126    4.776481
     11          8           0       -6.674188   -0.725399    3.248323
     12          6           0       -2.934043    1.981162    3.606467
     13          6           0       -2.443059    2.208651    2.312554
     14          1           0       -2.604921    1.490787    1.512601
     15          6           0       -2.676649    2.936575    4.599823
     16          1           0       -3.053889    2.773068    5.606065
     17          6           0       -1.734625    3.376145    2.020131
     18          1           0       -1.406745    3.551366    1.003666
     19          6           0       -1.939537    4.084436    4.315869
     20          1           0       -1.745354    4.808044    5.101589
     21          6           0       -1.473192    4.312727    3.019293
     22          1           0       -0.923848    5.220049    2.786890
     23          7           0       -4.852229   -2.108673    3.566456
     24          1           0       -3.826844   -2.109904    3.480984
     25          6           0       -5.467622   -3.267455    4.235544
     26          1           0       -5.871712   -2.939497    5.200316
     27          6           0       -4.231662   -4.148069    4.533223
     28          6           0       -6.584791   -3.892840    3.402242
     29          1           0       -7.005045   -4.765185    3.914388
     30          1           0       -6.226563   -4.196503    2.411256
     31          1           0       -7.385413   -3.165319    3.256431
     32          8           0       -3.304206   -3.674582    5.173715
     33          7           0       -4.141311   -5.363686    3.919399
     34          1           0       -4.930870   -5.744228    3.416489
     35          6           0       -2.817993   -5.960122    3.722614
     36          1           0       -2.293827   -5.962742    4.679773
     37          6           0       -1.951886   -5.083986    2.782734
     38          6           0       -2.938974   -7.381409    3.174997
     39          1           0       -1.940299   -7.795596    3.016854
     40          1           0       -3.466434   -7.392446    2.213539
     41          1           0       -3.475527   -8.022971    3.880414
     42          8           0       -0.732617   -5.085167    2.828512
     43          7           0       -2.663548   -4.360662    1.864828
     44          1           0       -3.661540   -4.312689    2.001068
     45          6           0       -2.075702   -3.298346    1.071626
     46          1           0       -1.257695   -3.716741    0.477196
     47          6           0       -1.517253   -2.184208    1.967955
     48          6           0       -3.201566   -2.757740    0.147141
     49          1           0       -3.334209   -3.496194   -0.654149
     50          1           0       -4.130194   -2.771791    0.731268
     51          8           0       -2.203711   -1.668195    2.864186
     52          6           0       -3.053260   -1.362133   -0.417563
     53          6           0       -4.178641   -0.527066   -0.484534
     54          1           0       -5.140582   -0.915330   -0.147317
     55          6           0       -1.857915   -0.867216   -0.957145
     56          1           0       -0.966880   -1.485542   -0.973609
     57          6           0       -4.113215    0.760202   -1.022152
     58          1           0       -5.006844    1.367729   -1.152980
     59          6           0       -1.765841    0.412887   -1.490494
     60          1           0       -0.839155    0.759264   -1.932102
     61          8           0       -2.865880    2.489817   -2.039444
     62          1           0       -1.972485    2.670220   -2.531622
     63          6           0       -2.893561    1.259744   -1.531611
     64          7           0       -0.282962   -1.760985    1.681054
     65          1           0        0.233224   -2.166291    0.908697
     66          6           0        0.276232   -0.515887    2.184810
     67          1           0       -0.551481    0.075727    2.580029
     68          6           0        0.902365    0.172763    0.969576
     69          6           0        1.316274   -0.778885    3.291824
     70          1           0        0.816159   -1.377980    4.062811
     71          1           0        2.107443   -1.407617    2.863137
     72          8           0        1.353116   -0.504004    0.036956
     73          6           0        1.940434    0.475658    3.926051
     74          1           0        2.445481    1.044503    3.134632
     75          6           0        0.886292    1.372074    4.592819
     76          1           0        0.341288    0.818073    5.367496
     77          1           0        1.358632    2.236413    5.071523
     78          1           0        0.138601    1.760905    3.892224
     79          6           0        3.004950    0.056581    4.947828
     80          1           0        2.559588   -0.523643    5.765365
     81          1           0        3.780096   -0.563441    4.482134
     82          1           0        3.494740    0.932665    5.386135
     83          7           0        0.921452    1.519607    0.978458
     84          1           0        0.581069    2.023049    1.785862
     85          6           0        1.536594    2.241486   -0.114079
     86          1           0        1.192162    1.745992   -1.025232
     87          6           0        3.054308    2.021134   -0.157387
     88          6           0        1.133613    3.731553   -0.188459
     89          1           0        0.813223    4.077665    0.802034
     90          1           0        2.016836    4.321948   -0.439676
     91          8           0        3.662333    1.336014    0.686268
     92          6           0        0.046873    3.980569   -1.241561
     93          1           0       -0.045002    5.057995   -1.425367
     94          1           0       -0.934696    3.636815   -0.902300
     95          6           0        0.363887    3.279507   -2.584258
     96          8           0       -0.613669    2.803308   -3.227221
     97          8           0        1.573617    3.200287   -2.932572
     98          7           0        3.606237    2.548256   -1.256047
     99          1           0        2.952985    3.006113   -1.926777
    100          6           0        4.944307    2.228031   -1.681121
    101          1           0        5.344614    1.490395   -0.980253
    102          6           0        5.846293    3.455090   -1.589233
    103          6           0        4.949215    1.648226   -3.116328
    104          1           0        5.923155    1.176416   -3.281745
    105          1           0        4.876391    2.470592   -3.836638
    106          8           0        5.491242    4.571421   -1.304521
    107          6           0        3.793972    0.679329   -3.417640
    108          1           0        3.964265    0.258818   -4.417772
    109          1           0        2.853937    1.240633   -3.479285
    110          6           0        3.574212   -0.465134   -2.424015
    111          1           0        2.844274   -1.171027   -2.836037
    112          1           0        3.157012   -0.128171   -1.478742
    113          7           0        4.816084   -1.210459   -2.142440
    114          1           0        5.339294   -1.524841   -2.949741
    115          7           0        4.838253   -1.083016    0.192926
    116          1           0        5.088193   -1.538041    1.058996
    117          1           0        4.326656   -0.182969    0.277439
    118          7           0        6.225462   -2.564834   -0.909127
    119          1           0        6.841636   -2.645375   -0.113914
    120          1           0        6.457333   -3.104748   -1.729220
    121          6           0        5.278010   -1.598107   -0.950827
    122          8           0        7.126490    3.123676   -1.887508
    123          1           0        7.645778    3.948704   -1.835444
 ---------------------------------------------------------------------

 SCF Done:  E(RB3LYP) =  -2974.34033409     A.U. after    3 cycles

 Alpha  occ. eigenvalues --  -19.26708 -19.23587 -19.21658 -19.20922 -19.20702
 Alpha  occ. eigenvalues --  -19.20567 -19.20428 -19.20388 -19.19509 -19.14305
 Alpha  occ. eigenvalues --  -19.14130 -14.55867 -14.50112 -14.49900 -14.47988
 Alpha  occ. eigenvalues --  -14.45976 -14.45597 -14.45257 -14.44889 -14.44412
 Alpha  occ. eigenvalues --  -14.42506 -10.45936 -10.40182 -10.38903 -10.38261
 Alpha  occ. eigenvalues --  -10.37964 -10.37475 -10.36734 -10.36580 -10.35961
 Alpha  occ. eigenvalues --  -10.33415 -10.32879 -10.32295 -10.32145 -10.31706
 Alpha  occ. eigenvalues --  -10.31678 -10.31642 -10.31517 -10.30656 -10.30382
 Alpha  occ. eigenvalues --  -10.29941 -10.28938 -10.28607 -10.28384 -10.28218
 Alpha  occ. eigenvalues --  -10.28131 -10.28076 -10.27724 -10.27589 -10.27347
 Alpha  occ. eigenvalues --  -10.27097 -10.26909 -10.26772 -10.26566 -10.26370
 Alpha  occ. eigenvalues --  -10.26263 -10.26149 -10.26110 -10.25057 -10.24701
 Alpha  occ. eigenvalues --  -10.24173 -10.23754  -1.17501  -1.15641  -1.14316
 Alpha  occ. eigenvalues --   -1.13693  -1.13125  -1.12692  -1.11425  -1.11320
 Alpha  occ. eigenvalues --   -1.10317  -1.09558  -1.08634  -1.07212  -1.03747
 Alpha  occ. eigenvalues --   -1.03261  -1.02507  -1.02067  -1.01957  -1.01347
 Alpha  occ. eigenvalues --   -1.00656  -1.00606  -0.98520  -0.95449  -0.92937
 Alpha  occ. eigenvalues --   -0.90550  -0.89483  -0.88809  -0.87924  -0.86860
 Alpha  occ. eigenvalues --   -0.86593  -0.84700  -0.84069  -0.83932  -0.83268
 Alpha  occ. eigenvalues --   -0.83120  -0.82294  -0.80168  -0.79060  -0.77486
 Alpha  occ. eigenvalues --   -0.77353  -0.75636  -0.75621  -0.75490  -0.74736
 Alpha  occ. eigenvalues --   -0.73705  -0.72246  -0.71766  -0.71264  -0.70571
 Alpha  occ. eigenvalues --   -0.70020  -0.69829  -0.69431  -0.69123  -0.68777
 Alpha  occ. eigenvalues --   -0.68718  -0.68465  -0.67681  -0.67554  -0.67011
 Alpha  occ. eigenvalues --   -0.66861  -0.66631  -0.65506  -0.65379  -0.63800
 Alpha  occ. eigenvalues --   -0.63652  -0.63561  -0.62891  -0.62266  -0.61042
 Alpha  occ. eigenvalues --   -0.60604  -0.60251  -0.59828  -0.59564  -0.58514
 Alpha  occ. eigenvalues --   -0.58121  -0.57940  -0.57563  -0.57361  -0.56878
 Alpha  occ. eigenvalues --   -0.56340  -0.56201  -0.55688  -0.55644  -0.55392
 Alpha  occ. eigenvalues --   -0.55155  -0.54947  -0.54847  -0.54602  -0.53915
 Alpha  occ. eigenvalues --   -0.53683  -0.53444  -0.53094  -0.52792  -0.52516
 Alpha  occ. eigenvalues --   -0.52219  -0.51971  -0.51747  -0.51655  -0.51432
 Alpha  occ. eigenvalues --   -0.51235  -0.51011  -0.50859  -0.50658  -0.50440
 Alpha  occ. eigenvalues --   -0.50159  -0.50051  -0.49873  -0.49431  -0.49339
 Alpha  occ. eigenvalues --   -0.49162  -0.49091  -0.48911  -0.48314  -0.48024
 Alpha  occ. eigenvalues --   -0.47872  -0.47598  -0.47476  -0.47357  -0.47115
 Alpha  occ. eigenvalues --   -0.47085  -0.46757  -0.46390  -0.45960  -0.45816
 Alpha  occ. eigenvalues --   -0.45523  -0.45418  -0.45288  -0.45084  -0.44763
 Alpha  occ. eigenvalues --   -0.44565  -0.44353  -0.43940  -0.43742  -0.43734
 Alpha  occ. eigenvalues --   -0.43538  -0.43222  -0.43018  -0.42930  -0.42687
 Alpha  occ. eigenvalues --   -0.42455  -0.42015  -0.41502  -0.40707  -0.40559
 Alpha  occ. eigenvalues --   -0.40037  -0.39835  -0.39676  -0.39299  -0.38791
 Alpha  occ. eigenvalues --   -0.38280  -0.38020  -0.37892  -0.36925  -0.36660
 Alpha  occ. eigenvalues --   -0.36149  -0.35955  -0.35429  -0.34609  -0.34537
 Alpha  occ. eigenvalues --   -0.34171  -0.34130  -0.34044  -0.33664  -0.33505
 Alpha  occ. eigenvalues --   -0.32969  -0.32798  -0.32085  -0.29820  -0.28727
 Alpha  occ. eigenvalues --   -0.28553  -0.27937
 Alpha virt. eigenvalues --   -0.10512  -0.10080  -0.10052  -0.08863  -0.08406
 Alpha virt. eigenvalues --   -0.08041  -0.07755  -0.07153  -0.06952  -0.06280
 Alpha virt. eigenvalues --   -0.05966  -0.05827  -0.05411  -0.04776  -0.03156

 Mulliken charges:
               1
     1  N   -0.760461
     2  H    0.404756
     3  H    0.405114
     4  H    0.416718
     5  C   -0.141132
     6  H    0.241904
     7  C    0.634049
     8  C   -0.357773
     9  H    0.239486
    10  H    0.170691
    11  O   -0.547707
    12  C    0.109613
    13  C   -0.231941
    14  H    0.158329
    15  C   -0.175850
    16  H    0.149347
    17  C   -0.160525
    18  H    0.177496
    19  C   -0.126307
    20  H    0.160162
    21  C   -0.138049
    22  H    0.159054
    23  N   -0.672916
    24  H    0.441709
    25  C    0.006658
    26  H    0.197952
    27  C    0.548023
    28  C   -0.492707
    29  H    0.172140
    30  H    0.142693
    31  H    0.211357
    32  O   -0.485815
    33  N   -0.629430
    34  H    0.342665
    35  C   -0.024073
    36  H    0.211067
    37  C    0.619807
    38  C   -0.481848
    39  H    0.196067
    40  H    0.151612
    41  H    0.178760
    42  O   -0.515880
    43  N   -0.610468
    44  H    0.325638
    45  C   -0.038270
    46  H    0.167768
    47  C    0.671610
    48  C   -0.383269
    49  H    0.187829
    50  H    0.134475
    51  O   -0.582567
    52  C    0.161681
    53  C   -0.241907
    54  H    0.123436
    55  C   -0.185889
    56  H    0.129670
    57  C   -0.221241
    58  H    0.143767
    59  C   -0.216060
    60  H    0.175862
    61  O   -0.680326
    62  H    0.468756
    63  C    0.374326
    64  N   -0.573019
    65  H    0.357229
    66  C   -0.093812
    67  H    0.182952
    68  C    0.659687
    69  C   -0.242364
    70  H    0.169455
    71  H    0.131823
    72  O   -0.576606
    73  C   -0.105405
    74  H    0.156805
    75  C   -0.467324
    76  H    0.151652
    77  H    0.156223
    78  H    0.138905
    79  C   -0.439248
    80  H    0.151052
    81  H    0.129771
    82  H    0.153613
    83  N   -0.619139
    84  H    0.356930
    85  C   -0.053538
    86  H    0.215209
    87  C    0.604675
    88  C   -0.320452
    89  H    0.136540
    90  H    0.195795
    91  O   -0.595817
    92  C   -0.391274
    93  H    0.173350
    94  H    0.159004
    95  C    0.605381
    96  O   -0.586186
    97  O   -0.579863
    98  N   -0.578760
    99  H    0.416456
   100  C   -0.058025
   101  H    0.167616
   102  C    0.589661
   103  C   -0.285105
   104  H    0.150845
   105  H    0.184299
   106  O   -0.438254
   107  C   -0.319980
   108  H    0.148602
   109  H    0.226803
   110  C   -0.183993
   111  H    0.187054
   112  H    0.227220
   113  N   -0.599114
   114  H    0.350661
   115  N   -0.788933
   116  H    0.361437
   117  H    0.459862
   118  N   -0.769007
   119  H    0.374464
   120  H    0.371568
   121  C    0.804127
   122  O   -0.572966
   123  H    0.421820
 Sum of Mulliken charges =   1.00000

 Dipole moment (field-independent basis, Debye):
    X=              2.6055    Y=             -9.7709    Z=              8.3243  Tot=             13.0979
 Quadrupole moment (field-independent basis, Debye-Ang):
   XX=           -169.3198   YY=           -303.1499   ZZ=           -346.3737
   XY=             -9.5539   XZ=            -69.9107   YZ=             29.5684

 Normal termination of Gaussian 16 at Thu Aug  4 01:15:38 2022.
