 Gaussian 16, Revision C.01,
 Gaussian 16:  ES64L-G16RevC.01  3-Jul-2019

 ----------------------------------------------------------------------
 # B3LYP/6-31G* empiricaldispersion=gd3bj guess=read geom=check nosymm
 integral(ultrafinegrid)
 ----------------------------------------------------------------------

 ------------------------------------------------------
 Candidate Structure: Conf:472 Charge calc in gas phase
 ------------------------------------------------------
 Structure from the checkpoint file:  "conf-472.chk"
 Charge =  1 Multiplicity = 1

                          Input orientation:
 ---------------------------------------------------------------------
 Center     Atomic      Atomic             Coordinates (Angstroms)
 Number     Number       Type             X           Y           Z
 ---------------------------------------------------------------------
      1          7           0       -3.756805    4.969070    2.889759
      2          1           0       -3.453682    4.744866    1.300367
      3          1           0       -3.182472    5.710005    3.288295
      4          1           0       -4.735319    5.203929    3.068719
      5          6           0       -3.475970    3.681961    3.541611
      6          1           0       -2.559150    3.286440    3.096521
      7          6           0       -4.647651    2.766582    3.186762
      8          6           0       -3.276076    3.765637    5.080543
      9          1           0       -2.339161    4.310153    5.254402
     10          1           0       -3.120385    2.745757    5.453264
     11          8           0       -5.802685    3.184050    3.154950
     12          6           0       -4.402033    4.438995    5.825770
     13          6           0       -4.361697    5.815587    6.078286
     14          1           0       -3.487454    6.390076    5.778464
     15          6           0       -5.522380    3.713990    6.248784
     16          1           0       -5.569233    2.645034    6.059919
     17          6           0       -5.417013    6.456719    6.727789
     18          1           0       -5.366221    7.524940    6.918042
     19          6           0       -6.577030    4.348325    6.901412
     20          1           0       -7.438207    3.770073    7.223495
     21          6           0       -6.529131    5.723016    7.139942
     22          1           0       -7.350921    6.217461    7.649417
     23          7           0       -4.316051    1.470423    2.967543
     24          1           0       -3.352697    1.209912    2.793389
     25          6           0       -5.300529    0.484687    2.569892
     26          1           0       -6.124285    0.501626    3.293524
     27          6           0       -4.596547   -0.872289    2.596319
     28          6           0       -5.859326    0.768379    1.159405
     29          1           0       -6.628073    0.038365    0.879767
     30          1           0       -5.043384    0.747470    0.430230
     31          1           0       -6.315590    1.759789    1.159370
     32          8           0       -3.375264   -0.971089    2.700563
     33          7           0       -5.373546   -1.968864    2.375295
     34          1           0       -6.381447   -1.888470    2.371301
     35          6           0       -4.750421   -3.270379    2.135065
     36          1           0       -4.148903   -3.555304    3.002642
     37          6           0       -3.745336   -3.161504    0.971003
     38          6           0       -5.817481   -4.329178    1.857205
     39          1           0       -5.337720   -5.292507    1.666717
     40          1           0       -6.415791   -4.067034    0.977702
     41          1           0       -6.484083   -4.443274    2.718395
     42          8           0       -2.673506   -3.760220    0.987687
     43          7           0       -4.155745   -2.381521   -0.072335
     44          1           0       -4.961200   -1.793855    0.105408
     45          6           0       -3.173341   -1.821166   -1.000638
     46          1           0       -2.509094   -2.639270   -1.286957
     47          6           0       -2.371676   -0.747958   -0.241868
     48          6           0       -3.856020   -1.234380   -2.238350
     49          1           0       -4.357681   -2.054854   -2.766692
     50          1           0       -4.636099   -0.538763   -1.910515
     51          8           0       -2.733572    0.426652   -0.179027
     52          6           0       -2.902308   -0.489838   -3.150962
     53          6           0       -3.207120    0.813861   -3.567020
     54          1           0       -4.128224    1.276765   -3.222976
     55          6           0       -1.705881   -1.052171   -3.606403
     56          1           0       -1.436624   -2.065838   -3.319872
     57          6           0       -2.359456    1.534608   -4.398373
     58          1           0       -2.601942    2.545152   -4.710378
     59          6           0       -0.837780   -0.342768   -4.442131
     60          1           0        0.070618   -0.811214   -4.813128
     61          8           0       -0.354300    1.727532   -5.618111
     62          1           0        0.499572    1.276641   -5.770438
     63          6           0       -1.157266    0.964942   -4.839336
     64          7           0       -1.268105   -1.233629    0.370304
     65          1           0       -1.142663   -2.238650    0.380217
     66          6           0       -0.304303   -0.390909    1.068300
     67          1           0       -0.852284    0.353332    1.651814
     68          6           0        0.481953    0.286213   -0.069961
     69          6           0        0.595667   -1.247980    1.949732
     70          1           0        1.081288   -1.976127    1.287745
     71          1           0        1.393359   -0.601819    2.342832
     72          8           0        1.307961   -0.356828   -0.736947
     73          6           0       -0.095123   -1.963064    3.122755
     74          1           0       -0.983230   -2.483443    2.744130
     75          6           0        0.852648   -3.015267    3.713752
     76          1           0        1.767538   -2.541196    4.106692
     77          1           0        0.393940   -3.549899    4.551437
     78          1           0        1.132741   -3.769843    2.965156
     79          6           0       -0.547907   -0.974683    4.202863
     80          1           0        0.305845   -0.405670    4.596643
     81          1           0       -1.289198   -0.273320    3.814973
     82          1           0       -1.014154   -1.503265    5.040946
     83          7           0        0.091653    1.537701   -0.343974
     84          1           0       -0.595189    1.991174    0.270263
     85          6           0        0.188940    2.107784   -1.683223
     86          1           0       -0.368452    1.453727   -2.362548
     87          6           0        1.647929    2.180352   -2.147511
     88          6           0       -0.451285    3.500458   -1.724088
     89          1           0        0.125397    4.173330   -1.081867
     90          1           0       -0.339541    3.864370   -2.750523
     91          8           0        2.479158    2.913247   -1.623824
     92          6           0       -1.954311    3.526665   -1.364090
     93          1           0       -2.418645    2.566904   -1.620924
     94          1           0       -2.466347    4.295831   -1.946046
     95          6           0       -2.258366    3.772443    0.101717
     96          8           0       -1.621267    3.245419    1.020447
     97          8           0       -3.271885    4.585810    0.290879
     98          7           0        1.917114    1.373735   -3.216976
     99          1           0        1.233016    0.656244   -3.425061
    100          6           0        3.260426    1.155111   -3.699385
    101          1           0        3.835546    2.063278   -3.497045
    102          6           0        3.229006    0.920251   -5.200851
    103          6           0        3.937601   -0.055848   -3.005403
    104          1           0        4.833246   -0.351231   -3.561571
    105          1           0        3.229780   -0.892585   -3.053915
    106          8           0        2.242519    0.634296   -5.854376
    107          6           0        4.287473    0.251246   -1.541921
    108          1           0        3.555295    0.940647   -1.122893
    109          1           0        5.269822    0.740088   -1.493834
    110          6           0        4.278282   -1.010561   -0.686234
    111          1           0        5.030324   -1.737677   -1.017960
    112          1           0        3.275218   -1.442573   -0.734087
    113          7           0        4.538661   -0.639893    0.717887
    114          1           0        4.992369    0.251051    0.878543
    115          7           0        3.746362   -2.606157    1.667464
    116          1           0        3.097130   -2.984619    2.346418
    117          1           0        3.740882   -3.040612    0.755734
    118          7           0        4.183042   -0.770710    3.003948
    119          1           0        4.035530   -1.329439    3.831833
    120          1           0        4.230721    0.231267    3.118392
    121          6           0        4.144341   -1.329155    1.780241
    122          8           0        4.452981    1.004696   -5.739850
    123          1           0        4.366614    0.817705   -6.694985
 ---------------------------------------------------------------------

 SCF Done:  E(RB3LYP) =  -2974.36511254     A.U. after    3 cycles

 Alpha  occ. eigenvalues --  -19.29552 -19.24508 -19.22377 -19.22332 -19.21141
 Alpha  occ. eigenvalues --  -19.20136 -19.19354 -19.19347 -19.19187 -19.18818
 Alpha  occ. eigenvalues --  -19.17929 -14.52407 -14.52245 -14.51961 -14.45509
 Alpha  occ. eigenvalues --  -14.44182 -14.43580 -14.43522 -14.42488 -14.41947
 Alpha  occ. eigenvalues --  -14.40687 -10.48472 -10.42277 -10.37799 -10.37343
 Alpha  occ. eigenvalues --  -10.37018 -10.35994 -10.35957 -10.35879 -10.34859
 Alpha  occ. eigenvalues --  -10.34576 -10.32966 -10.32042 -10.31301 -10.31057
 Alpha  occ. eigenvalues --  -10.31032 -10.31003 -10.29787 -10.29136 -10.28923
 Alpha  occ. eigenvalues --  -10.28868 -10.27752 -10.27587 -10.27350 -10.27159
 Alpha  occ. eigenvalues --  -10.26582 -10.25889 -10.25762 -10.25702 -10.25688
 Alpha  occ. eigenvalues --  -10.25335 -10.25273 -10.25134 -10.25064 -10.24875
 Alpha  occ. eigenvalues --  -10.24751 -10.24535 -10.23994 -10.23775 -10.23752
 Alpha  occ. eigenvalues --  -10.23664 -10.23580  -1.20819  -1.17144  -1.14493
 Alpha  occ. eigenvalues --   -1.13443  -1.11944  -1.11896  -1.11363  -1.10861
 Alpha  occ. eigenvalues --   -1.10792  -1.10118  -1.09971  -1.06297  -1.05682
 Alpha  occ. eigenvalues --   -1.05280  -1.02312  -1.00833  -1.00670  -1.00115
 Alpha  occ. eigenvalues --   -0.99334  -0.99260  -0.97086  -0.91860  -0.90872
 Alpha  occ. eigenvalues --   -0.90425  -0.89991  -0.87450  -0.87089  -0.85740
 Alpha  occ. eigenvalues --   -0.85537  -0.84036  -0.83410  -0.82773  -0.81147
 Alpha  occ. eigenvalues --   -0.80888  -0.79420  -0.79253  -0.79124  -0.77883
 Alpha  occ. eigenvalues --   -0.77664  -0.77042  -0.74828  -0.74623  -0.74410
 Alpha  occ. eigenvalues --   -0.73295  -0.72343  -0.71866  -0.71559  -0.70777
 Alpha  occ. eigenvalues --   -0.69979  -0.68794  -0.68585  -0.67703  -0.67286
 Alpha  occ. eigenvalues --   -0.66538  -0.65983  -0.65836  -0.65471  -0.65416
 Alpha  occ. eigenvalues --   -0.64925  -0.64891  -0.64835  -0.64501  -0.63579
 Alpha  occ. eigenvalues --   -0.63406  -0.61519  -0.61195  -0.61029  -0.60574
 Alpha  occ. eigenvalues --   -0.60159  -0.59661  -0.59291  -0.59065  -0.58506
 Alpha  occ. eigenvalues --   -0.57565  -0.57249  -0.57051  -0.56676  -0.56247
 Alpha  occ. eigenvalues --   -0.55945  -0.55739  -0.55599  -0.55083  -0.54987
 Alpha  occ. eigenvalues --   -0.54896  -0.54789  -0.53851  -0.53420  -0.52993
 Alpha  occ. eigenvalues --   -0.52682  -0.52338  -0.52210  -0.51990  -0.51739
 Alpha  occ. eigenvalues --   -0.51543  -0.51142  -0.50951  -0.50806  -0.50632
 Alpha  occ. eigenvalues --   -0.50565  -0.50244  -0.49900  -0.49619  -0.49421
 Alpha  occ. eigenvalues --   -0.49091  -0.48910  -0.48753  -0.48566  -0.48463
 Alpha  occ. eigenvalues --   -0.48304  -0.47960  -0.47809  -0.47474  -0.47338
 Alpha  occ. eigenvalues --   -0.47072  -0.46974  -0.46936  -0.46660  -0.46393
 Alpha  occ. eigenvalues --   -0.46103  -0.45910  -0.45767  -0.45431  -0.45207
 Alpha  occ. eigenvalues --   -0.45136  -0.45015  -0.44625  -0.44404  -0.44365
 Alpha  occ. eigenvalues --   -0.44229  -0.43982  -0.43657  -0.43519  -0.43466
 Alpha  occ. eigenvalues --   -0.43198  -0.42705  -0.42289  -0.42157  -0.41968
 Alpha  occ. eigenvalues --   -0.41737  -0.41657  -0.41279  -0.41187  -0.41074
 Alpha  occ. eigenvalues --   -0.40639  -0.40446  -0.40333  -0.39608  -0.38969
 Alpha  occ. eigenvalues --   -0.38707  -0.38516  -0.37698  -0.36391  -0.36302
 Alpha  occ. eigenvalues --   -0.35688  -0.35245  -0.34747  -0.34129  -0.33580
 Alpha  occ. eigenvalues --   -0.33418  -0.33173  -0.33107  -0.32362  -0.32002
 Alpha  occ. eigenvalues --   -0.31658  -0.31533  -0.31400  -0.30949  -0.29732
 Alpha  occ. eigenvalues --   -0.28968  -0.27694
 Alpha virt. eigenvalues --   -0.12692  -0.09414  -0.08666  -0.07926  -0.07401
 Alpha virt. eigenvalues --   -0.06644  -0.05939  -0.05462  -0.05356  -0.05306
 Alpha virt. eigenvalues --   -0.04972  -0.04715  -0.04540  -0.04181  -0.04126

 Mulliken charges:
               1
     1  N   -0.789847
     2  H    0.476879
     3  H    0.327174
     4  H    0.359304
     5  C   -0.064683
     6  H    0.178152
     7  C    0.641422
     8  C   -0.380184
     9  H    0.151689
    10  H    0.155222
    11  O   -0.533180
    12  C    0.181654
    13  C   -0.199278
    14  H    0.114988
    15  C   -0.154455
    16  H    0.121432
    17  C   -0.126066
    18  H    0.137860
    19  C   -0.127337
    20  H    0.135882
    21  C   -0.128336
    22  H    0.139773
    23  N   -0.624509
    24  H    0.365553
    25  C   -0.030406
    26  H    0.180295
    27  C    0.619283
    28  C   -0.496262
    29  H    0.126871
    30  H    0.195797
    31  H    0.211462
    32  O   -0.527455
    33  N   -0.644162
    34  H    0.344274
    35  C   -0.008977
    36  H    0.189865
    37  C    0.629139
    38  C   -0.490649
    39  H    0.193973
    40  H    0.163566
    41  H    0.174570
    42  O   -0.546310
    43  N   -0.590742
    44  H    0.341859
    45  C   -0.070400
    46  H    0.172194
    47  C    0.664462
    48  C   -0.362790
    49  H    0.171379
    50  H    0.156072
    51  O   -0.555871
    52  C    0.170888
    53  C   -0.189319
    54  H    0.139908
    55  C   -0.183063
    56  H    0.127593
    57  C   -0.166986
    58  H    0.150675
    59  C   -0.244059
    60  H    0.139713
    61  O   -0.672290
    62  H    0.454603
    63  C    0.352849
    64  N   -0.598662
    65  H    0.359351
    66  C   -0.035426
    67  H    0.180771
    68  C    0.619035
    69  C   -0.307766
    70  H    0.125931
    71  H    0.116175
    72  O   -0.593284
    73  C   -0.080564
    74  H    0.184895
    75  C   -0.460811
    76  H    0.095406
    77  H    0.177826
    78  H    0.138529
    79  C   -0.448739
    80  H    0.116359
    81  H    0.177022
    82  H    0.153897
    83  N   -0.623284
    84  H    0.424045
    85  C   -0.061422
    86  H    0.179145
    87  C    0.648892
    88  C   -0.306845
    89  H    0.181842
    90  H    0.171687
    91  O   -0.544467
    92  C   -0.394663
    93  H    0.218927
    94  H    0.178520
    95  C    0.618656
    96  O   -0.535271
    97  O   -0.595789
    98  N   -0.598221
    99  H    0.354329
   100  C   -0.065963
   101  H    0.214902
   102  C    0.605617
   103  C   -0.278027
   104  H    0.173081
   105  H    0.159706
   106  O   -0.486077
   107  C   -0.316894
   108  H    0.220134
   109  H    0.152750
   110  C   -0.160169
   111  H    0.173568
   112  H    0.218743
   113  N   -0.598010
   114  H    0.367188
   115  N   -0.752880
   116  H    0.384704
   117  H    0.387496
   118  N   -0.763269
   119  H    0.387811
   120  H    0.384363
   121  C    0.821663
   122  O   -0.548464
   123  H    0.431341
 Sum of Mulliken charges =   1.00000

 Dipole moment (field-independent basis, Debye):
    X=              7.6767    Y=             -6.5190    Z=              7.1052  Tot=             12.3253
 Quadrupole moment (field-independent basis, Debye-Ang):
   XX=           -235.0637   YY=           -328.2945   ZZ=           -297.7272
   XY=             -2.2161   XZ=            -18.6014   YZ=              3.8991

 Normal termination of Gaussian 16 at Thu Aug  4 01:15:29 2022.
