 Gaussian 16, Revision C.01,
 Gaussian 16:  ES64L-G16RevC.01  3-Jul-2019

 ----------------------------------------------------------------------
 # B3LYP/6-31G* empiricaldispersion=gd3bj guess=read geom=check nosymm
 integral(ultrafinegrid)
 ----------------------------------------------------------------------

 ------------------------------------------------------
 Candidate Structure: Conf:684 Charge calc in gas phase
 ------------------------------------------------------
 Structure from the checkpoint file:  "conf-684.chk"
 Charge =  1 Multiplicity = 1

                          Input orientation:
 ---------------------------------------------------------------------
 Center     Atomic      Atomic             Coordinates (Angstroms)
 Number     Number       Type             X           Y           Z
 ---------------------------------------------------------------------
      1          7           0      -10.402931    5.328454    6.192383
      2          1           0      -10.647218    5.880074    5.366093
      3          1           0      -10.661333    5.851434    7.029754
      4          1           0      -10.941543    4.452788    6.144278
      5          6           0       -8.968588    4.942418    6.189300
      6          1           0       -8.349214    5.815580    5.968155
      7          6           0       -8.814163    3.874007    5.105525
      8          6           0       -8.550083    4.371080    7.552179
      9          1           0       -9.175858    3.498093    7.757745
     10          1           0       -8.763171    5.126124    8.316206
     11          8           0       -9.750194    3.115264    4.863300
     12          6           0       -7.091974    3.986291    7.564041
     13          6           0       -6.711054    2.654838    7.396992
     14          1           0       -7.474009    1.892838    7.269877
     15          6           0       -6.105283    4.965276    7.683918
     16          1           0       -6.402118    6.005228    7.793779
     17          6           0       -5.361858    2.307111    7.360588
     18          1           0       -5.078289    1.269195    7.219078
     19          6           0       -4.755502    4.619829    7.657479
     20          1           0       -4.000725    5.390418    7.759868
     21          6           0       -4.383643    3.287570    7.496999
     22          1           0       -3.334397    3.015128    7.469643
     23          7           0       -7.615099    3.817385    4.511233
     24          1           0       -6.835382    4.380835    4.833869
     25          6           0       -7.239403    2.739977    3.618091
     26          1           0       -7.629160    1.796128    4.014470
     27          6           0       -5.705663    2.721572    3.633351
     28          6           0       -7.795732    2.943577    2.207495
     29          1           0       -7.488249    2.134650    1.540261
     30          1           0       -7.433795    3.889379    1.794946
     31          1           0       -8.884953    2.972345    2.250565
     32          8           0       -5.064668    3.709010    3.972820
     33          7           0       -5.137788    1.581027    3.204094
     34          1           0       -5.677528    0.769357    2.937502
     35          6           0       -3.705253    1.452150    3.018969
     36          1           0       -3.342262    2.352317    2.514106
     37          6           0       -3.527178    0.230836    2.114395
     38          6           0       -2.958166    1.298646    4.343737
     39          1           0       -1.889127    1.158378    4.168215
     40          1           0       -3.343827    0.440170    4.901593
     41          1           0       -3.105760    2.201627    4.938600
     42          8           0       -4.369509   -0.658193    2.072231
     43          7           0       -2.389321    0.213253    1.387612
     44          1           0       -1.644633    0.877852    1.543004
     45          6           0       -2.128811   -0.799347    0.393475
     46          1           0       -2.682600   -1.698202    0.667747
     47          6           0       -0.623376   -1.021870    0.365340
     48          6           0       -2.584605   -0.338323   -1.018712
     49          1           0       -1.919184    0.465462   -1.352736
     50          1           0       -2.448553   -1.174451   -1.711203
     51          8           0        0.140779   -0.159119    0.792641
     52          6           0       -4.001597    0.165687   -1.044192
     53          6           0       -4.257023    1.525505   -0.828893
     54          1           0       -3.424883    2.204635   -0.670460
     55          6           0       -5.090307   -0.682095   -1.252884
     56          1           0       -4.921133   -1.739271   -1.436200
     57          6           0       -5.559143    2.018579   -0.792727
     58          1           0       -5.750430    3.072494   -0.630355
     59          6           0       -6.399537   -0.200703   -1.222032
     60          1           0       -7.231793   -0.879064   -1.382934
     61          8           0       -7.895657    1.684499   -0.918851
     62          1           0       -8.532598    0.969847   -1.030674
     63          6           0       -6.628823    1.151922   -0.983922
     64          7           0       -0.177347   -2.163091   -0.222103
     65          1           0       -0.835561   -2.734127   -0.728018
     66          6           0        1.228758   -2.231418   -0.631766
     67          1           0        1.779765   -1.739648    0.170452
     68          6           0        1.355111   -1.410469   -1.918272
     69          6           0        1.731402   -3.652238   -0.790189
     70          1           0        1.617907   -4.145279    0.180818
     71          1           0        1.101592   -4.187182   -1.507097
     72          8           0        1.350748   -1.902416   -3.044867
     73          6           0        3.200310   -3.745691   -1.244474
     74          1           0        3.226423   -3.533971   -2.317044
     75          6           0        4.094468   -2.720749   -0.542827
     76          1           0        3.982135   -2.787612    0.544810
     77          1           0        5.145504   -2.907458   -0.780754
     78          1           0        3.863069   -1.694740   -0.846373
     79          6           0        3.709410   -5.168793   -1.014722
     80          1           0        3.738626   -5.396662    0.055244
     81          1           0        3.060391   -5.903404   -1.500170
     82          1           0        4.719209   -5.296232   -1.415247
     83          7           0        1.346415   -0.078699   -1.691008
     84          1           0        1.357901    0.250545   -0.734415
     85          6           0        1.530808    0.905906   -2.732198
     86          1           0        1.064576    0.506466   -3.636607
     87          6           0        3.031205    1.094821   -2.959391
     88          6           0        0.836197    2.204853   -2.311212
     89          1           0        1.352716    2.627259   -1.448401
     90          1           0        0.899965    2.937691   -3.121214
     91          8           0        3.793505    1.426436   -2.060945
     92          6           0       -0.638746    1.963765   -1.974404
     93          1           0       -0.717917    1.307392   -1.104122
     94          1           0       -1.143460    1.509112   -2.832724
     95          6           0       -1.310829    3.312176   -1.621151
     96          8           0       -1.220066    3.645692   -0.419495
     97          8           0       -1.851459    3.915921   -2.569330
     98          7           0        3.448909    0.818106   -4.225441
     99          1           0        2.773872    0.525290   -4.911732
    100          6           0        4.840313    0.949962   -4.617945
    101          1           0        5.422653    0.948984   -3.694813
    102          6           0        5.018326    2.288524   -5.318575
    103          6           0        5.251013   -0.198652   -5.531499
    104          1           0        4.652248   -0.152948   -6.445597
    105          1           0        5.001139   -1.130520   -5.017454
    106          8           0        4.865481    2.467574   -6.505284
    107          6           0        6.734804   -0.184073   -5.881994
    108          1           0        7.328178   -0.154127   -4.962614
    109          1           0        6.970609    0.716411   -6.454182
    110          6           0        7.128723   -1.406837   -6.695397
    111          1           0        6.552296   -1.420757   -7.626078
    112          1           0        6.892728   -2.324076   -6.141150
    113          7           0        8.566398   -1.351585   -7.019949
    114          1           0        9.142381   -0.926312   -6.305848
    115          7           0        8.475872   -3.292408   -8.319095
    116          1           0        8.892059   -3.825914   -9.066735
    117          1           0        7.470846   -3.225539   -8.330943
    118          7           0       10.531163   -2.287286   -7.821087
    119          1           0       10.967797   -2.869507   -8.520513
    120          1           0       10.990961   -1.399166   -7.671567
    121          6           0        9.180074   -2.305812   -7.737100
    122          8           0        5.330176    3.273336   -4.455703
    123          1           0        5.379444    4.089331   -4.977027
 ---------------------------------------------------------------------

 SCF Done:  E(RB3LYP) =  -2974.16398778     A.U. after    3 cycles

 Alpha  occ. eigenvalues --  -19.25003 -19.22772 -19.19958 -19.19762 -19.16956
 Alpha  occ. eigenvalues --  -19.15946 -19.14713 -19.14501 -19.13875 -19.01147
 Alpha  occ. eigenvalues --  -19.01021 -14.60937 -14.53194 -14.52647 -14.52475
 Alpha  occ. eigenvalues --  -14.45141 -14.40904 -14.40421 -14.40280 -14.38352
 Alpha  occ. eigenvalues --  -14.37254 -10.48470 -10.39794 -10.38642 -10.37532
 Alpha  occ. eigenvalues --  -10.35825 -10.33909 -10.32686 -10.32122 -10.31718
 Alpha  occ. eigenvalues --  -10.31516 -10.30656 -10.29983 -10.29691 -10.29576
 Alpha  occ. eigenvalues --  -10.28586 -10.27301 -10.27199 -10.26975 -10.26670
 Alpha  occ. eigenvalues --  -10.26497 -10.26409 -10.26209 -10.26157 -10.26132
 Alpha  occ. eigenvalues --  -10.26056 -10.24403 -10.23188 -10.22181 -10.21846
 Alpha  occ. eigenvalues --  -10.21818 -10.20907 -10.20687 -10.20405 -10.20345
 Alpha  occ. eigenvalues --  -10.20224 -10.19859 -10.19539 -10.19277 -10.19026
 Alpha  occ. eigenvalues --  -10.17987 -10.14158  -1.17523  -1.17142  -1.16355
 Alpha  occ. eigenvalues --   -1.13620  -1.09448  -1.08537  -1.07907  -1.07396
 Alpha  occ. eigenvalues --   -1.06982  -1.06884  -1.06776  -1.06166  -1.05592
 Alpha  occ. eigenvalues --   -1.02052  -0.97656  -0.97171  -0.96913  -0.95538
 Alpha  occ. eigenvalues --   -0.95048  -0.94793  -0.94483  -0.91283  -0.91106
 Alpha  occ. eigenvalues --   -0.86567  -0.85977  -0.85217  -0.85103  -0.84720
 Alpha  occ. eigenvalues --   -0.83259  -0.82349  -0.81831  -0.80428  -0.79699
 Alpha  occ. eigenvalues --   -0.79101  -0.77949  -0.77733  -0.77022  -0.75791
 Alpha  occ. eigenvalues --   -0.74912  -0.74786  -0.74430  -0.73287  -0.72744
 Alpha  occ. eigenvalues --   -0.72032  -0.71751  -0.71396  -0.70395  -0.70360
 Alpha  occ. eigenvalues --   -0.68809  -0.68450  -0.67811  -0.66619  -0.66251
 Alpha  occ. eigenvalues --   -0.66013  -0.65594  -0.65293  -0.64785  -0.63859
 Alpha  occ. eigenvalues --   -0.63644  -0.63363  -0.62526  -0.61786  -0.61585
 Alpha  occ. eigenvalues --   -0.61196  -0.60961  -0.60607  -0.60017  -0.59537
 Alpha  occ. eigenvalues --   -0.59332  -0.59259  -0.58540  -0.58117  -0.56894
 Alpha  occ. eigenvalues --   -0.56346  -0.55804  -0.55603  -0.54998  -0.54392
 Alpha  occ. eigenvalues --   -0.54302  -0.53775  -0.53626  -0.52901  -0.52828
 Alpha  occ. eigenvalues --   -0.52048  -0.51690  -0.51537  -0.51226  -0.50917
 Alpha  occ. eigenvalues --   -0.50462  -0.49867  -0.49814  -0.49711  -0.49521
 Alpha  occ. eigenvalues --   -0.49246  -0.49038  -0.48745  -0.48614  -0.48403
 Alpha  occ. eigenvalues --   -0.47882  -0.47849  -0.47293  -0.46756  -0.46663
 Alpha  occ. eigenvalues --   -0.46289  -0.45820  -0.45556  -0.45448  -0.45022
 Alpha  occ. eigenvalues --   -0.44758  -0.44688  -0.44528  -0.44471  -0.43992
 Alpha  occ. eigenvalues --   -0.43822  -0.43650  -0.43473  -0.43325  -0.43198
 Alpha  occ. eigenvalues --   -0.42965  -0.42752  -0.42637  -0.42506  -0.42490
 Alpha  occ. eigenvalues --   -0.42127  -0.42023  -0.41912  -0.41769  -0.41536
 Alpha  occ. eigenvalues --   -0.41217  -0.40698  -0.40432  -0.40301  -0.40140
 Alpha  occ. eigenvalues --   -0.39960  -0.39159  -0.38743  -0.38304  -0.37920
 Alpha  occ. eigenvalues --   -0.37428  -0.37195  -0.36682  -0.36331  -0.36195
 Alpha  occ. eigenvalues --   -0.35731  -0.35589  -0.35153  -0.34661  -0.34248
 Alpha  occ. eigenvalues --   -0.34078  -0.33808  -0.32924  -0.32818  -0.32511
 Alpha  occ. eigenvalues --   -0.31631  -0.31244  -0.30656  -0.30293  -0.29982
 Alpha  occ. eigenvalues --   -0.29938  -0.29246  -0.28949  -0.28534  -0.28028
 Alpha  occ. eigenvalues --   -0.26943  -0.26215  -0.25914  -0.23147  -0.17038
 Alpha  occ. eigenvalues --   -0.15745  -0.14948
 Alpha virt. eigenvalues --   -0.14173  -0.10977  -0.09039  -0.08959  -0.08829
 Alpha virt. eigenvalues --   -0.08038  -0.05395  -0.05141  -0.05020  -0.04111
 Alpha virt. eigenvalues --   -0.03728  -0.03251  -0.03042  -0.02814  -0.01392

 Mulliken charges:
               1
     1  N   -0.717549
     2  H    0.429638
     3  H    0.417165
     4  H    0.422722
     5  C   -0.144534
     6  H    0.217380
     7  C    0.638793
     8  C   -0.372124
     9  H    0.184946
    10  H    0.171073
    11  O   -0.539009
    12  C    0.153735
    13  C   -0.179889
    14  H    0.143314
    15  C   -0.192647
    16  H    0.125960
    17  C   -0.124198
    18  H    0.158439
    19  C   -0.113041
    20  H    0.160525
    21  C   -0.109820
    22  H    0.162441
    23  N   -0.590316
    24  H    0.371174
    25  C   -0.050722
    26  H    0.172468
    27  C    0.631607
    28  C   -0.453031
    29  H    0.200318
    30  H    0.172249
    31  H    0.164650
    32  O   -0.542039
    33  N   -0.622779
    34  H    0.354979
    35  C   -0.034988
    36  H    0.215120
    37  C    0.623548
    38  C   -0.460323
    39  H    0.166141
    40  H    0.146860
    41  H    0.178911
    42  O   -0.548049
    43  N   -0.608908
    44  H    0.372920
    45  C   -0.055670
    46  H    0.175364
    47  C    0.645613
    48  C   -0.378021
    49  H    0.177728
    50  H    0.127403
    51  O   -0.543165
    52  C    0.183096
    53  C   -0.205074
    54  H    0.199651
    55  C   -0.168717
    56  H    0.110662
    57  C   -0.177707
    58  H    0.145402
    59  C   -0.195627
    60  H    0.108332
    61  O   -0.658543
    62  H    0.402108
    63  C    0.343812
    64  N   -0.609162
    65  H    0.336145
    66  C   -0.073361
    67  H    0.186530
    68  C    0.620382
    69  C   -0.264943
    70  H    0.138295
    71  H    0.141660
    72  O   -0.561510
    73  C   -0.073162
    74  H    0.145440
    75  C   -0.465962
    76  H    0.145705
    77  H    0.128948
    78  H    0.167481
    79  C   -0.444836
    80  H    0.142920
    81  H    0.142532
    82  H    0.129016
    83  N   -0.593910
    84  H    0.381391
    85  C   -0.059488
    86  H    0.148922
    87  C    0.642414
    88  C   -0.302698
    89  H    0.171172
    90  H    0.152349
    91  O   -0.525921
    92  C   -0.316701
    93  H    0.131765
    94  H    0.114783
    95  C    0.548616
    96  O   -0.624306
    97  O   -0.583100
    98  N   -0.618611
    99  H    0.344845
   100  C   -0.014816
   101  H    0.197191
   102  C    0.580258
   103  C   -0.289241
   104  H    0.167789
   105  H    0.168396
   106  O   -0.472479
   107  C   -0.316812
   108  H    0.159439
   109  H    0.189979
   110  C   -0.161708
   111  H    0.185907
   112  H    0.190065
   113  N   -0.590290
   114  H    0.367779
   115  N   -0.733410
   116  H    0.379308
   117  H    0.393820
   118  N   -0.734941
   119  H    0.374521
   120  H    0.381812
   121  C    0.764963
   122  O   -0.538743
   123  H    0.417815
 Sum of Mulliken charges =   1.00000

 Dipole moment (field-independent basis, Debye):
    X=              4.9051    Y=             -2.5199    Z=             -2.8831  Tot=              6.2227
 Quadrupole moment (field-independent basis, Debye-Ang):
   XX=            337.7376   YY=           -268.9764   ZZ=             40.8122
   XY=           -252.2395   XZ=           -533.0718   YZ=            229.1892

 Normal termination of Gaussian 16 at Thu Aug  4 01:14:51 2022.
