 Gaussian 16, Revision C.01,
 Gaussian 16:  ES64L-G16RevC.01  3-Jul-2019

 ----------------------------------------------------------------------
 # B3LYP/6-31G* empiricaldispersion=gd3bj guess=read geom=check nosymm
 integral(ultrafinegrid)
 ----------------------------------------------------------------------

 ------------------------------------------------------
 Candidate Structure: Conf:477 Charge calc in gas phase
 ------------------------------------------------------
 Structure from the checkpoint file:  "conf-477.chk"
 Charge =  1 Multiplicity = 1

                          Input orientation:
 ---------------------------------------------------------------------
 Center     Atomic      Atomic             Coordinates (Angstroms)
 Number     Number       Type             X           Y           Z
 ---------------------------------------------------------------------
      1          7           0       -5.543443    4.908826   -0.839053
      2          1           0       -6.322013    4.655821   -0.161515
      3          1           0       -5.772776    4.677745   -1.806307
      4          1           0       -5.373844    5.921345   -0.742576
      5          6           0       -4.370937    4.130635   -0.278610
      6          1           0       -4.104199    3.334889   -0.979662
      7          6           0       -4.966407    3.524300    1.014262
      8          6           0       -3.178927    5.084002   -0.050080
      9          1           0       -2.822461    5.419859   -1.030566
     10          1           0       -2.360962    4.493678    0.361808
     11          8           0       -6.137726    3.826325    1.308868
     12          6           0       -3.548873    6.249031    0.832995
     13          6           0       -3.938504    7.470277    0.261743
     14          1           0       -3.853273    7.611026   -0.816014
     15          6           0       -3.572565    6.112102    2.229573
     16          1           0       -3.252461    5.183281    2.696488
     17          6           0       -4.366307    8.531697    1.064732
     18          1           0       -4.655230    9.474097    0.608920
     19          6           0       -3.993741    7.174306    3.027227
     20          1           0       -4.000696    7.059800    4.107054
     21          6           0       -4.399282    8.380841    2.449637
     22          1           0       -4.726063    9.203124    3.078881
     23          7           0       -4.190980    2.735562    1.747503
     24          1           0       -3.264862    2.409814    1.445109
     25          6           0       -4.628838    2.273807    3.069784
     26          1           0       -5.212582    3.089365    3.506501
     27          6           0       -3.348338    2.161221    3.923516
     28          6           0       -5.516768    1.032982    2.964197
     29          1           0       -5.868356    0.718973    3.952735
     30          1           0       -4.984888    0.203434    2.488310
     31          1           0       -6.394930    1.270121    2.358358
     32          8           0       -2.642780    3.149935    4.105314
     33          7           0       -3.074764    0.933399    4.416587
     34          1           0       -3.688772    0.167649    4.184789
     35          6           0       -1.825493    0.611303    5.103449
     36          1           0       -1.077295    1.305050    4.702772
     37          6           0       -1.404884   -0.818445    4.716161
     38          6           0       -1.928922    0.783423    6.615111
     39          1           0       -0.972036    0.549579    7.087992
     40          1           0       -2.682800    0.109961    7.032167
     41          1           0       -2.201557    1.817424    6.842584
     42          8           0       -1.118162   -1.662297    5.550996
     43          7           0       -1.424342   -1.068997    3.364657
     44          1           0       -1.474177   -0.263343    2.737689
     45          6           0       -0.820212   -2.288955    2.864421
     46          1           0       -0.847333   -2.994352    3.703448
     47          6           0        0.684752   -2.030145    2.623864
     48          6           0       -1.643067   -2.883645    1.689883
     49          1           0       -1.117142   -3.746538    1.260982
     50          1           0       -2.558897   -3.290300    2.129097
     51          8           0        1.291503   -1.223745    3.326019
     52          6           0       -2.005738   -1.859484    0.638489
     53          6           0       -3.265356   -1.248707    0.668622
     54          1           0       -4.017236   -1.622183    1.359031
     55          6           0       -1.079063   -1.399127   -0.304286
     56          1           0       -0.109636   -1.871244   -0.411815
     57          6           0       -3.550793   -0.135775   -0.118599
     58          1           0       -4.503036    0.376848   -0.032906
     59          6           0       -1.352200   -0.286172   -1.094578
     60          1           0       -0.612067    0.079029   -1.797406
     61          8           0       -2.722257    1.658223   -1.494364
     62          1           0       -2.112871    2.222144   -0.881731
     63          6           0       -2.561683    0.395091   -0.943380
     64          7           0        1.328118   -2.742881    1.649112
     65          1           0        0.779386   -3.288483    1.000875
     66          6           0        2.686762   -2.384898    1.217298
     67          1           0        3.284166   -2.245089    2.120674
     68          6           0        2.527387   -1.042047    0.479125
     69          6           0        3.280997   -3.465408    0.322974
     70          1           0        3.193645   -4.434183    0.829278
     71          1           0        2.679080   -3.516324   -0.593110
     72          8           0        2.203420   -0.988319   -0.722283
     73          6           0        4.754693   -3.202280   -0.040668
     74          1           0        4.843600   -2.148639   -0.347702
     75          6           0        5.691825   -3.419561    1.154388
     76          1           0        5.640346   -4.458491    1.501229
     77          1           0        6.730863   -3.210710    0.878440
     78          1           0        5.441938   -2.771338    2.000710
     79          6           0        5.174963   -4.081793   -1.225315
     80          1           0        5.108130   -5.144616   -0.964985
     81          1           0        4.526359   -3.927222   -2.098342
     82          1           0        6.212416   -3.883806   -1.519116
     83          7           0        2.579372    0.053131    1.255081
     84          1           0        2.634759   -0.143441    2.252091
     85          6           0        1.715319    1.188648    0.921946
     86          1           0        0.798013    0.764615    0.502083
     87          6           0        2.311162    2.169875   -0.101402
     88          6           0        1.361039    1.932418    2.219212
     89          1           0        0.987225    1.186842    2.927030
     90          1           0        2.270441    2.381476    2.631349
     91          8           0        3.255510    2.898104    0.143341
     92          6           0        0.291022    3.007607    1.996422
     93          1           0        0.707533    3.864452    1.460093
     94          1           0       -0.084053    3.351404    2.965743
     95          6           0       -0.885094    2.437720    1.211673
     96          8           0       -1.607959    1.557939    1.737913
     97          8           0       -1.056229    2.900011    0.030181
     98          7           0        1.615712    2.223000   -1.307226
     99          1           0        0.785750    1.641258   -1.307024
    100          6           0        1.312066    3.557587   -1.868391
    101          1           0        1.279352    4.278241   -1.047018
    102          6           0       -0.102471    3.546246   -2.450122
    103          6           0        2.337747    4.075994   -2.887660
    104          1           0        3.305329    4.131293   -2.377178
    105          1           0        2.043156    5.104897   -3.118699
    106          8           0       -0.794088    4.530694   -2.555554
    107          6           0        2.449131    3.273246   -4.200693
    108          1           0        2.562277    3.972453   -5.035700
    109          1           0        1.532233    2.706664   -4.398089
    110          6           0        3.645556    2.328220   -4.284668
    111          1           0        4.567249    2.885866   -4.063220
    112          1           0        3.719579    1.936878   -5.305765
    113          7           0        3.522844    1.187672   -3.371371
    114          1           0        2.864284    1.281090   -2.585421
    115          7           0        5.252892    0.045574   -4.409154
    116          1           0        5.764572   -0.808008   -4.572464
    117          1           0        5.622414    0.890758   -4.814667
    118          7           0        4.004376   -1.005252   -2.770282
    119          1           0        4.693254   -1.741071   -2.713153
    120          1           0        3.255298   -1.019861   -2.062875
    121          6           0        4.259516    0.087031   -3.494670
    122          8           0       -0.466802    2.310010   -2.864164
    123          1           0       -1.449803    2.216484   -2.831863
 ---------------------------------------------------------------------

 SCF Done:  E(RB3LYP) =  -2974.35962162     A.U. after    1 cycles

 Alpha  occ. eigenvalues --  -19.26624 -19.22869 -19.22527 -19.22513 -19.21624
 Alpha  occ. eigenvalues --  -19.21018 -19.20536 -19.18453 -19.17878 -19.17401
 Alpha  occ. eigenvalues --  -19.17351 -14.54629 -14.50040 -14.48581 -14.47849
 Alpha  occ. eigenvalues --  -14.45686 -14.45239 -14.44818 -14.44134 -14.42764
 Alpha  occ. eigenvalues --  -14.41378 -10.45452 -10.39976 -10.38968 -10.38905
 Alpha  occ. eigenvalues --  -10.37522 -10.37400 -10.35356 -10.35336 -10.35298
 Alpha  occ. eigenvalues --  -10.34338 -10.33965 -10.32926 -10.31953 -10.31479
 Alpha  occ. eigenvalues --  -10.31025 -10.30973 -10.30793 -10.28923 -10.28816
 Alpha  occ. eigenvalues --  -10.28528 -10.27888 -10.27831 -10.27825 -10.27574
 Alpha  occ. eigenvalues --  -10.27504 -10.26901 -10.26774 -10.26596 -10.26469
 Alpha  occ. eigenvalues --  -10.26321 -10.26116 -10.26084 -10.26022 -10.25955
 Alpha  occ. eigenvalues --  -10.25841 -10.25658 -10.25625 -10.25621 -10.25597
 Alpha  occ. eigenvalues --  -10.24749 -10.22381  -1.17772  -1.14878  -1.14509
 Alpha  occ. eigenvalues --   -1.13997  -1.12640  -1.12485  -1.11574  -1.10069
 Alpha  occ. eigenvalues --   -1.09841  -1.09184  -1.09058  -1.08855  -1.03417
 Alpha  occ. eigenvalues --   -1.02597  -1.02128  -1.01955  -1.01689  -1.01541
 Alpha  occ. eigenvalues --   -1.00810  -0.99609  -0.98030  -0.93271  -0.92393
 Alpha  occ. eigenvalues --   -0.90717  -0.89883  -0.88594  -0.87740  -0.86259
 Alpha  occ. eigenvalues --   -0.85214  -0.84491  -0.83716  -0.82304  -0.81840
 Alpha  occ. eigenvalues --   -0.81685  -0.81126  -0.79580  -0.79193  -0.77945
 Alpha  occ. eigenvalues --   -0.77097  -0.76095  -0.75425  -0.74241  -0.73608
 Alpha  occ. eigenvalues --   -0.73072  -0.72481  -0.71264  -0.71101  -0.70563
 Alpha  occ. eigenvalues --   -0.69931  -0.68726  -0.68538  -0.68445  -0.68096
 Alpha  occ. eigenvalues --   -0.67805  -0.66939  -0.66733  -0.66204  -0.65668
 Alpha  occ. eigenvalues --   -0.65363  -0.65126  -0.65031  -0.64854  -0.64153
 Alpha  occ. eigenvalues --   -0.63229  -0.62623  -0.62260  -0.61940  -0.61462
 Alpha  occ. eigenvalues --   -0.60597  -0.59934  -0.59571  -0.59178  -0.58948
 Alpha  occ. eigenvalues --   -0.58226  -0.57920  -0.57289  -0.56800  -0.56750
 Alpha  occ. eigenvalues --   -0.56055  -0.55999  -0.55784  -0.55478  -0.55077
 Alpha  occ. eigenvalues --   -0.54539  -0.54221  -0.54104  -0.53760  -0.53447
 Alpha  occ. eigenvalues --   -0.53177  -0.53133  -0.52816  -0.52690  -0.52367
 Alpha  occ. eigenvalues --   -0.52354  -0.52230  -0.51858  -0.51720  -0.51266
 Alpha  occ. eigenvalues --   -0.50872  -0.50485  -0.50134  -0.50094  -0.49948
 Alpha  occ. eigenvalues --   -0.49549  -0.49423  -0.49271  -0.49106  -0.48937
 Alpha  occ. eigenvalues --   -0.48745  -0.48310  -0.48283  -0.47849  -0.47795
 Alpha  occ. eigenvalues --   -0.47476  -0.47371  -0.47143  -0.47049  -0.46681
 Alpha  occ. eigenvalues --   -0.46555  -0.46506  -0.46280  -0.46003  -0.45739
 Alpha  occ. eigenvalues --   -0.45559  -0.45471  -0.45314  -0.44472  -0.44094
 Alpha  occ. eigenvalues --   -0.43733  -0.43595  -0.43522  -0.43397  -0.43184
 Alpha  occ. eigenvalues --   -0.42405  -0.42362  -0.42241  -0.42085  -0.41824
 Alpha  occ. eigenvalues --   -0.41793  -0.41679  -0.41453  -0.41359  -0.41309
 Alpha  occ. eigenvalues --   -0.40913  -0.40624  -0.40541  -0.40489  -0.39578
 Alpha  occ. eigenvalues --   -0.38039  -0.37917  -0.37312  -0.37228  -0.36605
 Alpha  occ. eigenvalues --   -0.36305  -0.35026  -0.34638  -0.34568  -0.34230
 Alpha  occ. eigenvalues --   -0.33667  -0.33179  -0.32964  -0.32542  -0.32438
 Alpha  occ. eigenvalues --   -0.32264  -0.31959  -0.31811  -0.31768  -0.31247
 Alpha  occ. eigenvalues --   -0.30137  -0.29558
 Alpha virt. eigenvalues --   -0.09900  -0.09383  -0.08929  -0.08743  -0.08089
 Alpha virt. eigenvalues --   -0.07985  -0.07552  -0.07300  -0.06791  -0.06315
 Alpha virt. eigenvalues --   -0.05751  -0.04974  -0.04752  -0.03682  -0.03175

 Mulliken charges:
               1
     1  N   -0.763045
     2  H    0.425709
     3  H    0.401010
     4  H    0.397037
     5  C   -0.133784
     6  H    0.239783
     7  C    0.650262
     8  C   -0.416944
     9  H    0.193027
    10  H    0.240368
    11  O   -0.561339
    12  C    0.139185
    13  C   -0.236866
    14  H    0.134640
    15  C   -0.192556
    16  H    0.189440
    17  C   -0.123503
    18  H    0.148596
    19  C   -0.133894
    20  H    0.156806
    21  C   -0.124688
    22  H    0.151666
    23  N   -0.626974
    24  H    0.416334
    25  C   -0.042278
    26  H    0.200979
    27  C    0.625132
    28  C   -0.498869
    29  H    0.170345
    30  H    0.162851
    31  H    0.186198
    32  O   -0.528512
    33  N   -0.608720
    34  H    0.343418
    35  C   -0.049839
    36  H    0.196711
    37  C    0.582919
    38  C   -0.429817
    39  H    0.172039
    40  H    0.156187
    41  H    0.161569
    42  O   -0.500897
    43  N   -0.635949
    44  H    0.399925
    45  C   -0.068585
    46  H    0.219363
    47  C    0.639924
    48  C   -0.396772
    49  H    0.144487
    50  H    0.173550
    51  O   -0.524880
    52  C    0.174135
    53  C   -0.185897
    54  H    0.134515
    55  C   -0.201984
    56  H    0.125101
    57  C   -0.144042
    58  H    0.128231
    59  C   -0.195883
    60  H    0.146453
    61  O   -0.756135
    62  H    0.470265
    63  C    0.335529
    64  N   -0.618873
    65  H    0.344517
    66  C   -0.041920
    67  H    0.187164
    68  C    0.609602
    69  C   -0.289015
    70  H    0.162835
    71  H    0.147903
    72  O   -0.593387
    73  C   -0.093010
    74  H    0.115562
    75  C   -0.451466
    76  H    0.159854
    77  H    0.157101
    78  H    0.156852
    79  C   -0.463894
    80  H    0.170249
    81  H    0.132308
    82  H    0.149760
    83  N   -0.566474
    84  H    0.381119
    85  C   -0.077737
    86  H    0.186530
    87  C    0.609464
    88  C   -0.331380
    89  H    0.192844
    90  H    0.179492
    91  O   -0.483778
    92  C   -0.355992
    93  H    0.160323
    94  H    0.196965
    95  C    0.619661
    96  O   -0.590088
    97  O   -0.639995
    98  N   -0.672499
    99  H    0.382658
   100  C   -0.021241
   101  H    0.202161
   102  C    0.605398
   103  C   -0.298785
   104  H    0.182095
   105  H    0.179631
   106  O   -0.470177
   107  C   -0.312804
   108  H    0.173521
   109  H    0.182514
   110  C   -0.159824
   111  H    0.173668
   112  H    0.174018
   113  N   -0.622805
   114  H    0.415366
   115  N   -0.767361
   116  H    0.372567
   117  H    0.381869
   118  N   -0.817711
   119  H    0.362758
   120  H    0.446302
   121  C    0.810105
   122  O   -0.611581
   123  H    0.436021
 Sum of Mulliken charges =   1.00000

 Dipole moment (field-independent basis, Debye):
    X=              2.4356    Y=              5.8554    Z=            -13.0176  Tot=             14.4802
 Quadrupole moment (field-independent basis, Debye-Ang):
   XX=           -213.7029   YY=           -277.0594   ZZ=           -324.4969
   XY=            -72.4947   XZ=            -51.8329   YZ=            -16.0566

 Normal termination of Gaussian 16 at Thu Aug  4 01:14:21 2022.
