 Gaussian 16, Revision C.01,
 Gaussian 16:  ES64L-G16RevC.01  3-Jul-2019

 ----------------------------------------------------------------------
 # B3LYP/6-31G* empiricaldispersion=gd3bj guess=read geom=check nosymm
 integral(ultrafinegrid)
 ----------------------------------------------------------------------

 ------------------------------------------------------
 Candidate Structure: Conf:961 Charge calc in gas phase
 ------------------------------------------------------
 Structure from the checkpoint file:  "conf-961.chk"
 Charge =  1 Multiplicity = 1

                          Input orientation:
 ---------------------------------------------------------------------
 Center     Atomic      Atomic             Coordinates (Angstroms)
 Number     Number       Type             X           Y           Z
 ---------------------------------------------------------------------
      1          7           0       -6.104210    0.770863   11.045887
      2          1           0       -6.892726    0.167778   11.293243
      3          1           0       -5.958314    1.454520   11.805060
      4          1           0       -5.259308    0.160735   10.868577
      5          6           0       -6.288569    1.464074    9.719353
      6          1           0       -7.354777    1.484721    9.487976
      7          6           0       -5.481372    0.579678    8.741174
      8          6           0       -5.714987    2.898419    9.795006
      9          1           0       -5.965328    3.396356    8.853014
     10          1           0       -4.621827    2.835543    9.842732
     11          8           0       -4.678114   -0.229021    9.231588
     12          6           0       -6.259011    3.650318   10.986401
     13          6           0       -7.556670    4.179023   10.968742
     14          1           0       -8.152035    4.119653   10.060524
     15          6           0       -5.498548    3.749328   12.161716
     16          1           0       -4.472531    3.384976   12.173218
     17          6           0       -8.080550    4.799102   12.101184
     18          1           0       -9.081727    5.217801   12.071780
     19          6           0       -6.027409    4.366371   13.299677
     20          1           0       -5.423718    4.449613   14.198028
     21          6           0       -7.319115    4.889085   13.270082
     22          1           0       -7.729723    5.374857   14.149526
     23          7           0       -5.687832    0.803650    7.453722
     24          1           0       -6.321440    1.528864    7.101177
     25          6           0       -4.933670    0.188060    6.365242
     26          1           0       -3.863673    0.269273    6.587675
     27          6           0       -5.279588    1.062044    5.137732
     28          6           0       -5.309045   -1.285019    6.161266
     29          1           0       -4.727596   -1.719421    5.343079
     30          1           0       -6.371545   -1.378321    5.916627
     31          1           0       -5.096917   -1.852393    7.070793
     32          8           0       -6.144395    1.942323    5.234849
     33          7           0       -4.602007    0.777888    4.025314
     34          1           0       -3.917622    0.024116    3.971501
     35          6           0       -4.807976    1.441798    2.747161
     36          1           0       -5.883750    1.496240    2.544202
     37          6           0       -4.104173    0.543545    1.719191
     38          6           0       -4.198586    2.853447    2.727288
     39          1           0       -4.413149    3.354872    1.779218
     40          1           0       -3.112050    2.797300    2.832880
     41          1           0       -4.626094    3.445908    3.539822
     42          8           0       -3.362022   -0.367907    2.090750
     43          7           0       -4.312140    0.846512    0.423338
     44          1           0       -4.884552    1.647411    0.192533
     45          6           0       -3.383712    0.376305   -0.592992
     46          1           0       -3.465178   -0.713015   -0.665371
     47          6           0       -1.952877    0.780363   -0.178125
     48          6           0       -3.717916    1.029418   -1.950083
     49          1           0       -3.452876    2.091247   -1.885156
     50          1           0       -3.056570    0.583290   -2.701516
     51          8           0       -1.748550    1.855355    0.383525
     52          6           0       -5.167962    0.878848   -2.341368
     53          6           0       -5.698409   -0.372960   -2.687658
     54          1           0       -5.046465   -1.242858   -2.712566
     55          6           0       -6.031718    1.977203   -2.327672
     56          1           0       -5.642066    2.963335   -2.083420
     57          6           0       -7.040770   -0.526082   -3.007237
     58          1           0       -7.449224   -1.492689   -3.282726
     59          6           0       -7.384336    1.841308   -2.645669
     60          1           0       -8.037741    2.711340   -2.637783
     61          8           0       -9.201818    0.376511   -3.308484
     62          1           0       -9.672427    1.224398   -3.297634
     63          6           0       -7.892373    0.586033   -2.986128
     64          7           0       -1.000300   -0.106909   -0.515480
     65          1           0       -1.213268   -0.919401   -1.086892
     66          6           0        0.422184    0.123091   -0.345161
     67          1           0        0.591517    1.202992   -0.313503
     68          6           0        1.101764   -0.499585   -1.575842
     69          6           0        0.966414   -0.545874    0.936197
     70          1           0        0.806811   -1.627150    0.831387
     71          1           0        2.053856   -0.391737    0.971042
     72          8           0        0.524352   -1.365697   -2.237798
     73          6           0        0.338870   -0.060550    2.253388
     74          1           0       -0.750249   -0.159330    2.167855
     75          6           0        0.806372   -0.961803    3.403830
     76          1           0        1.895723   -0.909268    3.528926
     77          1           0        0.350037   -0.654267    4.352517
     78          1           0        0.540237   -2.010341    3.225545
     79          6           0        0.667902    1.409024    2.542517
     80          1           0        1.753918    1.568043    2.581862
     81          1           0        0.237518    2.068416    1.784970
     82          1           0        0.255970    1.710453    3.513697
     83          7           0        2.349243   -0.066310   -1.825756
     84          1           0        2.793366    0.649722   -1.259257
     85          6           0        3.191373   -0.604006   -2.883797
     86          1           0        3.058941   -1.686351   -2.932632
     87          6           0        4.630851   -0.269052   -2.473382
     88          6           0        2.785094    0.010426   -4.247269
     89          1           0        1.756142   -0.317081   -4.428859
     90          1           0        2.761609    1.099240   -4.119199
     91          8           0        4.887170    0.675875   -1.721908
     92          6           0        3.659572   -0.303955   -5.473899
     93          1           0        4.656517    0.132005   -5.321589
     94          1           0        3.220330    0.192026   -6.344043
     95          6           0        3.864104   -1.783511   -5.816324
     96          8           0        4.321238   -2.555836   -4.922960
     97          8           0        3.646792   -2.155466   -7.014195
     98          7           0        5.566927   -1.086978   -2.995814
     99          1           0        5.228773   -1.767262   -3.699186
    100          6           0        6.971269   -0.804263   -2.815551
    101          1           0        7.218866   -0.815275   -1.749483
    102          6           0        7.319121    0.588581   -3.345444
    103          6           0        7.827402   -1.865373   -3.544284
    104          1           0        7.526269   -2.845961   -3.154981
    105          1           0        8.877832   -1.716691   -3.271017
    106          8           0        6.806203    1.129877   -4.300094
    107          6           0        7.645769   -1.827348   -5.066623
    108          1           0        8.086530   -0.910645   -5.475660
    109          1           0        6.575996   -1.786716   -5.286162
    110          6           0        8.218184   -3.035767   -5.813961
    111          1           0        7.847197   -3.973813   -5.389715
    112          1           0        9.309413   -3.084351   -5.764545
    113          7           0        7.854366   -2.981908   -7.250246
    114          1           0        8.400477   -2.304792   -7.771020
    115          7           0        5.682825   -3.849822   -7.072462
    116          1           0        4.687834   -3.508706   -7.001703
    117          1           0        6.006486   -4.489564   -6.362147
    118          7           0        6.046993   -2.053729   -8.444802
    119          1           0        5.028579   -1.925832   -8.380749
    120          1           0        6.573476   -1.197403   -8.553826
    121          6           0        6.525865   -2.962573   -7.571304
    122          8           0        8.354024    1.122893   -2.662754
    123          1           0        8.534961    1.991279   -3.069772
 ---------------------------------------------------------------------

 SCF Done:  E(RB3LYP) =  -2974.30807478     A.U. after    1 cycles

 Alpha  occ. eigenvalues --  -19.25842 -19.24085 -19.22628 -19.21024 -19.18804
 Alpha  occ. eigenvalues --  -19.18322 -19.15558 -19.15003 -19.14959 -19.12963
 Alpha  occ. eigenvalues --  -19.12670 -14.58959 -14.48381 -14.44440 -14.44162
 Alpha  occ. eigenvalues --  -14.43309 -14.42377 -14.41991 -14.39867 -14.39055
 Alpha  occ. eigenvalues --  -14.37970 -10.42638 -10.40097 -10.39685 -10.37942
 Alpha  occ. eigenvalues --  -10.36231 -10.35500 -10.33824 -10.33704 -10.32839
 Alpha  occ. eigenvalues --  -10.32068 -10.32059 -10.31503 -10.30847 -10.30796
 Alpha  occ. eigenvalues --  -10.30628 -10.30485 -10.30237 -10.30179 -10.30110
 Alpha  occ. eigenvalues --  -10.29882 -10.29835 -10.28878 -10.28200 -10.27479
 Alpha  occ. eigenvalues --  -10.26857 -10.25720 -10.25322 -10.25008 -10.24704
 Alpha  occ. eigenvalues --  -10.24474 -10.24398 -10.24270 -10.24053 -10.24006
 Alpha  occ. eigenvalues --  -10.23447 -10.22158 -10.21788 -10.21552 -10.20788
 Alpha  occ. eigenvalues --  -10.20546 -10.19890  -1.18325  -1.14965  -1.13327
 Alpha  occ. eigenvalues --   -1.12771  -1.10817  -1.10733  -1.08836  -1.07734
 Alpha  occ. eigenvalues --   -1.07097  -1.06457  -1.05928  -1.05737  -1.05201
 Alpha  occ. eigenvalues --   -1.01038  -0.99169  -0.98655  -0.97619  -0.96866
 Alpha  occ. eigenvalues --   -0.96643  -0.96078  -0.95874  -0.95509  -0.92985
 Alpha  occ. eigenvalues --   -0.90520  -0.88542  -0.86169  -0.85968  -0.85800
 Alpha  occ. eigenvalues --   -0.85117  -0.84184  -0.82707  -0.82081  -0.80111
 Alpha  occ. eigenvalues --   -0.79868  -0.79363  -0.79233  -0.77266  -0.76308
 Alpha  occ. eigenvalues --   -0.74625  -0.73538  -0.73504  -0.73384  -0.72840
 Alpha  occ. eigenvalues --   -0.71515  -0.71274  -0.71160  -0.70063  -0.69940
 Alpha  occ. eigenvalues --   -0.69784  -0.68699  -0.67680  -0.67494  -0.66698
 Alpha  occ. eigenvalues --   -0.66277  -0.65815  -0.65737  -0.64919  -0.64189
 Alpha  occ. eigenvalues --   -0.64020  -0.62586  -0.62521  -0.62406  -0.61536
 Alpha  occ. eigenvalues --   -0.61280  -0.60479  -0.60178  -0.59581  -0.59357
 Alpha  occ. eigenvalues --   -0.58865  -0.57918  -0.57249  -0.57124  -0.56992
 Alpha  occ. eigenvalues --   -0.56321  -0.56090  -0.55867  -0.55769  -0.55180
 Alpha  occ. eigenvalues --   -0.54650  -0.54393  -0.53812  -0.53597  -0.53531
 Alpha  occ. eigenvalues --   -0.53302  -0.53219  -0.52461  -0.52259  -0.52094
 Alpha  occ. eigenvalues --   -0.51895  -0.51563  -0.51433  -0.51191  -0.51107
 Alpha  occ. eigenvalues --   -0.50847  -0.50609  -0.50551  -0.50003  -0.49528
 Alpha  occ. eigenvalues --   -0.49336  -0.48787  -0.48600  -0.48137  -0.48008
 Alpha  occ. eigenvalues --   -0.47768  -0.47420  -0.47320  -0.47209  -0.47152
 Alpha  occ. eigenvalues --   -0.46786  -0.46600  -0.46452  -0.46338  -0.46026
 Alpha  occ. eigenvalues --   -0.45858  -0.45603  -0.45511  -0.45371  -0.45335
 Alpha  occ. eigenvalues --   -0.44739  -0.44602  -0.44531  -0.44480  -0.44147
 Alpha  occ. eigenvalues --   -0.43885  -0.43680  -0.42878  -0.42771  -0.42444
 Alpha  occ. eigenvalues --   -0.42194  -0.42018  -0.41425  -0.41372  -0.41351
 Alpha  occ. eigenvalues --   -0.41001  -0.40612  -0.40488  -0.40448  -0.40023
 Alpha  occ. eigenvalues --   -0.39766  -0.39017  -0.38662  -0.38611  -0.38399
 Alpha  occ. eigenvalues --   -0.37644  -0.37493  -0.36644  -0.36640  -0.36113
 Alpha  occ. eigenvalues --   -0.35948  -0.35873  -0.35554  -0.35436  -0.35302
 Alpha  occ. eigenvalues --   -0.34875  -0.34181  -0.33743  -0.32751  -0.32405
 Alpha  occ. eigenvalues --   -0.32103  -0.30323  -0.30059  -0.29799  -0.29495
 Alpha  occ. eigenvalues --   -0.28805  -0.28593  -0.28291  -0.28103  -0.27283
 Alpha  occ. eigenvalues --   -0.26687  -0.26523
 Alpha virt. eigenvalues --   -0.12766  -0.12290  -0.10446  -0.09408  -0.06516
 Alpha virt. eigenvalues --   -0.06513  -0.05661  -0.04664  -0.04175  -0.04080
 Alpha virt. eigenvalues --   -0.03481  -0.02141  -0.01475  -0.01450  -0.01252

 Mulliken charges:
               1
     1  N   -0.751807
     2  H    0.414323
     3  H    0.403908
     4  H    0.426533
     5  C   -0.111807
     6  H    0.213105
     7  C    0.657469
     8  C   -0.385685
     9  H    0.211391
    10  H    0.194924
    11  O   -0.544818
    12  C    0.138696
    13  C   -0.181026
    14  H    0.148636
    15  C   -0.234127
    16  H    0.153560
    17  C   -0.122341
    18  H    0.168271
    19  C   -0.119349
    20  H    0.168035
    21  C   -0.124234
    22  H    0.169516
    23  N   -0.612270
    24  H    0.373484
    25  C   -0.053522
    26  H    0.196641
    27  C    0.633939
    28  C   -0.457508
    29  H    0.183380
    30  H    0.169163
    31  H    0.187021
    32  O   -0.556259
    33  N   -0.621692
    34  H    0.368587
    35  C   -0.054673
    36  H    0.180743
    37  C    0.645619
    38  C   -0.446145
    39  H    0.157014
    40  H    0.190409
    41  H    0.173321
    42  O   -0.540368
    43  N   -0.599409
    44  H    0.339708
    45  C   -0.026978
    46  H    0.169450
    47  C    0.647782
    48  C   -0.412659
    49  H    0.171060
    50  H    0.180064
    51  O   -0.555518
    52  C    0.178278
    53  C   -0.182634
    54  H    0.136948
    55  C   -0.216302
    56  H    0.130923
    57  C   -0.155645
    58  H    0.151340
    59  C   -0.191855
    60  H    0.125891
    61  O   -0.636161
    62  H    0.410806
    63  C    0.351730
    64  N   -0.599594
    65  H    0.350453
    66  C   -0.075529
    67  H    0.175691
    68  C    0.627392
    69  C   -0.249781
    70  H    0.141943
    71  H    0.139204
    72  O   -0.551400
    73  C   -0.083270
    74  H    0.161201
    75  C   -0.440587
    76  H    0.140152
    77  H    0.124855
    78  H    0.140281
    79  C   -0.461850
    80  H    0.130647
    81  H    0.181836
    82  H    0.122007
    83  N   -0.620747
    84  H    0.351823
    85  C   -0.048973
    86  H    0.198178
    87  C    0.606547
    88  C   -0.262369
    89  H    0.174757
    90  H    0.143592
    91  O   -0.561749
    92  C   -0.383756
    93  H    0.179362
    94  H    0.148686
    95  C    0.613944
    96  O   -0.601762
    97  O   -0.621137
    98  N   -0.650036
    99  H    0.409794
   100  C   -0.008980
   101  H    0.183628
   102  C    0.610680
   103  C   -0.307878
   104  H    0.164149
   105  H    0.164279
   106  O   -0.473622
   107  C   -0.301743
   108  H    0.148970
   109  H    0.189872
   110  C   -0.179224
   111  H    0.168903
   112  H    0.176434
   113  N   -0.571945
   114  H    0.336845
   115  N   -0.696528
   116  H    0.408749
   117  H    0.355522
   118  N   -0.734609
   119  H    0.400927
   120  H    0.345882
   121  C    0.697606
   122  O   -0.567891
   123  H    0.413295
 Sum of Mulliken charges =   1.00000

 Dipole moment (field-independent basis, Debye):
    X=            -16.9133    Y=              5.9675    Z=             33.0309  Tot=             37.5861
 Quadrupole moment (field-independent basis, Debye-Ang):
   XX=            -37.5853   YY=           -330.6092   ZZ=            163.5953
   XY=            -88.3096   XZ=           -353.7938   YZ=             81.6949

 Normal termination of Gaussian 16 at Thu Aug  4 01:13:46 2022.
