 Gaussian 16, Revision C.01,
 Gaussian 16:  ES64L-G16RevC.01  3-Jul-2019

 -------------------------------------------------------------------
 # B3LYP/6-31G* guess=read geom=check nosymm integral(ultrafinegrid)
 -------------------------------------------------------------------

 ------------------------------------------------------
 Candidate Structure: Conf:472 Charge calc in gas phase
 ------------------------------------------------------
 Structure from the checkpoint file:  "conf-472.chk"
 Charge =  1 Multiplicity = 1

                          Input orientation:
 ---------------------------------------------------------------------
 Center     Atomic      Atomic             Coordinates (Angstroms)
 Number     Number       Type             X           Y           Z
 ---------------------------------------------------------------------
      1          7           0       -8.432103    0.115859    5.294733
      2          1           0       -8.914199    0.769703    5.917507
      3          1           0       -8.721947   -0.837865    5.527574
      4          1           0       -8.675235    0.353032    4.285669
      5          6           0       -6.922088    0.289901    5.295830
      6          1           0       -6.653788    0.879823    6.176009
      7          6           0       -6.692499    1.093658    3.987610
      8          6           0       -6.228532   -1.097936    5.353928
      9          1           0       -6.620745   -1.571295    6.267942
     10          8           0       -7.617808    1.113506    3.162352
     11          6           0       -6.560486   -1.985447    4.142481
     12          1           0       -6.141153   -1.564067    3.224229
     13          1           0       -6.122257   -2.976814    4.291108
     14          1           0       -7.637978   -2.136914    3.992853
     15          6           0       -4.708142   -0.951490    5.529995
     16          1           0       -4.235933   -0.602370    4.607169
     17          1           0       -4.450963   -0.275464    6.354805
     18          1           0       -4.279067   -1.929625    5.766847
     19          7           0       -5.536258    1.742168    3.860874
     20          1           0       -4.776343    1.572249    4.515407
     21          6           0       -5.075618    2.299233    2.596794
     22          1           0       -5.908875    2.807887    2.101870
     23          6           0       -4.536515    1.144668    1.714901
     24          6           0       -3.936923    3.289377    2.946628
     25          1           0       -4.347891    4.093762    3.565619
     26          1           0       -3.531476    3.742178    2.033530
     27          8           0       -4.470072   -0.006896    2.130686
     28          8           0       -2.944144    2.630016    3.698261
     29          1           0       -2.352009    2.178382    3.057300
     30          7           0       -4.107283    1.512632    0.476847
     31          1           0       -4.052444    2.505373    0.283943
     32          6           0       -3.119053    0.693779   -0.212859
     33          1           0       -3.488186   -0.335588   -0.210755
     34          6           0       -1.780031    0.728934    0.577374
     35          6           0       -2.940527    1.187961   -1.654628
     36          1           0       -2.214879    0.573920   -2.194926
     37          1           0       -2.574704    2.221832   -1.672378
     38          1           0       -3.893721    1.145389   -2.189619
     39          8           0       -1.583931    1.542407    1.489758
     40          7           0       -0.874251   -0.175332    0.173022
     41          1           0       -1.029142   -0.706860   -0.682381
     42          6           0        0.526962   -0.202729    0.581342
     43          1           0        0.791628    0.786899    0.964482
     44          6           0        1.318472   -0.502757   -0.711653
     45          6           0        0.812511   -1.288766    1.644791
     46          1           0        0.503343   -2.253355    1.220245
     47          1           0        1.899846   -1.349214    1.791643
     48          8           0        0.743882   -0.987538   -1.693387
     49          6           0        0.133521   -1.084890    3.013619
     50          1           0       -0.942708   -0.941667    2.841544
     51          6           0        0.311947   -2.350213    3.867487
     52          1           0        1.374197   -2.552717    4.054760
     53          1           0       -0.177746   -2.239330    4.842075
     54          1           0       -0.113570   -3.232513    3.374702
     55          6           0        0.669812    0.150920    3.751663
     56          1           0        1.753200    0.074268    3.911919
     57          1           0        0.198737    0.247682    4.736909
     58          1           0        0.466589    1.074767    3.201412
     59          7           0        2.631641   -0.223443   -0.673101
     60          1           0        3.099200    0.088062    0.176038
     61          6           0        3.547868   -0.569492   -1.749493
     62          1           0        3.312801   -1.582273   -2.096580
     63          6           0        4.950755   -0.555370   -1.107623
     64          6           0        3.415246    0.400727   -2.964865
     65          1           0        3.980050    1.318108   -2.763297
     66          1           0        2.358039    0.678098   -3.018988
     67          8           0        5.102375   -0.165331    0.053837
     68          6           0        3.833879   -0.215555   -4.282912
     69          6           0        4.998447    0.171816   -4.953099
     70          1           0        5.639553    0.938399   -4.525013
     71          6           0        3.032128   -1.208693   -4.874055
     72          1           0        2.115869   -1.515899   -4.374007
     73          6           0        5.360667   -0.407045   -6.170607
     74          1           0        6.276085   -0.092830   -6.667732
     75          6           0        3.379078   -1.793161   -6.086124
     76          1           0        2.756816   -2.555796   -6.543966
     77          8           0        4.845542   -2.001285   -7.929370
     78          6           0        4.551678   -1.392707   -6.740250
     79          7           0        5.966446   -0.977020   -1.886547
     80          1           0        5.811754   -1.252674   -2.851748
     81          6           0        7.352600   -0.955550   -1.438437
     82          1           0        7.494859   -0.098744   -0.776727
     83          6           0        8.262352   -0.818143   -2.648895
     84          6           0        7.721969   -2.263156   -0.663113
     85          1           0        7.257015   -2.172962    0.323822
     86          1           0        7.227860   -3.099879   -1.172440
     87          8           0        9.412534   -0.233865   -2.328166
     88          6           0        9.233121   -2.563266   -0.524896
     89          1           0        9.389141   -3.129012    0.401055
     90          1           0        9.778308   -1.622636   -0.400571
     91          6           0        9.826073   -3.382021   -1.708129
     92          1           0        9.838054   -4.440898   -1.423510
     93          1           0        9.163929   -3.324378   -2.580985
     94          6           0       11.248076   -2.998781   -2.163454
     95          1           0       11.769798   -3.892295   -2.534252
     96          1           0       11.830939   -2.618100   -1.317236
     97          7           0       11.233273   -1.938457   -3.206323
     98          1           0       12.183741   -1.631344   -3.408907
     99          1           0       10.860129   -2.321849   -4.075121
    100          1           0       10.170115   -0.699872   -2.844711
    101          8           0        7.990223   -1.299765   -3.737909
    102          1           0        5.669723   -1.625990   -8.274878
 ---------------------------------------------------------------------

 SCF Done:  E(RB3LYP) =  -2312.10795470     A.U. after    1 cycles

 Alpha  occ. eigenvalues --  -19.26393 -19.22825 -19.21907 -19.21892 -19.20696
 Alpha  occ. eigenvalues --  -19.20687 -19.18600 -19.17706 -19.17382 -14.59511
 Alpha  occ. eigenvalues --  -14.49013 -14.45558 -14.43807 -14.42086 -14.41251
 Alpha  occ. eigenvalues --  -14.40110 -10.43088 -10.40017 -10.38775 -10.37423
 Alpha  occ. eigenvalues --  -10.35538 -10.35487 -10.34481 -10.34077 -10.33696
 Alpha  occ. eigenvalues --  -10.33442 -10.32439 -10.30423 -10.29255 -10.29118
 Alpha  occ. eigenvalues --  -10.29010 -10.28807 -10.28003 -10.27251 -10.27186
 Alpha  occ. eigenvalues --  -10.25294 -10.25039 -10.24510 -10.23733 -10.23610
 Alpha  occ. eigenvalues --  -10.23511 -10.23504 -10.23244 -10.23176 -10.23121
 Alpha  occ. eigenvalues --  -10.23079 -10.22789 -10.22741  -1.18868  -1.14106
 Alpha  occ. eigenvalues --   -1.13252  -1.12881  -1.11973  -1.10672  -1.10360
 Alpha  occ. eigenvalues --   -1.09912  -1.09120  -1.05504  -1.04453  -1.02194
 Alpha  occ. eigenvalues --   -1.00479  -0.98786  -0.97746  -0.95528  -0.94295
 Alpha  occ. eigenvalues --   -0.89753  -0.88563  -0.87516  -0.85652  -0.85175
 Alpha  occ. eigenvalues --   -0.83899  -0.83528  -0.81155  -0.80165  -0.80105
 Alpha  occ. eigenvalues --   -0.78987  -0.77343  -0.75423  -0.74817  -0.74436
 Alpha  occ. eigenvalues --   -0.73919  -0.73810  -0.73385  -0.72639  -0.71682
 Alpha  occ. eigenvalues --   -0.70394  -0.68402  -0.68343  -0.67699  -0.66860
 Alpha  occ. eigenvalues --   -0.66462  -0.65545  -0.65315  -0.64296  -0.63728
 Alpha  occ. eigenvalues --   -0.63376  -0.62951  -0.62109  -0.62035  -0.61702
 Alpha  occ. eigenvalues --   -0.60726  -0.59970  -0.59276  -0.58474  -0.58146
 Alpha  occ. eigenvalues --   -0.57352  -0.56501  -0.56077  -0.55532  -0.55227
 Alpha  occ. eigenvalues --   -0.55046  -0.54398  -0.54162  -0.53535  -0.53422
 Alpha  occ. eigenvalues --   -0.52879  -0.52747  -0.52458  -0.52025  -0.51514
 Alpha  occ. eigenvalues --   -0.51046  -0.50932  -0.50743  -0.50660  -0.50274
 Alpha  occ. eigenvalues --   -0.49893  -0.49805  -0.49678  -0.49263  -0.49141
 Alpha  occ. eigenvalues --   -0.48787  -0.48457  -0.47910  -0.47772  -0.47553
 Alpha  occ. eigenvalues --   -0.47181  -0.46730  -0.46610  -0.46422  -0.46273
 Alpha  occ. eigenvalues --   -0.46190  -0.46031  -0.45926  -0.45578  -0.45281
 Alpha  occ. eigenvalues --   -0.45174  -0.44627  -0.44532  -0.44191  -0.43983
 Alpha  occ. eigenvalues --   -0.43540  -0.43405  -0.42135  -0.41885  -0.41738
 Alpha  occ. eigenvalues --   -0.41324  -0.40893  -0.40783  -0.40556  -0.39892
 Alpha  occ. eigenvalues --   -0.39401  -0.38982  -0.38566  -0.38499  -0.38394
 Alpha  occ. eigenvalues --   -0.38123  -0.37885  -0.37814  -0.36971  -0.36817
 Alpha  occ. eigenvalues --   -0.35995  -0.35199  -0.34268  -0.34136  -0.33978
 Alpha  occ. eigenvalues --   -0.32525  -0.32343  -0.32134  -0.31784  -0.31018
 Alpha  occ. eigenvalues --   -0.30044  -0.29259  -0.26008
 Alpha virt. eigenvalues --   -0.11997  -0.10742  -0.08178  -0.06391  -0.06241
 Alpha virt. eigenvalues --   -0.04973  -0.04307  -0.04269  -0.03850  -0.03105
 Alpha virt. eigenvalues --   -0.02357  -0.01972  -0.00679  -0.00055   0.00943

 Mulliken charges:
               1
     1  N   -0.760393
     2  H    0.415084
     3  H    0.411800
     4  H    0.435061
     5  C   -0.115585
     6  H    0.208153
     7  C    0.669621
     8  C   -0.102429
     9  H    0.153278
    10  O   -0.543795
    11  C   -0.486806
    12  H    0.223833
    13  H    0.187284
    14  H    0.128014
    15  C   -0.493481
    16  H    0.209560
    17  H    0.155873
    18  H    0.185505
    19  N   -0.580521
    20  H    0.373678
    21  C   -0.104927
    22  H    0.198548
    23  C    0.632714
    24  C   -0.062761
    25  H    0.171835
    26  H    0.153625
    27  O   -0.519515
    28  O   -0.652276
    29  H    0.459920
    30  N   -0.575859
    31  H    0.336038
    32  C   -0.071165
    33  H    0.198587
    34  C    0.645584
    35  C   -0.478632
    36  H    0.188891
    37  H    0.163537
    38  H    0.182551
    39  O   -0.575275
    40  N   -0.591607
    41  H    0.361567
    42  C   -0.080088
    43  H    0.184087
    44  C    0.626558
    45  C   -0.255722
    46  H    0.146165
    47  H    0.150392
    48  O   -0.554478
    49  C   -0.071058
    50  H    0.132684
    51  C   -0.444893
    52  H    0.150116
    53  H    0.138320
    54  H    0.142693
    55  C   -0.460579
    56  H    0.145192
    57  H    0.141688
    58  H    0.162454
    59  N   -0.622876
    60  H    0.362114
    61  C   -0.040593
    62  H    0.186831
    63  C    0.610190
    64  C   -0.352607
    65  H    0.155757
    66  H    0.178407
    67  O   -0.547299
    68  C    0.128635
    69  C   -0.197681
    70  H    0.136438
    71  C   -0.196027
    72  H    0.151563
    73  C   -0.177492
    74  H    0.131060
    75  C   -0.156284
    76  H    0.145460
    77  O   -0.638572
    78  C    0.349466
    79  N   -0.624942
    80  H    0.366859
    81  C   -0.008366
    82  H    0.189841
    83  C    0.569937
    84  C   -0.279881
    85  H    0.168109
    86  H    0.148623
    87  O   -0.601738
    88  C   -0.284815
    89  H    0.144462
    90  H    0.169099
    91  C   -0.288743
    92  H    0.149245
    93  H    0.162633
    94  C   -0.143526
    95  H    0.146355
    96  H    0.162690
    97  N   -0.773316
    98  H    0.331072
    99  H    0.337348
   100  H    0.454664
   101  O   -0.501605
   102  H    0.410859
 Sum of Mulliken charges =   1.00000

 Dipole moment (field-independent basis, Debye):
    X=            -17.6290    Y=             -0.8421    Z=             15.0180  Tot=             23.1739
 Quadrupole moment (field-independent basis, Debye-Ang):
   XX=             67.5939   YY=           -263.5629   ZZ=           -158.9541
   XY=            -44.2797   XZ=           -195.1544   YZ=             -2.1628

 Normal termination of Gaussian 16 at Sat Jul  2 15:29:59 2022.
