 Gaussian 16, Revision C.01,
 Gaussian 16:  ES64L-G16RevC.01  3-Jul-2019

 -------------------------------------------------------------------
 # B3LYP/6-31G* guess=read geom=check nosymm integral(ultrafinegrid)
 -------------------------------------------------------------------

 ------------------------------------------------------
 Candidate Structure: Conf:962 Charge calc in gas phase
 ------------------------------------------------------
 Structure from the checkpoint file:  "conf-962.chk"
 Charge =  1 Multiplicity = 1

                          Input orientation:
 ---------------------------------------------------------------------
 Center     Atomic      Atomic             Coordinates (Angstroms)
 Number     Number       Type             X           Y           Z
 ---------------------------------------------------------------------
      1          7           0       -5.806787    3.158170   -1.121884
      2          1           0       -6.560365    3.495692   -1.717393
      3          1           0       -5.105203    1.661610   -1.919373
      4          1           0       -5.027983    3.809113   -1.217630
      5          6           0       -6.242326    3.174217    0.285492
      6          1           0       -6.729556    4.133384    0.536259
      7          6           0       -4.967664    3.122423    1.147457
      8          6           0       -7.278356    2.055505    0.584536
      9          1           0       -7.627770    2.225502    1.615031
     10          8           0       -3.854363    3.318406    0.649377
     11          6           0       -8.513840    2.206281   -0.318507
     12          1           0       -8.275125    1.972773   -1.362415
     13          1           0       -9.300238    1.512101   -0.004937
     14          1           0       -8.929448    3.220600   -0.274993
     15          6           0       -6.700109    0.634715    0.499537
     16          1           0       -6.336970    0.406454   -0.506298
     17          1           0       -5.867188    0.492832    1.197488
     18          1           0       -7.473375   -0.098619    0.753395
     19          7           0       -5.125499    2.908395    2.476977
     20          1           0       -6.038769    2.657947    2.832665
     21          6           0       -4.006332    2.890598    3.421179
     22          1           0       -3.277967    3.633079    3.080805
     23          6           0       -3.312359    1.506499    3.450579
     24          6           0       -4.506707    3.272251    4.825969
     25          1           0       -5.330982    2.596926    5.111027
     26          1           0       -4.901620    4.292344    4.794799
     27          8           0       -3.309754    0.797865    4.460022
     28          8           0       -3.464810    3.250313    5.770318
     29          1           0       -3.220835    2.310427    5.853210
     30          7           0       -2.722764    1.146706    2.282464
     31          1           0       -2.718468    1.812877    1.511460
     32          6           0       -2.011431   -0.106240    2.125669
     33          1           0       -1.958086   -0.551805    3.123859
     34          6           0       -0.600886    0.171781    1.595020
     35          6           0       -2.743407   -1.068791    1.167171
     36          1           0       -2.206197   -2.019542    1.073416
     37          1           0       -2.837049   -0.626025    0.170627
     38          1           0       -3.744272   -1.276707    1.555673
     39          8           0       -0.337558    1.140671    0.884618
     40          7           0        0.341352   -0.766075    1.907928
     41          1           0        0.084453   -1.554426    2.487156
     42          6           0        1.731869   -0.634241    1.473254
     43          1           0        1.926345    0.440161    1.404862
     44          6           0        1.906947   -1.205413    0.045818
     45          6           0        2.692156   -1.272881    2.481011
     46          1           0        2.477557   -2.351446    2.537615
     47          1           0        3.709284   -1.171118    2.076624
     48          8           0        2.531927   -2.263978   -0.197883
     49          6           0        2.664706   -0.673485    3.903026
     50          1           0        1.642125   -0.769041    4.294270
     51          6           0        3.592947   -1.481964    4.822118
     52          1           0        4.637632   -1.410406    4.490511
     53          1           0        3.550896   -1.105478    5.849130
     54          1           0        3.315317   -2.543496    4.848206
     55          6           0        3.040187    0.815760    3.919051
     56          1           0        4.038984    0.976254    3.492590
     57          1           0        3.054959    1.194700    4.946206
     58          1           0        2.329799    1.431811    3.357757
     59          7           0        1.326080   -0.496976   -0.924331
     60          1           0        0.779697    0.322116   -0.653912
     61          6           0        1.424911   -0.857356   -2.335490
     62          1           0        0.919339   -1.819354   -2.489215
     63          6           0        2.911309   -0.979772   -2.721768
     64          6           0        0.756128    0.224236   -3.221681
     65          1           0        0.950654   -0.059053   -4.263627
     66          1           0        1.287719    1.167679   -3.051146
     67          8           0        3.754785   -0.192832   -2.311352
     68          6           0       -0.729563    0.396897   -2.992733
     69          6           0       -1.657630   -0.512482   -3.526938
     70          1           0       -1.306962   -1.349623   -4.128923
     71          6           0       -1.226367    1.470036   -2.244853
     72          1           0       -0.539430    2.200466   -1.823521
     73          6           0       -3.023854   -0.356387   -3.326468
     74          1           0       -3.738212   -1.051074   -3.757520
     75          6           0       -2.593687    1.639679   -2.026309
     76          1           0       -2.944543    2.469633   -1.421903
     77          8           0       -4.849295    0.840776   -2.428333
     78          6           0       -3.510011    0.729170   -2.575368
     79          7           0        3.195544   -2.007685   -3.570394
     80          1           0        2.443487   -2.579208   -3.929442
     81          6           0        4.528801   -2.220202   -4.111916
     82          1           0        5.043882   -1.252467   -4.068543
     83          6           0        4.503545   -2.634776   -5.583107
     84          6           0        5.338720   -3.250305   -3.291184
     85          1           0        4.723538   -4.156795   -3.194349
     86          1           0        6.225492   -3.530586   -3.869035
     87          8           0        5.485565   -2.985955   -6.192084
     88          6           0        5.759918   -2.721270   -1.910284
     89          1           0        4.935711   -2.172768   -1.444221
     90          1           0        6.560075   -1.984671   -2.044502
     91          6           0        6.265684   -3.831534   -0.972630
     92          1           0        6.916377   -4.522529   -1.523180
     93          1           0        6.895840   -3.407342   -0.177480
     94          6           0        5.170754   -4.679910   -0.325916
     95          1           0        5.592483   -5.554425    0.175995
     96          1           0        4.422470   -5.018354   -1.046338
     97          7           0        4.407677   -3.905264    0.734713
     98          1           0        3.848493   -4.540783    1.311812
     99          1           0        5.056672   -3.422580    1.364541
    100          1           0        3.718188   -3.176687    0.353049
    101          8           0        3.267988   -2.573188   -6.132044
    102          1           0        3.365738   -2.842195   -7.066228
 ---------------------------------------------------------------------

 SCF Done:  E(RB3LYP) =  -2312.12370724     A.U. after    1 cycles

 Alpha  occ. eigenvalues --  -19.29070 -19.24788 -19.22866 -19.22019 -19.20938
 Alpha  occ. eigenvalues --  -19.20560 -19.20450 -19.19614 -19.19436 -14.58122
 Alpha  occ. eigenvalues --  -14.47103 -14.46742 -14.45634 -14.45032 -14.43354
 Alpha  occ. eigenvalues --  -14.41154 -10.41304 -10.40668 -10.38877 -10.38319
 Alpha  occ. eigenvalues --  -10.37897 -10.37445 -10.36554 -10.34453 -10.33497
 Alpha  occ. eigenvalues --  -10.33083 -10.32116 -10.31994 -10.30905 -10.30706
 Alpha  occ. eigenvalues --  -10.30341 -10.30250 -10.29914 -10.29097 -10.29039
 Alpha  occ. eigenvalues --  -10.29038 -10.27751 -10.27495 -10.26886 -10.26514
 Alpha  occ. eigenvalues --  -10.26034 -10.25377 -10.25226 -10.24977 -10.24659
 Alpha  occ. eigenvalues --  -10.24109 -10.23918 -10.23833  -1.19780  -1.15769
 Alpha  occ. eigenvalues --   -1.13944  -1.12802  -1.12514  -1.12475  -1.11260
 Alpha  occ. eigenvalues --   -1.10736  -1.09330  -1.07216  -1.03783  -1.02775
 Alpha  occ. eigenvalues --   -1.02165  -1.01179  -1.00001  -0.97756  -0.92703
 Alpha  occ. eigenvalues --   -0.91631  -0.91281  -0.88639  -0.87354  -0.86940
 Alpha  occ. eigenvalues --   -0.86070  -0.84242  -0.82752  -0.82514  -0.80378
 Alpha  occ. eigenvalues --   -0.79909  -0.77436  -0.77145  -0.76453  -0.76135
 Alpha  occ. eigenvalues --   -0.75306  -0.74414  -0.73062  -0.72594  -0.71930
 Alpha  occ. eigenvalues --   -0.71196  -0.70233  -0.69261  -0.68979  -0.68766
 Alpha  occ. eigenvalues --   -0.67811  -0.67715  -0.67043  -0.66554  -0.66008
 Alpha  occ. eigenvalues --   -0.64960  -0.64358  -0.63142  -0.62729  -0.62269
 Alpha  occ. eigenvalues --   -0.61437  -0.60459  -0.59796  -0.59388  -0.59161
 Alpha  occ. eigenvalues --   -0.58683  -0.58217  -0.57733  -0.57414  -0.57124
 Alpha  occ. eigenvalues --   -0.56350  -0.56344  -0.55992  -0.55523  -0.55063
 Alpha  occ. eigenvalues --   -0.54746  -0.54414  -0.53750  -0.53024  -0.52899
 Alpha  occ. eigenvalues --   -0.52616  -0.52251  -0.52244  -0.52148  -0.51848
 Alpha  occ. eigenvalues --   -0.51467  -0.51132  -0.50926  -0.50061  -0.49990
 Alpha  occ. eigenvalues --   -0.49692  -0.49390  -0.49307  -0.49132  -0.48807
 Alpha  occ. eigenvalues --   -0.48797  -0.48435  -0.48230  -0.47930  -0.47617
 Alpha  occ. eigenvalues --   -0.47566  -0.47102  -0.46865  -0.46661  -0.46291
 Alpha  occ. eigenvalues --   -0.45961  -0.45780  -0.45688  -0.45494  -0.45289
 Alpha  occ. eigenvalues --   -0.44926  -0.44712  -0.44589  -0.44354  -0.43928
 Alpha  occ. eigenvalues --   -0.43825  -0.42966  -0.42699  -0.42369  -0.42259
 Alpha  occ. eigenvalues --   -0.41759  -0.41301  -0.40977  -0.40739  -0.40420
 Alpha  occ. eigenvalues --   -0.39727  -0.39487  -0.38900  -0.38230  -0.37416
 Alpha  occ. eigenvalues --   -0.37320  -0.36362  -0.35898  -0.35503  -0.34480
 Alpha  occ. eigenvalues --   -0.34453  -0.34001  -0.33472  -0.33166  -0.32858
 Alpha  occ. eigenvalues --   -0.31527  -0.30860  -0.27059
 Alpha virt. eigenvalues --   -0.10634  -0.10340  -0.08226  -0.07855  -0.07218
 Alpha virt. eigenvalues --   -0.07049  -0.05936  -0.05528  -0.05133  -0.04492
 Alpha virt. eigenvalues --   -0.03428  -0.02664  -0.02088  -0.01236  -0.01145

 Mulliken charges:
               1
     1  N   -0.772269
     2  H    0.332106
     3  H    0.472663
     4  H    0.345501
     5  C   -0.063665
     6  H    0.160766
     7  C    0.634313
     8  C   -0.086141
     9  H    0.121998
    10  O   -0.543406
    11  C   -0.466333
    12  H    0.162916
    13  H    0.166430
    14  H    0.149064
    15  C   -0.476368
    16  H    0.188095
    17  H    0.139741
    18  H    0.154885
    19  N   -0.610894
    20  H    0.346145
    21  C   -0.084306
    22  H    0.203146
    23  C    0.622883
    24  C   -0.038238
    25  H    0.129130
    26  H    0.161188
    27  O   -0.543950
    28  O   -0.621602
    29  H    0.417417
    30  N   -0.607404
    31  H    0.387146
    32  C   -0.070158
    33  H    0.183884
    34  C    0.638680
    35  C   -0.455853
    36  H    0.139653
    37  H    0.193184
    38  H    0.182831
    39  O   -0.528337
    40  N   -0.606513
    41  H    0.339438
    42  C   -0.068286
    43  H    0.211957
    44  C    0.673048
    45  C   -0.293757
    46  H    0.110077
    47  H    0.133390
    48  O   -0.618884
    49  C   -0.071833
    50  H    0.138507
    51  C   -0.448681
    52  H    0.136719
    53  H    0.174479
    54  H    0.131646
    55  C   -0.458912
    56  H    0.147805
    57  H    0.169116
    58  H    0.165273
    59  N   -0.604943
    60  H    0.400522
    61  C   -0.026471
    62  H    0.156825
    63  C    0.650028
    64  C   -0.406361
    65  H    0.170258
    66  H    0.182783
    67  O   -0.535311
    68  C    0.164447
    69  C   -0.190820
    70  H    0.113827
    71  C   -0.198840
    72  H    0.138633
    73  C   -0.163785
    74  H    0.141671
    75  C   -0.221449
    76  H    0.167160
    77  O   -0.693735
    78  C    0.343485
    79  N   -0.613462
    80  H    0.343064
    81  C   -0.059941
    82  H    0.222380
    83  C    0.588768
    84  C   -0.267482
    85  H    0.129177
    86  H    0.191506
    87  O   -0.442501
    88  C   -0.290347
    89  H    0.173528
    90  H    0.176157
    91  C   -0.296994
    92  H    0.190900
    93  H    0.157267
    94  C   -0.185693
    95  H    0.204011
    96  H    0.212332
    97  N   -0.777527
    98  H    0.401081
    99  H    0.396286
   100  H    0.476067
   101  O   -0.574784
   102  H    0.428848
 Sum of Mulliken charges =   1.00000

 Dipole moment (field-independent basis, Debye):
    X=              7.1214    Y=            -12.9075    Z=              1.3893  Tot=             14.8070
 Quadrupole moment (field-independent basis, Debye-Ang):
   XX=           -153.1722   YY=           -210.1520   ZZ=           -264.7641
   XY=            -93.7917   XZ=             10.4095   YZ=             -7.0779

 Normal termination of Gaussian 16 at Sat Jul  2 15:30:08 2022.
