 Gaussian 16, Revision C.01,
 Gaussian 16:  ES64L-G16RevC.01  3-Jul-2019

 -------------------------------------------------------------------
 # B3LYP/6-31G* guess=read geom=check nosymm integral(ultrafinegrid)
 -------------------------------------------------------------------

 ------------------------------------------------------
 Candidate Structure: Conf:705 Charge calc in gas phase
 ------------------------------------------------------
 Structure from the checkpoint file:  "conf-705.chk"
 Charge =  1 Multiplicity = 1

                          Input orientation:
 ---------------------------------------------------------------------
 Center     Atomic      Atomic             Coordinates (Angstroms)
 Number     Number       Type             X           Y           Z
 ---------------------------------------------------------------------
      1          7           0       -6.403599    2.409054    3.601112
      2          1           0       -6.372487    2.493071    4.623384
      3          1           0       -7.206337    2.945403    3.244922
      4          1           0       -5.496389    2.785025    3.229698
      5          6           0       -6.369495    0.952996    3.135765
      6          1           0       -6.913911    0.340652    3.860371
      7          6           0       -4.867771    0.661871    3.150873
      8          6           0       -7.078473    0.833406    1.754248
      9          1           0       -8.121510    1.146753    1.928049
     10          8           0       -4.094037    1.628615    2.911313
     11          6           0       -6.478355    1.737937    0.663668
     12          1           0       -5.447479    1.457088    0.429253
     13          1           0       -7.069328    1.643582   -0.252307
     14          1           0       -6.477811    2.802921    0.930171
     15          6           0       -7.108240   -0.637379    1.309991
     16          1           0       -6.112874   -0.984386    1.013181
     17          1           0       -7.485952   -1.299647    2.099155
     18          1           0       -7.770770   -0.746767    0.446426
     19          7           0       -4.456333   -0.598966    3.390094
     20          1           0       -5.119632   -1.360572    3.489545
     21          6           0       -3.046575   -0.996158    3.457740
     22          1           0       -2.490690   -0.152798    3.887368
     23          6           0       -2.432666   -1.296137    2.059809
     24          6           0       -2.951788   -2.219576    4.371860
     25          1           0       -3.054894   -1.912762    5.422241
     26          1           0       -1.973805   -2.682616    4.224892
     27          8           0       -1.860420   -2.362597    1.829152
     28          8           0       -4.019874   -3.093908    4.014769
     29          1           0       -3.682726   -3.990171    3.882112
     30          7           0       -2.563633   -0.292540    1.160735
     31          1           0       -2.889794    0.612615    1.494829
     32          6           0       -2.043244   -0.373231   -0.212949
     33          1           0       -2.123559   -1.423881   -0.509994
     34          6           0       -0.550505    0.036029   -0.254212
     35          6           0       -2.871976    0.508034   -1.143540
     36          1           0       -2.514756    0.415397   -2.172081
     37          1           0       -2.781116    1.562974   -0.867427
     38          1           0       -3.924378    0.205728   -1.110897
     39          8           0       -0.188835    1.089624   -0.762893
     40          7           0        0.309767   -0.848711    0.326526
     41          1           0       -0.059920   -1.724795    0.685011
     42          6           0        1.752601   -0.587588    0.349052
     43          1           0        1.851162    0.501023    0.368731
     44          6           0        2.433471   -1.096406   -0.952028
     45          6           0        2.390219   -1.198100    1.601130
     46          1           0        1.791365   -0.898136    2.472629
     47          1           0        2.328722   -2.291959    1.520904
     48          8           0        3.117928   -2.133074   -0.965660
     49          6           0        3.860428   -0.790321    1.840735
     50          1           0        4.418065   -1.078869    0.939768
     51          6           0        4.051016    0.722535    2.035260
     52          1           0        3.470230    1.087688    2.892389
     53          1           0        5.104245    0.963004    2.224000
     54          1           0        3.748748    1.288348    1.149338
     55          6           0        4.418125   -1.562321    3.051590
     56          1           0        3.866029   -1.318586    3.967451
     57          1           0        5.472723   -1.318280    3.244015
     58          1           0        4.319295   -2.656018    2.927073
     59          7           0        2.185900   -0.336356   -2.037035
     60          1           0        1.747401    0.576255   -1.901497
     61          6           0        2.918643   -0.497459   -3.275953
     62          1           0        2.877778   -1.558152   -3.560533
     63          6           0        4.407262   -0.172367   -3.036685
     64          6           0        2.261168    0.361074   -4.403354
     65          1           0        1.250652   -0.043997   -4.546806
     66          1           0        2.811881    0.157113   -5.333781
     67          8           0        4.840430    0.273023   -1.981109
     68          6           0        2.201628    1.838365   -4.108676
     69          6           0        1.037849    2.425014   -3.562886
     70          1           0        0.164838    1.794267   -3.383296
     71          6           0        3.302175    2.694450   -4.352272
     72          1           0        4.206476    2.277905   -4.801286
     73          6           0        0.974566    3.769641   -3.241483
     74          1           0        0.068480    4.197504   -2.817538
     75          6           0        3.258639    4.040551   -4.044392
     76          1           0        4.113129    4.684260   -4.243438
     77          8           0        2.049057    5.899061   -3.154706
     78          6           0        2.090214    4.674024   -3.451955
     79          7           0        5.237154   -0.490114   -4.085236
     80          1           0        4.844221   -0.924379   -4.910456
     81          6           0        6.673527   -0.520462   -3.903926
     82          1           0        6.882150    0.191485   -3.097356
     83          6           0        7.463108   -0.035841   -5.118944
     84          6           0        7.193910   -1.913870   -3.462002
     85          1           0        7.031769   -2.649811   -4.263059
     86          1           0        8.277275   -1.838805   -3.314240
     87          8           0        8.673743   -0.058360   -5.166132
     88          6           0        6.474610   -2.363336   -2.185797
     89          1           0        5.394044   -2.370630   -2.357477
     90          1           0        6.637194   -1.581767   -1.424810
     91          6           0        6.871887   -3.744057   -1.645699
     92          1           0        6.723234   -4.520371   -2.405314
     93          1           0        7.939073   -3.779277   -1.376318
     94          6           0        6.002392   -4.123897   -0.446591
     95          1           0        6.145160   -5.153089   -0.109420
     96          1           0        4.943892   -3.944290   -0.650777
     97          7           0        6.336497   -3.212814    0.733788
     98          1           0        5.608638   -3.218045    1.460425
     99          1           0        7.231368   -3.459602    1.169286
    100          1           0        6.403634   -2.242523    0.397309
    101          8           0        6.680664    0.405940   -6.123043
    102          1           0        7.279998    0.710775   -6.833656
 ---------------------------------------------------------------------

 SCF Done:  E(RB3LYP) =  -2311.95837368     A.U. after    3 cycles

 Alpha  occ. eigenvalues --  -19.26084 -19.25204 -19.25110 -19.21611 -19.19983
 Alpha  occ. eigenvalues --  -19.18561 -19.18303 -19.17418 -19.03923 -14.60528
 Alpha  occ. eigenvalues --  -14.59587 -14.48947 -14.45299 -14.42980 -14.42191
 Alpha  occ. eigenvalues --  -14.40956 -10.41450 -10.39838 -10.38578 -10.38445
 Alpha  occ. eigenvalues --  -10.37978 -10.35566 -10.34888 -10.34384 -10.34378
 Alpha  occ. eigenvalues --  -10.33872 -10.33802 -10.31499 -10.31473 -10.30745
 Alpha  occ. eigenvalues --  -10.29989 -10.29640 -10.29615 -10.28435 -10.28232
 Alpha  occ. eigenvalues --  -10.27998 -10.27915 -10.27402 -10.26601 -10.25542
 Alpha  occ. eigenvalues --  -10.24559 -10.22682 -10.19439 -10.17175 -10.17010
 Alpha  occ. eigenvalues --  -10.16918 -10.14579 -10.14496  -1.17218  -1.16821
 Alpha  occ. eigenvalues --   -1.14735  -1.13599  -1.12677  -1.12201  -1.10618
 Alpha  occ. eigenvalues --   -1.09830  -1.08712  -1.07736  -1.04799  -1.01488
 Alpha  occ. eigenvalues --   -0.99241  -0.98927  -0.97736  -0.94386  -0.93048
 Alpha  occ. eigenvalues --   -0.92258  -0.89547  -0.88322  -0.86603  -0.85285
 Alpha  occ. eigenvalues --   -0.84169  -0.83699  -0.81938  -0.81355  -0.80706
 Alpha  occ. eigenvalues --   -0.79029  -0.76953  -0.75700  -0.75667  -0.74726
 Alpha  occ. eigenvalues --   -0.73845  -0.73774  -0.73126  -0.72323  -0.72131
 Alpha  occ. eigenvalues --   -0.71880  -0.71494  -0.70359  -0.69224  -0.68838
 Alpha  occ. eigenvalues --   -0.68105  -0.67087  -0.66257  -0.65583  -0.65187
 Alpha  occ. eigenvalues --   -0.64342  -0.63876  -0.63145  -0.62947  -0.62407
 Alpha  occ. eigenvalues --   -0.61833  -0.61065  -0.60063  -0.59594  -0.59451
 Alpha  occ. eigenvalues --   -0.58124  -0.57578  -0.57265  -0.56681  -0.56278
 Alpha  occ. eigenvalues --   -0.55771  -0.55716  -0.55275  -0.54937  -0.54662
 Alpha  occ. eigenvalues --   -0.54178  -0.53950  -0.53234  -0.53060  -0.52940
 Alpha  occ. eigenvalues --   -0.52870  -0.52416  -0.51856  -0.51783  -0.51357
 Alpha  occ. eigenvalues --   -0.50994  -0.50673  -0.50128  -0.49811  -0.49299
 Alpha  occ. eigenvalues --   -0.49052  -0.48484  -0.48320  -0.47934  -0.47561
 Alpha  occ. eigenvalues --   -0.47258  -0.46876  -0.46839  -0.46740  -0.46591
 Alpha  occ. eigenvalues --   -0.46418  -0.46130  -0.46023  -0.45762  -0.45430
 Alpha  occ. eigenvalues --   -0.45269  -0.44763  -0.44273  -0.44169  -0.44043
 Alpha  occ. eigenvalues --   -0.43829  -0.43510  -0.43178  -0.42821  -0.42455
 Alpha  occ. eigenvalues --   -0.42286  -0.41355  -0.40846  -0.40741  -0.40554
 Alpha  occ. eigenvalues --   -0.40144  -0.39649  -0.39489  -0.38956  -0.37858
 Alpha  occ. eigenvalues --   -0.37794  -0.36469  -0.36051  -0.34560  -0.34475
 Alpha  occ. eigenvalues --   -0.34363  -0.34228  -0.32544  -0.32240  -0.31562
 Alpha  occ. eigenvalues --   -0.31451  -0.31193  -0.30492  -0.30136  -0.27549
 Alpha  occ. eigenvalues --   -0.22562  -0.17370  -0.14323
 Alpha virt. eigenvalues --   -0.13311  -0.11272  -0.10532  -0.08299  -0.05839
 Alpha virt. eigenvalues --   -0.05640  -0.05492  -0.05338  -0.05297  -0.04317
 Alpha virt. eigenvalues --   -0.03827  -0.03356  -0.02586  -0.02429  -0.01430

 Mulliken charges:
               1
     1  N   -0.742095
     2  H    0.406748
     3  H    0.400642
     4  H    0.433117
     5  C   -0.115599
     6  H    0.196900
     7  C    0.627081
     8  C   -0.099163
     9  H    0.154099
    10  O   -0.588077
    11  C   -0.473995
    12  H    0.189636
    13  H    0.191016
    14  H    0.139198
    15  C   -0.471248
    16  H    0.177773
    17  H    0.157455
    18  H    0.189211
    19  N   -0.605645
    20  H    0.373138
    21  C   -0.087973
    22  H    0.197494
    23  C    0.632739
    24  C   -0.051809
    25  H    0.152452
    26  H    0.178415
    27  O   -0.538879
    28  O   -0.638426
    29  H    0.425311
    30  N   -0.616835
    31  H    0.372885
    32  C   -0.066757
    33  H    0.181583
    34  C    0.627228
    35  C   -0.464264
    36  H    0.191854
    37  H    0.182635
    38  H    0.140621
    39  O   -0.499153
    40  N   -0.629578
    41  H    0.355744
    42  C   -0.063437
    43  H    0.198657
    44  C    0.656240
    45  C   -0.259594
    46  H    0.136869
    47  H    0.132284
    48  O   -0.597959
    49  C   -0.095707
    50  H    0.119292
    51  C   -0.452561
    52  H    0.147496
    53  H    0.144925
    54  H    0.195927
    55  C   -0.478045
    56  H    0.175693
    57  H    0.138639
    58  H    0.115268
    59  N   -0.596856
    60  H    0.391582
    61  C   -0.064333
    62  H    0.147386
    63  C    0.659977
    64  C   -0.380037
    65  H    0.148553
    66  H    0.136378
    67  O   -0.539074
    68  C    0.117841
    69  C   -0.189539
    70  H    0.083902
    71  C   -0.183385
    72  H    0.088002
    73  C   -0.212702
    74  H    0.085864
    75  C   -0.212988
    76  H    0.095984
    77  O   -0.622454
    78  C    0.419565
    79  N   -0.604618
    80  H    0.336293
    81  C   -0.061458
    82  H    0.220216
    83  C    0.596996
    84  C   -0.268563
    85  H    0.146967
    86  H    0.176817
    87  O   -0.459845
    88  C   -0.302299
    89  H    0.198567
    90  H    0.138957
    91  C   -0.296655
    92  H    0.194342
    93  H    0.158354
    94  C   -0.212497
    95  H    0.207392
    96  H    0.264114
    97  N   -0.752752
    98  H    0.431818
    99  H    0.412809
   100  H    0.433382
   101  O   -0.556829
   102  H    0.425359
 Sum of Mulliken charges =   1.00000

 Dipole moment (field-independent basis, Debye):
    X=             -8.6925    Y=            -21.4505    Z=             21.7470  Tot=             31.7588
 Quadrupole moment (field-independent basis, Debye-Ang):
   XX=             13.3884   YY=           -298.7709   ZZ=           -221.3694
   XY=           -147.7514   XZ=            -62.0583   YZ=             59.4804

 Normal termination of Gaussian 16 at Sat Jul  2 15:31:04 2022.
