 Gaussian 16, Revision C.01,
 Gaussian 16:  ES64L-G16RevC.01  3-Jul-2019

 -------------------------------------------------------------------
 # B3LYP/6-31G* guess=read geom=check nosymm integral(ultrafinegrid)
 -------------------------------------------------------------------

 ------------------------------------------------------
 Candidate Structure: Conf:474 Charge calc in gas phase
 ------------------------------------------------------
 Structure from the checkpoint file:  "conf-474.chk"
 Charge =  1 Multiplicity = 1

                          Input orientation:
 ---------------------------------------------------------------------
 Center     Atomic      Atomic             Coordinates (Angstroms)
 Number     Number       Type             X           Y           Z
 ---------------------------------------------------------------------
      1          7           0       -7.090021    3.894845    5.226648
      2          1           0       -6.356456    4.514290    5.574539
      3          1           0       -7.682904    3.618088    6.009532
      4          1           0       -7.659180    4.419430    4.558031
      5          6           0       -6.519990    2.724846    4.526950
      6          1           0       -5.742975    2.271385    5.155038
      7          6           0       -5.875402    3.221920    3.235494
      8          6           0       -7.583413    1.643834    4.242318
      9          1           0       -8.410889    2.156884    3.744404
     10          8           0       -6.342169    4.145404    2.587339
     11          6           0       -7.083724    0.534473    3.315480
     12          1           0       -6.195619    0.047561    3.734626
     13          1           0       -7.860730   -0.225339    3.202690
     14          1           0       -6.833035    0.897389    2.315280
     15          6           0       -8.087657    1.011135    5.538152
     16          1           0       -7.269390    0.479999    6.030080
     17          1           0       -8.491873    1.733757    6.247710
     18          1           0       -8.877967    0.290018    5.319897
     19          7           0       -4.757918    2.550471    2.848264
     20          1           0       -4.528600    1.670771    3.285294
     21          6           0       -4.278794    2.660375    1.492218
     22          1           0       -5.080851    3.027935    0.843862
     23          6           0       -3.837385    1.267619    1.051685
     24          6           0       -3.130733    3.670170    1.401038
     25          1           0       -2.320418    3.372628    2.076669
     26          1           0       -3.519214    4.638108    1.704986
     27          8           0       -3.743031    0.342961    1.839645
     28          8           0       -2.669915    3.777352    0.062148
     29          1           0       -1.871142    3.237469   -0.023722
     30          7           0       -3.567037    1.148793   -0.276983
     31          1           0       -3.462651    2.026034   -0.763218
     32          6           0       -2.703858    0.080970   -0.742429
     33          1           0       -3.032976   -0.832276   -0.246681
     34          6           0       -1.254568    0.349414   -0.333079
     35          6           0       -2.815601   -0.055994   -2.255767
     36          1           0       -2.134126   -0.828058   -2.622385
     37          1           0       -2.549742    0.885077   -2.741511
     38          1           0       -3.836611   -0.316808   -2.534438
     39          8           0       -0.797343    1.472854   -0.171462
     40          7           0       -0.492049   -0.765702   -0.159117
     41          1           0       -0.833243   -1.602994   -0.596523
     42          6           0        0.957102   -0.609930   -0.166754
     43          1           0        1.209254    0.076384    0.641292
     44          6           0        1.381258    0.012798   -1.495362
     45          6           0        1.606579   -1.975803    0.055074
     46          1           0        1.229332   -2.363671    1.004601
     47          1           0        1.241924   -2.640073   -0.733275
     48          8           0        0.789094   -0.203572   -2.541070
     49          6           0        3.135720   -2.029019    0.078217
     50          1           0        3.515890   -1.623923   -0.864473
     51          6           0        3.720688   -1.215452    1.225245
     52          1           0        3.403344   -1.635920    2.183527
     53          1           0        4.813519   -1.230365    1.188066
     54          1           0        3.414053   -0.166803    1.200210
     55          6           0        3.583843   -3.485200    0.178038
     56          1           0        3.206279   -3.934338    1.099448
     57          1           0        4.673179   -3.562716    0.185480
     58          1           0        3.211824   -4.071062   -0.665031
     59          7           0        2.491565    0.789899   -1.416434
     60          1           0        3.010970    0.879057   -0.562225
     61          6           0        3.154940    1.331812   -2.573660
     62          1           0        2.907079    0.701792   -3.431252
     63          6           0        4.660792    1.278936   -2.294997
     64          6           0        2.676930    2.768519   -2.864793
     65          1           0        1.605145    2.703510   -3.061822
     66          1           0        3.167272    3.121439   -3.776244
     67          8           0        5.113040    0.989207   -1.198240
     68          6           0        2.937312    3.701986   -1.738833
     69          6           0        2.079907    3.726106   -0.621236
     70          1           0        1.226664    3.052741   -0.609328
     71          6           0        4.065831    4.545675   -1.744981
     72          1           0        4.738139    4.505557   -2.600232
     73          6           0        2.298632    4.558721    0.439100
     74          1           0        1.645414    4.581173    1.300021
     75          6           0        4.338332    5.398693   -0.713684
     76          1           0        5.201608    6.049680   -0.718500
     77          8           0        3.662277    6.219295    1.381919
     78          6           0        3.449537    5.454626    0.443539
     79          7           0        5.449608    1.606896   -3.340543
     80          1           0        5.058131    1.818894   -4.245044
     81          6           0        6.893607    1.643436   -3.209138
     82          1           0        7.145638    2.112474   -2.251915
     83          6           0        7.421231    2.488827   -4.344299
     84          6           0        7.500140    0.229167   -3.230963
     85          1           0        6.932913   -0.362436   -2.511800
     86          1           0        7.331656   -0.215876   -4.215030
     87          8           0        6.834797    2.717950   -5.372201
     88          6           0        8.976457    0.181548   -2.870720
     89          1           0        9.123780    0.693538   -1.914353
     90          1           0        9.577338    0.717134   -3.606070
     91          6           0        9.488582   -1.242612   -2.753980
     92          1           0        8.898802   -1.790287   -2.013832
     93          1           0        9.359983   -1.756992   -3.710216
     94          6           0       10.947563   -1.300153   -2.358403
     95          1           0       11.076377   -0.802474   -1.394263
     96          1           0       11.536834   -0.741538   -3.089530
     97          7           0       11.457168   -2.691219   -2.270126
     98          1           0       12.442425   -2.727618   -2.006725
     99          1           0       10.934437   -3.228145   -1.578920
    100          1           0       11.360264   -3.171468   -3.164100
    101          8           0        8.661217    2.952601   -4.090653
    102          1           0        8.933997    3.438697   -4.878445
 ---------------------------------------------------------------------

 SCF Done:  E(RB3LYP) =  -2311.93638138     A.U. after    3 cycles

 Alpha  occ. eigenvalues --  -19.26866 -19.23967 -19.21217 -19.19969 -19.19878
 Alpha  occ. eigenvalues --  -19.18320 -19.16185 -19.14779 -19.03143 -14.61707
 Alpha  occ. eigenvalues --  -14.60222 -14.46428 -14.42082 -14.41282 -14.40933
 Alpha  occ. eigenvalues --  -14.38341 -10.41021 -10.39505 -10.39050 -10.37946
 Alpha  occ. eigenvalues --  -10.36217 -10.34445 -10.33442 -10.32901 -10.31691
 Alpha  occ. eigenvalues --  -10.31236 -10.30897 -10.30406 -10.30273 -10.30021
 Alpha  occ. eigenvalues --  -10.29347 -10.28786 -10.28247 -10.27455 -10.26884
 Alpha  occ. eigenvalues --  -10.25621 -10.23974 -10.23768 -10.23540 -10.22222
 Alpha  occ. eigenvalues --  -10.21532 -10.19635 -10.18438 -10.15615 -10.15218
 Alpha  occ. eigenvalues --  -10.15152 -10.13311 -10.13284  -1.18265  -1.18137
 Alpha  occ. eigenvalues --   -1.15705  -1.15147  -1.12369  -1.10304  -1.09297
 Alpha  occ. eigenvalues --   -1.08656  -1.07692  -1.06925  -1.03335  -0.99605
 Alpha  occ. eigenvalues --   -0.98258  -0.98239  -0.95682  -0.95144  -0.94131
 Alpha  occ. eigenvalues --   -0.93076  -0.87461  -0.87102  -0.86683  -0.84647
 Alpha  occ. eigenvalues --   -0.82782  -0.82096  -0.81200  -0.80712  -0.79616
 Alpha  occ. eigenvalues --   -0.77463  -0.75962  -0.75891  -0.75227  -0.73869
 Alpha  occ. eigenvalues --   -0.73096  -0.73083  -0.72980  -0.71750  -0.71235
 Alpha  occ. eigenvalues --   -0.70962  -0.70146  -0.70078  -0.69314  -0.68242
 Alpha  occ. eigenvalues --   -0.67406  -0.66438  -0.64962  -0.64564  -0.64203
 Alpha  occ. eigenvalues --   -0.63722  -0.63367  -0.63167  -0.61077  -0.60634
 Alpha  occ. eigenvalues --   -0.60135  -0.60043  -0.59146  -0.58362  -0.57485
 Alpha  occ. eigenvalues --   -0.56759  -0.56347  -0.56128  -0.56031  -0.55292
 Alpha  occ. eigenvalues --   -0.54909  -0.54661  -0.54162  -0.53900  -0.53682
 Alpha  occ. eigenvalues --   -0.53357  -0.52227  -0.52036  -0.51931  -0.51638
 Alpha  occ. eigenvalues --   -0.51590  -0.51381  -0.50451  -0.50029  -0.49885
 Alpha  occ. eigenvalues --   -0.49809  -0.49220  -0.48728  -0.48537  -0.48150
 Alpha  occ. eigenvalues --   -0.47958  -0.47846  -0.47508  -0.47410  -0.46553
 Alpha  occ. eigenvalues --   -0.46476  -0.46373  -0.46199  -0.45933  -0.45546
 Alpha  occ. eigenvalues --   -0.45211  -0.45028  -0.44558  -0.44015  -0.43712
 Alpha  occ. eigenvalues --   -0.43588  -0.43267  -0.43032  -0.42856  -0.42664
 Alpha  occ. eigenvalues --   -0.41987  -0.41628  -0.41369  -0.40794  -0.40514
 Alpha  occ. eigenvalues --   -0.39196  -0.39081  -0.38945  -0.38605  -0.38256
 Alpha  occ. eigenvalues --   -0.38052  -0.37895  -0.37657  -0.37385  -0.37206
 Alpha  occ. eigenvalues --   -0.35021  -0.34690  -0.34279  -0.33918  -0.33814
 Alpha  occ. eigenvalues --   -0.32844  -0.32202  -0.31728  -0.31232  -0.30788
 Alpha  occ. eigenvalues --   -0.30578  -0.29873  -0.28616  -0.28148  -0.26749
 Alpha  occ. eigenvalues --   -0.21883  -0.16631  -0.12874
 Alpha virt. eigenvalues --   -0.12004  -0.11950  -0.10141  -0.06251  -0.06220
 Alpha virt. eigenvalues --   -0.05709  -0.05202  -0.05086  -0.05055  -0.04014
 Alpha virt. eigenvalues --   -0.02638  -0.02444  -0.01515  -0.00750  -0.00373

 Mulliken charges:
               1
     1  N   -0.704885
     2  H    0.417664
     3  H    0.404907
     4  H    0.421125
     5  C   -0.142351
     6  H    0.205531
     7  C    0.608460
     8  C   -0.100583
     9  H    0.164378
    10  O   -0.509025
    11  C   -0.471212
    12  H    0.174443
    13  H    0.184461
    14  H    0.188226
    15  C   -0.465864
    16  H    0.176498
    17  H    0.129594
    18  H    0.199637
    19  N   -0.591052
    20  H    0.358157
    21  C   -0.092957
    22  H    0.201214
    23  C    0.603019
    24  C   -0.028770
    25  H    0.159706
    26  H    0.169303
    27  O   -0.536591
    28  O   -0.638204
    29  H    0.443667
    30  N   -0.583755
    31  H    0.353259
    32  C   -0.093457
    33  H    0.179464
    34  C    0.654090
    35  C   -0.456784
    36  H    0.180427
    37  H    0.177661
    38  H    0.166879
    39  O   -0.531901
    40  N   -0.588130
    41  H    0.332826
    42  C   -0.064642
    43  H    0.184752
    44  C    0.630193
    45  C   -0.277818
    46  H    0.147943
    47  H    0.136672
    48  O   -0.557016
    49  C   -0.089704
    50  H    0.144068
    51  C   -0.442187
    52  H    0.136248
    53  H    0.148626
    54  H    0.158862
    55  C   -0.440556
    56  H    0.142727
    57  H    0.132159
    58  H    0.142263
    59  N   -0.593280
    60  H    0.368639
    61  C   -0.059497
    62  H    0.159906
    63  C    0.652423
    64  C   -0.361587
    65  H    0.160573
    66  H    0.125449
    67  O   -0.549083
    68  C    0.129398
    69  C   -0.202414
    70  H    0.112392
    71  C   -0.177146
    72  H    0.064892
    73  C   -0.220894
    74  H    0.074845
    75  C   -0.215698
    76  H    0.086856
    77  O   -0.607404
    78  C    0.414856
    79  N   -0.630895
    80  H    0.355891
    81  C   -0.012603
    82  H    0.210670
    83  C    0.578679
    84  C   -0.281832
    85  H    0.184655
    86  H    0.149370
    87  O   -0.453081
    88  C   -0.274568
    89  H    0.165994
    90  H    0.163537
    91  C   -0.283040
    92  H    0.163898
    93  H    0.157845
    94  C   -0.217371
    95  H    0.218450
    96  H    0.213244
    97  N   -0.627098
    98  H    0.352302
    99  H    0.348644
   100  H    0.347209
   101  O   -0.565645
   102  H    0.420853
 Sum of Mulliken charges =   1.00000

 Dipole moment (field-independent basis, Debye):
    X=              6.4471    Y=            -13.6978    Z=              8.4555  Tot=             17.3404
 Quadrupole moment (field-independent basis, Debye-Ang):
   XX=            353.4644   YY=           -313.1964   ZZ=           -153.9940
   XY=           -219.2366   XZ=           -260.7538   YZ=             69.7811

 Normal termination of Gaussian 16 at Sat Jul  2 15:30:49 2022.
