 Gaussian 16, Revision C.01,
 Gaussian 16:  ES64L-G16RevC.01  3-Jul-2019

 -------------------------------------------------------------------
 # B3LYP/6-31G* guess=read geom=check nosymm integral(ultrafinegrid)
 -------------------------------------------------------------------

 -----------------------------------------------------
 Candidate Structure: Conf:12 Charge calc in gas phase
 -----------------------------------------------------
 Structure from the checkpoint file:  "conf-12.chk"
 Charge =  1 Multiplicity = 1

                          Input orientation:
 ---------------------------------------------------------------------
 Center     Atomic      Atomic             Coordinates (Angstroms)
 Number     Number       Type             X           Y           Z
 ---------------------------------------------------------------------
      1          7           0       -7.634727    3.052683    4.975206
      2          1           0       -7.323471    3.437682    5.870710
      3          1           0       -8.650274    2.940784    5.000500
      4          1           0       -7.312037    3.709532    4.185682
      5          6           0       -6.897713    1.785640    4.580308
      6          1           0       -6.472695    1.337731    5.482671
      7          6           0       -5.797309    2.373398    3.639752
      8          6           0       -7.867957    0.794009    3.886492
      9          1           0       -8.241376    1.291565    2.979704
     10          8           0       -6.039032    3.493128    3.157299
     11          6           0       -7.140451   -0.495715    3.467713
     12          1           0       -6.729442   -1.017219    4.341518
     13          1           0       -7.856491   -1.173238    2.993010
     14          1           0       -6.327503   -0.328227    2.757958
     15          6           0       -9.062188    0.439221    4.792817
     16          1           0       -8.726708   -0.018217    5.731287
     17          1           0       -9.710049    1.290526    5.044104
     18          1           0       -9.705147   -0.284332    4.283310
     19          7           0       -4.705573    1.648639    3.444273
     20          1           0       -4.667679    0.661119    3.710398
     21          6           0       -3.664364    1.965090    2.462886
     22          1           0       -4.066594    2.669068    1.731758
     23          6           0       -3.300068    0.608975    1.824336
     24          6           0       -2.417493    2.606264    3.133488
     25          1           0       -1.836367    3.054933    2.323802
     26          1           0       -1.813607    1.826984    3.618522
     27          8           0       -3.685641   -0.438399    2.376693
     28          8           0       -2.775614    3.633925    4.044421
     29          1           0       -2.965340    3.214131    4.895756
     30          7           0       -2.559942    0.685463    0.716792
     31          1           0       -2.241411    1.645560    0.383546
     32          6           0       -1.977962   -0.499304    0.118551
     33          1           0       -2.520458   -1.358875    0.531107
     34          6           0       -0.511503   -0.646441    0.604174
     35          6           0       -2.144732   -0.466642   -1.409491
     36          1           0       -1.871283   -1.421538   -1.875125
     37          1           0       -1.545289    0.332844   -1.857250
     38          1           0       -3.195382   -0.283683   -1.650951
     39          8           0       -0.102274   -0.104734    1.619793
     40          7           0        0.289300   -1.473987   -0.153457
     41          1           0       -0.069486   -1.856816   -1.016723
     42          6           0        1.704793   -1.672445    0.147764
     43          1           0        1.919586   -0.990037    0.973220
     44          6           0        2.519063   -1.235864   -1.084643
     45          6           0        2.037385   -3.115515    0.561369
     46          1           0        1.806062   -3.778038   -0.285053
     47          1           0        3.125269   -3.173286    0.731373
     48          8           0        2.836078   -2.045925   -1.992431
     49          6           0        1.314797   -3.634500    1.819794
     50          1           0        0.234765   -3.542412    1.641604
     51          6           0        1.633299   -5.124169    2.020606
     52          1           0        2.704310   -5.277609    2.212042
     53          1           0        1.088602   -5.528780    2.880271
     54          1           0        1.356598   -5.721264    1.142186
     55          6           0        1.661927   -2.823167    3.077473
     56          1           0        2.745046   -2.823429    3.260951
     57          1           0        1.180238   -3.262210    3.958313
     58          1           0        1.321574   -1.786289    3.000411
     59          7           0        2.804809    0.060038   -1.171783
     60          1           0        2.383510    0.704666   -0.501753
     61          6           0        3.402802    0.685660   -2.343410
     62          1           0        2.795837    0.427474   -3.220260
     63          6           0        4.836582    0.187628   -2.566412
     64          6           0        3.380851    2.244672   -2.160772
     65          1           0        3.630109    2.686555   -3.133505
     66          1           0        4.186090    2.519018   -1.468331
     67          8           0        5.533236   -0.296232   -1.678845
     68          6           0        2.050529    2.711233   -1.631584
     69          6           0        0.893265    2.697063   -2.430820
     70          1           0        0.986160    2.518994   -3.503417
     71          6           0        1.885342    2.982938   -0.258954
     72          1           0        2.768518    3.041302    0.379389
     73          6           0       -0.367544    2.891701   -1.884455
     74          1           0       -1.251846    2.893463   -2.517815
     75          6           0        0.630298    3.174163    0.303481
     76          1           0        0.532627    3.374424    1.366844
     77          8           0       -1.746953    3.131349    0.047942
     78          6           0       -0.564959    3.081676   -0.476162
     79          7           0        5.282011    0.363784   -3.847739
     80          1           0        4.687699    0.870841   -4.490918
     81          6           0        6.700422    0.302492   -4.191310
     82          1           0        7.259323    0.472734   -3.262238
     83          6           0        7.099451    1.438774   -5.137309
     84          6           0        7.183231   -1.043541   -4.786458
     85          1           0        6.571158   -1.297517   -5.662209
     86          1           0        8.199574   -0.867794   -5.150887
     87          8           0        8.208308    1.564794   -5.597555
     88          6           0        7.206044   -2.207743   -3.780582
     89          1           0        7.565642   -1.825952   -2.817711
     90          1           0        7.938842   -2.951861   -4.114911
     91          6           0        5.843742   -2.903446   -3.578676
     92          1           0        5.028961   -2.179630   -3.649397
     93          1           0        5.686108   -3.648643   -4.371722
     94          6           0        5.775008   -3.567802   -2.209420
     95          1           0        5.919678   -2.821746   -1.425062
     96          1           0        6.505491   -4.373533   -2.092251
     97          7           0        4.400379   -4.156736   -1.974763
     98          1           0        4.352412   -4.674338   -1.092779
     99          1           0        3.673493   -3.361774   -1.932153
    100          1           0        4.137634   -4.799113   -2.728186
    101          8           0        6.081317    2.290216   -5.411618
    102          1           0        6.439985    2.971852   -6.012181
 ---------------------------------------------------------------------

 SCF Done:  E(RB3LYP) =  -2312.05194478     A.U. after    2 cycles

 Alpha  occ. eigenvalues --  -19.27982 -19.23717 -19.22501 -19.21659 -19.19815
 Alpha  occ. eigenvalues --  -19.19695 -19.18211 -19.17492 -19.09284 -14.57060
 Alpha  occ. eigenvalues --  -14.55343 -14.46020 -14.44921 -14.44157 -14.43573
 Alpha  occ. eigenvalues --  -14.39438 -10.40454 -10.40091 -10.38505 -10.38139
 Alpha  occ. eigenvalues --  -10.36741 -10.35379 -10.35063 -10.34204 -10.32510
 Alpha  occ. eigenvalues --  -10.32125 -10.31496 -10.31069 -10.29639 -10.29240
 Alpha  occ. eigenvalues --  -10.29204 -10.28929 -10.27696 -10.27662 -10.27439
 Alpha  occ. eigenvalues --  -10.27275 -10.27055 -10.26220 -10.25561 -10.24619
 Alpha  occ. eigenvalues --  -10.24467 -10.24361 -10.23239 -10.21262 -10.21191
 Alpha  occ. eigenvalues --  -10.21109 -10.19143 -10.18937  -1.18625  -1.16361
 Alpha  occ. eigenvalues --   -1.13572  -1.11376  -1.10885  -1.10294  -1.09980
 Alpha  occ. eigenvalues --   -1.09562  -1.08947  -1.07041  -1.02346  -1.01682
 Alpha  occ. eigenvalues --   -1.00711  -0.99600  -0.98413  -0.96751  -0.92879
 Alpha  occ. eigenvalues --   -0.90235  -0.88693  -0.87643  -0.86126  -0.85424
 Alpha  occ. eigenvalues --   -0.84265  -0.83276  -0.81587  -0.80196  -0.79823
 Alpha  occ. eigenvalues --   -0.79454  -0.76073  -0.75808  -0.74832  -0.74545
 Alpha  occ. eigenvalues --   -0.73330  -0.72717  -0.71602  -0.71456  -0.70789
 Alpha  occ. eigenvalues --   -0.70628  -0.69782  -0.68931  -0.68155  -0.67941
 Alpha  occ. eigenvalues --   -0.67812  -0.67002  -0.66484  -0.65981  -0.65350
 Alpha  occ. eigenvalues --   -0.64400  -0.63143  -0.62299  -0.61785  -0.61597
 Alpha  occ. eigenvalues --   -0.61060  -0.60309  -0.59512  -0.58954  -0.57887
 Alpha  occ. eigenvalues --   -0.57352  -0.57088  -0.56773  -0.56164  -0.55899
 Alpha  occ. eigenvalues --   -0.55793  -0.55407  -0.55172  -0.54510  -0.54386
 Alpha  occ. eigenvalues --   -0.53830  -0.53027  -0.52913  -0.52567  -0.52088
 Alpha  occ. eigenvalues --   -0.51603  -0.51078  -0.50800  -0.50676  -0.50348
 Alpha  occ. eigenvalues --   -0.49991  -0.49823  -0.49287  -0.49098  -0.49046
 Alpha  occ. eigenvalues --   -0.48710  -0.48628  -0.48041  -0.47793  -0.47555
 Alpha  occ. eigenvalues --   -0.47415  -0.47022  -0.46720  -0.46527  -0.46272
 Alpha  occ. eigenvalues --   -0.46016  -0.45882  -0.45726  -0.45521  -0.45321
 Alpha  occ. eigenvalues --   -0.45044  -0.44966  -0.44510  -0.44445  -0.44204
 Alpha  occ. eigenvalues --   -0.43527  -0.43346  -0.42775  -0.42626  -0.42435
 Alpha  occ. eigenvalues --   -0.42019  -0.41895  -0.41682  -0.40597  -0.40069
 Alpha  occ. eigenvalues --   -0.39652  -0.39594  -0.39506  -0.38828  -0.38538
 Alpha  occ. eigenvalues --   -0.37744  -0.37032  -0.36619  -0.36529  -0.36342
 Alpha  occ. eigenvalues --   -0.36015  -0.35729  -0.33258  -0.33100  -0.33057
 Alpha  occ. eigenvalues --   -0.32370  -0.32117  -0.31952  -0.30997  -0.30264
 Alpha  occ. eigenvalues --   -0.27000  -0.23530  -0.20338
 Alpha virt. eigenvalues --   -0.09654  -0.08697  -0.08627  -0.07809  -0.07033
 Alpha virt. eigenvalues --   -0.06061  -0.04388  -0.03820  -0.02932  -0.02505
 Alpha virt. eigenvalues --   -0.02260  -0.01897  -0.01182   0.00017   0.00225

 Mulliken charges:
               1
     1  N   -0.763155
     2  H    0.409536
     3  H    0.402380
     4  H    0.434952
     5  C   -0.101624
     6  H    0.195013
     7  C    0.641042
     8  C   -0.105324
     9  H    0.170043
    10  O   -0.533126
    11  C   -0.480846
    12  H    0.160196
    13  H    0.178201
    14  H    0.200878
    15  C   -0.473421
    16  H    0.171388
    17  H    0.137356
    18  H    0.196528
    19  N   -0.600516
    20  H    0.368419
    21  C   -0.092606
    22  H    0.220517
    23  C    0.611637
    24  C   -0.079923
    25  H    0.231731
    26  H    0.142137
    27  O   -0.580879
    28  O   -0.601067
    29  H    0.380626
    30  N   -0.616077
    31  H    0.432051
    32  C   -0.080028
    33  H    0.194010
    34  C    0.641166
    35  C   -0.481637
    36  H    0.129670
    37  H    0.190990
    38  H    0.176097
    39  O   -0.505428
    40  N   -0.621860
    41  H    0.335267
    42  C   -0.060645
    43  H    0.208654
    44  C    0.644268
    45  C   -0.267188
    46  H    0.115376
    47  H    0.115720
    48  O   -0.620058
    49  C   -0.067489
    50  H    0.143441
    51  C   -0.448167
    52  H    0.132174
    53  H    0.162439
    54  H    0.130931
    55  C   -0.469614
    56  H    0.134549
    57  H    0.151725
    58  H    0.188871
    59  N   -0.579520
    60  H    0.383248
    61  C   -0.044413
    62  H    0.167352
    63  C    0.634551
    64  C   -0.394565
    65  H    0.154560
    66  H    0.166044
    67  O   -0.543806
    68  C    0.129080
    69  C   -0.187944
    70  H    0.094374
    71  C   -0.232993
    72  H    0.111688
    73  C   -0.202162
    74  H    0.108372
    75  C   -0.181708
    76  H    0.115836
    77  O   -0.698762
    78  C    0.399547
    79  N   -0.615978
    80  H    0.355314
    81  C   -0.051644
    82  H    0.211247
    83  C    0.593123
    84  C   -0.272968
    85  H    0.147062
    86  H    0.190651
    87  O   -0.441865
    88  C   -0.280008
    89  H    0.169730
    90  H    0.155789
    91  C   -0.286863
    92  H    0.195351
    93  H    0.145297
    94  C   -0.199528
    95  H    0.236694
    96  H    0.191584
    97  N   -0.776622
    98  H    0.397341
    99  H    0.467979
   100  H    0.391634
   101  O   -0.581206
   102  H    0.429807
 Sum of Mulliken charges =   1.00000

 Dipole moment (field-independent basis, Debye):
    X=             -8.6856    Y=            -10.9780    Z=              6.4584  Tot=             15.4165
 Quadrupole moment (field-independent basis, Debye-Ang):
   XX=            -27.9170   YY=           -234.3495   ZZ=           -154.5128
   XY=            -92.2958   XZ=           -168.7223   YZ=             53.6801

 Normal termination of Gaussian 16 at Sat Jul  2 15:31:04 2022.
