 Gaussian 16, Revision C.01,
 Gaussian 16:  ES64L-G16RevC.01  3-Jul-2019

 -------------------------------------------------------------------
 # B3LYP/6-31G* guess=read geom=check nosymm integral(ultrafinegrid)
 -------------------------------------------------------------------

 ------------------------------------------------------
 Candidate Structure: Conf:772 Charge calc in gas phase
 ------------------------------------------------------
 Structure from the checkpoint file:  "conf-772.chk"
 Charge =  1 Multiplicity = 1

                          Input orientation:
 ---------------------------------------------------------------------
 Center     Atomic      Atomic             Coordinates (Angstroms)
 Number     Number       Type             X           Y           Z
 ---------------------------------------------------------------------
      1          7           0       -6.991375    2.411053    6.538738
      2          1           0       -6.299205    2.446585    7.292157
      3          1           0       -7.911851    2.225674    6.946076
      4          1           0       -6.979798    3.340429    6.012816
      5          6           0       -6.618744    1.435722    5.434833
      6          1           0       -5.815044    0.798072    5.811286
      7          6           0       -6.093598    2.396998    4.329655
      8          6           0       -7.845420    0.571857    5.040525
      9          1           0       -8.203399    0.130278    5.983664
     10          8           0       -6.353729    3.606805    4.457660
     11          6           0       -8.982976    1.399646    4.420736
     12          1           0       -8.684169    1.830989    3.459710
     13          1           0       -9.849759    0.756834    4.242418
     14          1           0       -9.322225    2.223032    5.062091
     15          6           0       -7.435477   -0.597524    4.130253
     16          1           0       -7.124005   -0.260178    3.136842
     17          1           0       -6.622814   -1.189300    4.567154
     18          1           0       -8.290732   -1.265791    3.993632
     19          7           0       -5.415533    1.853957    3.332104
     20          1           0       -5.216057    0.854645    3.281369
     21          6           0       -4.816208    2.593569    2.226167
     22          1           0       -5.539832    3.316657    1.832307
     23          6           0       -4.472629    1.514427    1.181950
     24          6           0       -3.526607    3.332359    2.685993
     25          1           0       -3.802889    4.016389    3.494801
     26          1           0       -3.155602    3.948596    1.852470
     27          8           0       -4.579347    0.321526    1.461997
     28          8           0       -2.561940    2.442422    3.173228
     29          1           0       -2.076053    2.075959    2.403722
     30          7           0       -4.022529    1.967109   -0.014206
     31          1           0       -3.803766    2.954072   -0.079807
     32          6           0       -3.229010    1.093455   -0.871195
     33          1           0       -3.762375    0.141914   -0.946640
     34          6           0       -1.852635    0.834627   -0.200069
     35          6           0       -3.069087    1.722820   -2.261190
     36          1           0       -2.492267    1.069639   -2.921714
     37          1           0       -2.538790    2.680724   -2.198686
     38          1           0       -4.049243    1.893977   -2.715818
     39          8           0       -1.453395    1.532404    0.740303
     40          7           0       -1.151857   -0.177420   -0.734742
     41          1           0       -1.461128   -0.616510   -1.600056
     42          6           0        0.241120   -0.485454   -0.427283
     43          1           0        0.702296    0.408876    0.001026
     44          6           0        0.893728   -0.826238   -1.784637
     45          6           0        0.381189   -1.683592    0.541900
     46          1           0       -0.115770   -2.544060    0.073921
     47          1           0        1.446274   -1.944070    0.616780
     48          8           0        0.193822   -1.140941   -2.751935
     49          6           0       -0.183054   -1.470435    1.960589
     50          1           0       -1.223808   -1.130437    1.865467
     51          6           0       -0.191442   -2.808836    2.715856
     52          1           0        0.826139   -3.203647    2.830562
     53          1           0       -0.613484   -2.688823    3.720380
     54          1           0       -0.785637   -3.565176    2.189310
     55          6           0        0.598922   -0.406598    2.745500
     56          1           0        1.656654   -0.685501    2.839457
     57          1           0        0.195118   -0.301749    3.759265
     58          1           0        0.540148    0.577089    2.269686
     59          7           0        2.239058   -0.772076   -1.814712
     60          1           0        2.779381   -0.672052   -0.957563
     61          6           0        3.026938   -1.265112   -2.936024
     62          1           0        2.579321   -2.204609   -3.284926
     63          6           0        4.416190   -1.603768   -2.340706
     64          6           0        3.014359   -0.261803   -4.127037
     65          1           0        3.492602    0.670523   -3.806516
     66          1           0        1.957112   -0.038392   -4.309048
     67          8           0        4.623438   -1.515819   -1.129747
     68          6           0        3.671773   -0.774658   -5.394419
     69          6           0        4.768953   -0.105726   -5.961437
     70          1           0        5.120774    0.817878   -5.507479
     71          6           0        3.244395   -1.959999   -6.015750
     72          1           0        2.372091   -2.485583   -5.632204
     73          6           0        5.444203   -0.616464   -7.066939
     74          1           0        6.304283   -0.102501   -7.484900
     75          6           0        3.919606   -2.490470   -7.115013
     76          1           0        3.571910   -3.409538   -7.579275
     77          8           0        5.784891   -2.333793   -8.658184
     78          6           0        5.050400   -1.837615   -7.636555
     79          7           0        5.341340   -2.056150   -3.215348
     80          1           0        5.159341   -1.933994   -4.204086
     81          6           0        6.672589   -2.477443   -2.806315
     82          1           0        6.583723   -3.258353   -2.044290
     83          6           0        7.499934   -1.367361   -2.154893
     84          6           0        7.435299   -3.014102   -4.039359
     85          1           0        7.517261   -2.191597   -4.763106
     86          1           0        8.454734   -3.263892   -3.727155
     87          8           0        8.388328   -1.576797   -1.362799
     88          6           0        6.757103   -4.223053   -4.711125
     89          1           0        5.669215   -4.083731   -4.693182
     90          1           0        6.958095   -5.133357   -4.130804
     91          6           0        7.184415   -4.400151   -6.177067
     92          1           0        7.103171   -3.432553   -6.684521
     93          1           0        8.241520   -4.693552   -6.237235
     94          6           0        6.310798   -5.405944   -6.942690
     95          1           0        5.277817   -5.341745   -6.581741
     96          1           0        6.651916   -6.435573   -6.755450
     97          7           0        6.274160   -5.075432   -8.386597
     98          1           0        5.730917   -5.776013   -8.890670
     99          1           0        5.772588   -3.334511   -8.655280
    100          1           0        7.216995   -5.121238   -8.775255
    101          8           0        7.191252   -0.134573   -2.619887
    102          1           0        7.797842    0.480174   -2.165036
 ---------------------------------------------------------------------

 SCF Done:  E(RB3LYP) =  -2312.10883558     A.U. after    1 cycles

 Alpha  occ. eigenvalues --  -19.26630 -19.24355 -19.22627 -19.21404 -19.20547
 Alpha  occ. eigenvalues --  -19.19134 -19.18659 -19.18318 -19.18015 -14.59723
 Alpha  occ. eigenvalues --  -14.49206 -14.46075 -14.43839 -14.42207 -14.41629
 Alpha  occ. eigenvalues --  -14.39680 -10.43331 -10.40416 -10.39404 -10.37374
 Alpha  occ. eigenvalues --  -10.36547 -10.35555 -10.34902 -10.34564 -10.34235
 Alpha  occ. eigenvalues --  -10.32790 -10.32607 -10.30472 -10.30366 -10.29866
 Alpha  occ. eigenvalues --  -10.29741 -10.29297 -10.29025 -10.27312 -10.27177
 Alpha  occ. eigenvalues --  -10.25153 -10.24946 -10.24844 -10.24749 -10.24219
 Alpha  occ. eigenvalues --  -10.24182 -10.24156 -10.23904 -10.23778 -10.23456
 Alpha  occ. eigenvalues --  -10.22923 -10.22844 -10.22458  -1.19066  -1.15137
 Alpha  occ. eigenvalues --   -1.14750  -1.13491  -1.12020  -1.10559  -1.09636
 Alpha  occ. eigenvalues --   -1.09509  -1.07703  -1.06062  -1.05722  -1.02702
 Alpha  occ. eigenvalues --   -1.00475  -0.99029  -0.98576  -0.95299  -0.95036
 Alpha  occ. eigenvalues --   -0.90098  -0.88823  -0.87508  -0.86202  -0.85902
 Alpha  occ. eigenvalues --   -0.84121  -0.83738  -0.81322  -0.81307  -0.81013
 Alpha  occ. eigenvalues --   -0.79338  -0.77470  -0.76046  -0.75388  -0.74838
 Alpha  occ. eigenvalues --   -0.74372  -0.73555  -0.73429  -0.72331  -0.71483
 Alpha  occ. eigenvalues --   -0.70242  -0.69034  -0.68501  -0.68281  -0.67113
 Alpha  occ. eigenvalues --   -0.66350  -0.66108  -0.65802  -0.65009  -0.64481
 Alpha  occ. eigenvalues --   -0.63995  -0.63354  -0.62534  -0.62236  -0.61503
 Alpha  occ. eigenvalues --   -0.60788  -0.60523  -0.58904  -0.58071  -0.57938
 Alpha  occ. eigenvalues --   -0.57311  -0.56725  -0.56704  -0.55801  -0.55693
 Alpha  occ. eigenvalues --   -0.55450  -0.55060  -0.54862  -0.53929  -0.53630
 Alpha  occ. eigenvalues --   -0.53214  -0.53034  -0.52577  -0.52349  -0.51954
 Alpha  occ. eigenvalues --   -0.51588  -0.51370  -0.51100  -0.50925  -0.50536
 Alpha  occ. eigenvalues --   -0.50330  -0.50215  -0.49950  -0.49552  -0.49211
 Alpha  occ. eigenvalues --   -0.48997  -0.48813  -0.48613  -0.48379  -0.47678
 Alpha  occ. eigenvalues --   -0.47629  -0.47415  -0.47199  -0.47108  -0.47071
 Alpha  occ. eigenvalues --   -0.46694  -0.46365  -0.46063  -0.45881  -0.45647
 Alpha  occ. eigenvalues --   -0.45037  -0.44534  -0.44473  -0.44419  -0.44036
 Alpha  occ. eigenvalues --   -0.43820  -0.43638  -0.42329  -0.42007  -0.41793
 Alpha  occ. eigenvalues --   -0.41632  -0.41515  -0.40739  -0.40634  -0.39756
 Alpha  occ. eigenvalues --   -0.39394  -0.39308  -0.39152  -0.38774  -0.38747
 Alpha  occ. eigenvalues --   -0.38296  -0.38130  -0.37782  -0.37051  -0.36164
 Alpha  occ. eigenvalues --   -0.36121  -0.35644  -0.34561  -0.34179  -0.33974
 Alpha  occ. eigenvalues --   -0.33727  -0.32300  -0.32233  -0.31978  -0.31705
 Alpha  occ. eigenvalues --   -0.30417  -0.29858  -0.26021
 Alpha virt. eigenvalues --   -0.12170  -0.11057  -0.08417  -0.06658  -0.06333
 Alpha virt. eigenvalues --   -0.05541  -0.04796  -0.04530  -0.03946  -0.03529
 Alpha virt. eigenvalues --   -0.03071  -0.02112  -0.00677  -0.00432   0.00934

 Mulliken charges:
               1
     1  N   -0.762884
     2  H    0.417827
     3  H    0.410530
     4  H    0.435806
     5  C   -0.106401
     6  H    0.215082
     7  C    0.660998
     8  C   -0.110466
     9  H    0.158508
    10  O   -0.552917
    11  C   -0.469253
    12  H    0.185804
    13  H    0.193816
    14  H    0.141471
    15  C   -0.476920
    16  H    0.185733
    17  H    0.168146
    18  H    0.189062
    19  N   -0.593882
    20  H    0.384092
    21  C   -0.080213
    22  H    0.189962
    23  C    0.620831
    24  C   -0.047013
    25  H    0.173608
    26  H    0.139411
    27  O   -0.530996
    28  O   -0.645051
    29  H    0.456197
    30  N   -0.583382
    31  H    0.340032
    32  C   -0.075050
    33  H    0.199189
    34  C    0.646922
    35  C   -0.475881
    36  H    0.188447
    37  H    0.165162
    38  H    0.181343
    39  O   -0.570426
    40  N   -0.590769
    41  H    0.359815
    42  C   -0.079539
    43  H    0.185390
    44  C    0.621558
    45  C   -0.258369
    46  H    0.145488
    47  H    0.152415
    48  O   -0.550470
    49  C   -0.071322
    50  H    0.134975
    51  C   -0.444915
    52  H    0.149823
    53  H    0.140193
    54  H    0.142604
    55  C   -0.460761
    56  H    0.144234
    57  H    0.143698
    58  H    0.162498
    59  N   -0.617824
    60  H    0.363040
    61  C   -0.057463
    62  H    0.185478
    63  C    0.619930
    64  C   -0.339864
    65  H    0.154870
    66  H    0.186346
    67  O   -0.539068
    68  C    0.092619
    69  C   -0.190643
    70  H    0.137340
    71  C   -0.194762
    72  H    0.139557
    73  C   -0.164058
    74  H    0.145940
    75  C   -0.191308
    76  H    0.131804
    77  O   -0.692894
    78  C    0.362779
    79  N   -0.631038
    80  H    0.374433
    81  C   -0.006383
    82  H    0.189136
    83  C    0.599134
    84  C   -0.321061
    85  H    0.162144
    86  H    0.177238
    87  O   -0.461278
    88  C   -0.274706
    89  H    0.146371
    90  H    0.149142
    91  C   -0.285130
    92  H    0.168435
    93  H    0.145201
    94  C   -0.137591
    95  H    0.150774
    96  H    0.142949
    97  N   -0.765150
    98  H    0.323570
    99  H    0.456338
   100  H    0.326274
   101  O   -0.569764
   102  H    0.415350
 Sum of Mulliken charges =   1.00000

 Dipole moment (field-independent basis, Debye):
    X=            -22.5729    Y=              2.1430    Z=             12.8596  Tot=             26.0672
 Quadrupole moment (field-independent basis, Debye-Ang):
   XX=            -59.0792   YY=           -225.6080   ZZ=           -105.3384
   XY=            -77.4875   XZ=           -202.7573   YZ=             80.0561

 Normal termination of Gaussian 16 at Sat Jul  2 15:29:59 2022.
