 Gaussian 16, Revision C.01,
 Gaussian 16:  ES64L-G16RevC.01  3-Jul-2019

 -------------------------------------------------------------------
 # B3LYP/6-31G* guess=read geom=check nosymm integral(ultrafinegrid)
 -------------------------------------------------------------------

 ------------------------------------------------------
 Candidate Structure: Conf:879 Charge calc in gas phase
 ------------------------------------------------------
 Structure from the checkpoint file:  "conf-879.chk"
 Charge =  1 Multiplicity = 1

                          Input orientation:
 ---------------------------------------------------------------------
 Center     Atomic      Atomic             Coordinates (Angstroms)
 Number     Number       Type             X           Y           Z
 ---------------------------------------------------------------------
      1          7           0       -5.073421   -4.345587    2.853627
      2          1           0       -4.318556   -5.017167    3.003777
      3          1           0       -5.921275   -4.855432    2.603641
      4          1           0       -5.240711   -3.846051    3.731195
      5          6           0       -4.709372   -3.342944    1.828263
      6          1           0       -4.310269   -3.857141    0.946098
      7          6           0       -3.620942   -2.453062    2.421437
      8          6           0       -5.925561   -2.507401    1.385067
      9          1           0       -6.385259   -2.133016    2.303733
     10          8           0       -3.673901   -2.066700    3.581059
     11          6           0       -5.533032   -1.308690    0.519407
     12          1           0       -4.990249   -1.636571   -0.375989
     13          1           0       -6.425499   -0.774516    0.189716
     14          1           0       -4.901831   -0.587066    1.041419
     15          6           0       -6.938649   -3.358628    0.623281
     16          1           0       -6.490409   -3.717662   -0.306113
     17          1           0       -7.286666   -4.226096    1.184763
     18          1           0       -7.815260   -2.759300    0.369305
     19          7           0       -2.597960   -2.126822    1.588225
     20          1           0       -2.665826   -2.322019    0.600174
     21          6           0       -1.631346   -1.109444    1.940003
     22          1           0       -1.462797   -1.169416    3.013709
     23          6           0       -2.131325    0.295054    1.568793
     24          6           0       -0.336511   -1.399628    1.180632
     25          1           0        0.083688   -2.331695    1.556572
     26          1           0        0.388541   -0.587066    1.333098
     27          8           0       -2.627072    0.513588    0.438903
     28          8           0       -0.586984   -1.597889   -0.198802
     29          1           0       -0.656615   -0.722059   -0.608000
     30          7           0       -1.928179    1.253296    2.529893
     31          1           0       -1.406787    0.995077    3.350933
     32          6           0       -1.935583    2.676029    2.204332
     33          1           0       -2.606319    2.771857    1.344799
     34          6           0       -0.525312    3.126743    1.776101
     35          6           0       -2.446432    3.466798    3.386088
     36          1           0       -2.489577    4.530285    3.144424
     37          1           0       -1.782480    3.342260    4.244025
     38          1           0       -3.445272    3.117951    3.651561
     39          8           0        0.099244    4.002070    2.363180
     40          7           0       -0.010378    2.458825    0.718301
     41          1           0       -0.575365    1.832274    0.162046
     42          6           0        1.275367    2.756275    0.142662
     43          1           0        1.353420    3.833126   -0.032699
     44          6           0        1.285687    1.986853   -1.179334
     45          6           0        2.435152    2.332050    1.058244
     46          1           0        2.184777    2.650277    2.070736
     47          1           0        2.478777    1.237125    1.071048
     48          8           0        0.515435    1.050730   -1.390235
     49          6           0        3.819903    2.896917    0.714131
     50          1           0        4.151978    2.483842   -0.248122
     51          6           0        3.790869    4.421905    0.622095
     52          1           0        3.150700    4.824885    1.415951
     53          1           0        4.792399    4.846776    0.741036
     54          1           0        3.398326    4.755862   -0.345978
     55          6           0        4.824603    2.424703    1.760124
     56          1           0        4.566364    2.828412    2.740871
     57          1           0        5.841223    2.741395    1.515230
     58          1           0        4.821116    1.333975    1.822921
     59          7           0        2.209481    2.382154   -2.075169
     60          1           0        2.901489    3.033046   -1.753178
     61          6           0        2.629139    1.494853   -3.145510
     62          1           0        1.731834    1.185264   -3.685620
     63          6           0        3.287074    0.227032   -2.585196
     64          6           0        3.581136    2.256148   -4.104249
     65          1           0        2.981438    2.943246   -4.705061
     66          1           0        4.042277    1.529625   -4.776270
     67          8           0        3.690116    0.109202   -1.437626
     68          6           0        4.622296    3.014737   -3.346936
     69          6           0        4.545260    4.406571   -3.216636
     70          1           0        3.801372    4.946881   -3.793054
     71          6           0        5.605338    2.322213   -2.630652
     72          1           0        5.702262    1.257377   -2.783290
     73          6           0        5.356495    5.089633   -2.346822
     74          1           0        5.287052    6.161670   -2.217082
     75          6           0        6.430761    2.955106   -1.731783
     76          1           0        7.153165    2.416959   -1.132083
     77          8           0        6.948529    4.963464   -0.627955
     78          6           0        6.298927    4.382960   -1.501812
     79          7           0        3.412023   -0.786159   -3.482864
     80          1           0        3.207802   -0.614599   -4.449062
     81          6           0        4.206376   -1.953593   -3.142521
     82          1           0        3.856566   -2.342089   -2.184168
     83          6           0        5.664445   -1.599991   -2.945635
     84          6           0        4.048444   -3.025808   -4.224554
     85          1           0        2.977417   -3.205586   -4.344495
     86          1           0        4.419530   -2.635980   -5.174313
     87          8           0        6.382595   -2.065681   -2.097787
     88          6           0        4.742740   -4.333924   -3.881890
     89          1           0        4.388667   -4.678877   -2.904480
     90          1           0        5.818957   -4.179923   -3.779738
     91          6           0        4.477936   -5.412991   -4.916329
     92          1           0        3.400589   -5.567159   -5.021630
     93          1           0        4.852471   -5.087260   -5.890349
     94          6           0        5.127850   -6.730861   -4.558617
     95          1           0        4.745976   -7.067591   -3.591832
     96          1           0        6.203810   -6.579479   -4.444179
     97          7           0        4.881260   -7.779179   -5.580032
     98          1           0        5.322705   -8.667290   -5.339592
     99          1           0        3.882759   -7.952445   -5.690665
    100          1           0        5.242051   -7.492921   -6.489476
    101          8           0        6.106800   -0.719109   -3.877145
    102          1           0        7.043035   -0.575511   -3.707139
 ---------------------------------------------------------------------

 SCF Done:  E(RB3LYP) =  -2311.91748014     A.U. after    3 cycles

 Alpha  occ. eigenvalues --  -19.25468 -19.25154 -19.21718 -19.20197 -19.20053
 Alpha  occ. eigenvalues --  -19.16457 -19.16221 -19.15323 -19.04215 -14.63195
 Alpha  occ. eigenvalues --  -14.61907 -14.48086 -14.44460 -14.41813 -14.39030
 Alpha  occ. eigenvalues --  -14.38920 -10.42349 -10.40707 -10.39598 -10.37956
 Alpha  occ. eigenvalues --  -10.37475 -10.34130 -10.33039 -10.33029 -10.32668
 Alpha  occ. eigenvalues --  -10.32595 -10.32479 -10.31759 -10.31134 -10.30993
 Alpha  occ. eigenvalues --  -10.30152 -10.29083 -10.28931 -10.28887 -10.26861
 Alpha  occ. eigenvalues --  -10.25898 -10.23063 -10.21629 -10.19813 -10.19375
 Alpha  occ. eigenvalues --  -10.18332 -10.16754 -10.16742 -10.16543 -10.16487
 Alpha  occ. eigenvalues --  -10.15879 -10.14536 -10.14304  -1.19446  -1.17361
 Alpha  occ. eigenvalues --   -1.16798  -1.16341  -1.11243  -1.09233  -1.09060
 Alpha  occ. eigenvalues --   -1.08179  -1.07805  -1.07227  -1.04314  -1.00499
 Alpha  occ. eigenvalues --   -0.98974  -0.96585  -0.96085  -0.96002  -0.94986
 Alpha  occ. eigenvalues --   -0.94798  -0.88608  -0.88489  -0.85410  -0.84227
 Alpha  occ. eigenvalues --   -0.82727  -0.82440  -0.81722  -0.81265  -0.79239
 Alpha  occ. eigenvalues --   -0.77252  -0.77199  -0.76613  -0.76433  -0.75524
 Alpha  occ. eigenvalues --   -0.74199  -0.73638  -0.72228  -0.72165  -0.71613
 Alpha  occ. eigenvalues --   -0.70908  -0.70831  -0.69881  -0.68146  -0.67862
 Alpha  occ. eigenvalues --   -0.67728  -0.66841  -0.66290  -0.66046  -0.65032
 Alpha  occ. eigenvalues --   -0.64333  -0.63789  -0.62455  -0.61843  -0.61457
 Alpha  occ. eigenvalues --   -0.60971  -0.59525  -0.59359  -0.58335  -0.58292
 Alpha  occ. eigenvalues --   -0.57816  -0.57139  -0.56751  -0.56069  -0.55598
 Alpha  occ. eigenvalues --   -0.55426  -0.54813  -0.54594  -0.54207  -0.53847
 Alpha  occ. eigenvalues --   -0.53516  -0.52850  -0.52414  -0.52009  -0.51907
 Alpha  occ. eigenvalues --   -0.51562  -0.51434  -0.51150  -0.50330  -0.50010
 Alpha  occ. eigenvalues --   -0.49771  -0.49259  -0.48803  -0.48455  -0.48158
 Alpha  occ. eigenvalues --   -0.47713  -0.47391  -0.47060  -0.46705  -0.46636
 Alpha  occ. eigenvalues --   -0.46530  -0.46244  -0.45796  -0.45347  -0.45287
 Alpha  occ. eigenvalues --   -0.45089  -0.44615  -0.44389  -0.44144  -0.43788
 Alpha  occ. eigenvalues --   -0.43573  -0.43073  -0.42741  -0.42444  -0.41771
 Alpha  occ. eigenvalues --   -0.41194  -0.41150  -0.40966  -0.39871  -0.39573
 Alpha  occ. eigenvalues --   -0.39378  -0.39242  -0.38529  -0.38378  -0.38283
 Alpha  occ. eigenvalues --   -0.37664  -0.36630  -0.35943  -0.35651  -0.34898
 Alpha  occ. eigenvalues --   -0.34612  -0.34504  -0.33436  -0.32913  -0.32610
 Alpha  occ. eigenvalues --   -0.32420  -0.32244  -0.31922  -0.31299  -0.30810
 Alpha  occ. eigenvalues --   -0.30291  -0.28922  -0.28627  -0.27998  -0.27960
 Alpha  occ. eigenvalues --   -0.22917  -0.17686  -0.14362
 Alpha virt. eigenvalues --   -0.13583  -0.13510  -0.11305  -0.07796  -0.07460
 Alpha virt. eigenvalues --   -0.06817  -0.06636  -0.06390  -0.05871  -0.04223
 Alpha virt. eigenvalues --   -0.03548  -0.02487  -0.02065  -0.01691  -0.01330

 Mulliken charges:
               1
     1  N   -0.712275
     2  H    0.419183
     3  H    0.411845
     4  H    0.424587
     5  C   -0.136880
     6  H    0.197276
     7  C    0.623845
     8  C   -0.101970
     9  H    0.166579
    10  O   -0.516821
    11  C   -0.474739
    12  H    0.162029
    13  H    0.185521
    14  H    0.210573
    15  C   -0.465573
    16  H    0.172961
    17  H    0.126021
    18  H    0.203663
    19  N   -0.574511
    20  H    0.357137
    21  C   -0.087627
    22  H    0.177741
    23  C    0.616746
    24  C   -0.064913
    25  H    0.155620
    26  H    0.185539
    27  O   -0.550748
    28  O   -0.641202
    29  H    0.443226
    30  N   -0.569315
    31  H    0.341216
    32  C   -0.088211
    33  H    0.195122
    34  C    0.613190
    35  C   -0.440708
    36  H    0.185562
    37  H    0.162119
    38  H    0.146061
    39  O   -0.510783
    40  N   -0.649890
    41  H    0.356746
    42  C   -0.036017
    43  H    0.186670
    44  C    0.623194
    45  C   -0.271143
    46  H    0.160584
    47  H    0.132358
    48  O   -0.582497
    49  C   -0.092102
    50  H    0.168224
    51  C   -0.486917
    52  H    0.136346
    53  H    0.200609
    54  H    0.134264
    55  C   -0.457460
    56  H    0.127163
    57  H    0.178993
    58  H    0.124558
    59  N   -0.604279
    60  H    0.390304
    61  C   -0.064332
    62  H    0.156363
    63  C    0.662862
    64  C   -0.375782
    65  H    0.152279
    66  H    0.129863
    67  O   -0.521989
    68  C    0.085896
    69  C   -0.194737
    70  H    0.091943
    71  C   -0.177022
    72  H    0.100144
    73  C   -0.208085
    74  H    0.105269
    75  C   -0.223078
    76  H    0.097653
    77  O   -0.615387
    78  C    0.434866
    79  N   -0.619901
    80  H    0.328544
    81  C    0.002514
    82  H    0.194778
    83  C    0.600183
    84  C   -0.316532
    85  H    0.160578
    86  H    0.163439
    87  O   -0.456305
    88  C   -0.276535
    89  H    0.161591
    90  H    0.180052
    91  C   -0.282848
    92  H    0.156740
    93  H    0.164447
    94  C   -0.217717
    95  H    0.214715
    96  H    0.222829
    97  N   -0.632487
    98  H    0.360233
    99  H    0.348644
   100  H    0.356518
   101  O   -0.564053
   102  H    0.427053
 Sum of Mulliken charges =   1.00000

 Dipole moment (field-independent basis, Debye):
    X=            -17.0238    Y=            -53.5120    Z=            -11.3423  Tot=             57.2887
 Quadrupole moment (field-independent basis, Debye-Ang):
   XX=           -190.1330   YY=            -62.5171   ZZ=           -140.9358
   XY=           -120.5427   XZ=           -142.9163   YZ=            114.8958

 Normal termination of Gaussian 16 at Sat Jul  2 15:30:59 2022.
