 Gaussian 16, Revision C.01,
 Gaussian 16:  ES64L-G16RevC.01  3-Jul-2019

 -------------------------------------------------------------------
 # B3LYP/6-31G* guess=read geom=check nosymm integral(ultrafinegrid)
 -------------------------------------------------------------------

 ------------------------------------------------------
 Candidate Structure: Conf:950 Charge calc in gas phase
 ------------------------------------------------------
 Structure from the checkpoint file:  "conf-950.chk"
 Charge =  1 Multiplicity = 1

                          Input orientation:
 ---------------------------------------------------------------------
 Center     Atomic      Atomic             Coordinates (Angstroms)
 Number     Number       Type             X           Y           Z
 ---------------------------------------------------------------------
      1          7           0       -5.465240    4.179756   -2.292976
      2          1           0       -6.114720    4.444417   -3.030540
      3          1           0       -4.737733    2.617500   -2.673546
      4          1           0       -4.721831    4.878724   -2.265419
      5          6           0       -6.139578    4.218382   -0.977555
      6          1           0       -6.675824    5.174800   -0.846012
      7          6           0       -4.968558    4.263397    0.035508
      8          6           0       -7.172391    3.072173   -0.810626
      9          1           0       -6.626064    2.155976   -0.543137
     10          8           0       -3.966197    4.921900   -0.243518
     11          6           0       -8.196795    3.406871    0.291274
     12          1           0       -8.836699    4.238781   -0.028142
     13          1           0       -8.845962    2.547137    0.486979
     14          1           0       -7.740787    3.704151    1.241597
     15          6           0       -7.923171    2.772750   -2.120044
     16          1           0       -8.439425    3.665240   -2.498901
     17          1           0       -7.253844    2.394760   -2.897597
     18          1           0       -8.687246    2.008358   -1.943149
     19          7           0       -5.089989    3.581220    1.205745
     20          1           0       -5.845924    2.920003    1.325507
     21          6           0       -3.961481    3.413186    2.116791
     22          1           0       -3.128780    3.984775    1.703302
     23          6           0       -3.658964    1.907834    2.174573
     24          6           0       -4.289785    3.943391    3.512821
     25          1           0       -5.133143    3.369781    3.923283
     26          1           0       -4.587002    4.998995    3.430120
     27          8           0       -4.504970    1.118080    2.591575
     28          8           0       -3.111286    3.778030    4.288581
     29          1           0       -3.322101    3.990724    5.209785
     30          7           0       -2.457569    1.526554    1.682453
     31          1           0       -1.787321    2.204242    1.338429
     32          6           0       -2.052524    0.135650    1.614333
     33          1           0       -2.224514   -0.328040    2.594423
     34          6           0       -0.556575    0.126496    1.294107
     35          6           0       -2.840454   -0.655058    0.546669
     36          1           0       -2.554520   -1.713374    0.543127
     37          1           0       -2.666822   -0.238594   -0.449964
     38          1           0       -3.904040   -0.589724    0.783903
     39          8           0        0.030051    1.129523    0.876492
     40          7           0        0.088039   -1.059885    1.453063
     41          1           0       -0.435407   -1.874162    1.746868
     42          6           0        1.523084   -1.203995    1.197178
     43          1           0        1.972152   -0.236215    1.441220
     44          6           0        1.784245   -1.445226   -0.309356
     45          6           0        2.132847   -2.303211    2.072922
     46          1           0        1.693160   -3.269157    1.785509
     47          1           0        3.202183   -2.363337    1.826536
     48          8           0        2.265178   -2.512569   -0.750854
     49          6           0        1.990300   -2.099673    3.595827
     50          1           0        0.919071   -2.037404    3.834511
     51          6           0        2.560514   -3.319691    4.335058
     52          1           0        3.637926   -3.424868    4.149971
     53          1           0        2.422944   -3.221057    5.416725
     54          1           0        2.070342   -4.249527    4.021125
     55          6           0        2.657415   -0.804265    4.081387
     56          1           0        3.725976   -0.792032    3.829334
     57          1           0        2.574784   -0.715525    5.169705
     58          1           0        2.198089    0.090658    3.648074
     59          7           0        1.436123   -0.440922   -1.116883
     60          1           0        1.028335    0.393146   -0.691927
     61          6           0        1.668456   -0.470671   -2.552702
     62          1           0        1.129400   -1.325554   -2.978674
     63          6           0        3.173688   -0.666809   -2.824156
     64          6           0        1.157817    0.836686   -3.208538
     65          1           0        1.456072    0.807928   -4.264966
     66          1           0        1.701333    1.678415   -2.762016
     67          8           0        4.034756   -0.366395   -2.004315
     68          6           0       -0.337269    1.054445   -3.090090
     69          6           0       -1.248451    0.174381   -3.696946
     70          1           0       -0.882651   -0.691161   -4.247909
     71          6           0       -0.857234    2.163456   -2.412687
     72          1           0       -0.179035    2.866105   -1.932931
     73          6           0       -2.618371    0.395237   -3.637997
     74          1           0       -3.317431   -0.277431   -4.125349
     75          6           0       -2.230492    2.405881   -2.347376
     76          1           0       -2.601868    3.276569   -1.813884
     77          8           0       -4.466857    1.696032   -2.970791
     78          6           0       -3.130675    1.525723   -2.972948
     79          7           0        3.458838   -1.215240   -4.042961
     80          1           0        2.735149   -1.238031   -4.753845
     81          6           0        4.820906   -1.294111   -4.544054
     82          1           0        5.450875   -0.712944   -3.865105
     83          6           0        4.857049   -0.649237   -5.927340
     84          6           0        5.356345   -2.750814   -4.641175
     85          1           0        4.873575   -3.249241   -5.491178
     86          1           0        6.426599   -2.702852   -4.871195
     87          8           0        3.870439   -0.376454   -6.574855
     88          6           0        5.112663   -3.609618   -3.389868
     89          1           0        5.468516   -4.626564   -3.609145
     90          1           0        4.025839   -3.670917   -3.240341
     91          6           0        5.785360   -3.084133   -2.111073
     92          1           0        6.865681   -2.976444   -2.273555
     93          1           0        5.399020   -2.090688   -1.860782
     94          6           0        5.629474   -4.004988   -0.902111
     95          1           0        6.019105   -3.537700    0.005324
     96          1           0        6.134580   -4.965188   -1.043603
     97          7           0        4.174692   -4.332371   -0.619743
     98          1           0        4.079748   -4.878802    0.241021
     99          1           0        3.528923   -3.484130   -0.541229
    100          1           0        3.779870   -4.894703   -1.379601
    101          8           0        6.117817   -0.461687   -6.353674
    102          1           0        6.068773   -0.077275   -7.250649
 ---------------------------------------------------------------------

 SCF Done:  E(RB3LYP) =  -2312.12204859     A.U. after    2 cycles

 Alpha  occ. eigenvalues --  -19.29210 -19.24158 -19.23699 -19.22372 -19.21472
 Alpha  occ. eigenvalues --  -19.20674 -19.19948 -19.18385 -19.17922 -14.57755
 Alpha  occ. eigenvalues --  -14.47042 -14.46362 -14.45873 -14.43201 -14.42878
 Alpha  occ. eigenvalues --  -14.39994 -10.41706 -10.40266 -10.39141 -10.38619
 Alpha  occ. eigenvalues --  -10.37940 -10.35699 -10.35179 -10.34120 -10.33709
 Alpha  occ. eigenvalues --  -10.33156 -10.31951 -10.30738 -10.30503 -10.29884
 Alpha  occ. eigenvalues --  -10.29788 -10.29494 -10.29480 -10.29453 -10.29398
 Alpha  occ. eigenvalues --  -10.28532 -10.28023 -10.26276 -10.26079 -10.25769
 Alpha  occ. eigenvalues --  -10.25570 -10.25241 -10.25046 -10.24848 -10.23880
 Alpha  occ. eigenvalues --  -10.23805 -10.23662 -10.23409  -1.20212  -1.15450
 Alpha  occ. eigenvalues --   -1.14200  -1.13294  -1.12373  -1.11349  -1.10672
 Alpha  occ. eigenvalues --   -1.09786  -1.08548  -1.07872  -1.03665  -1.02670
 Alpha  occ. eigenvalues --   -1.02520  -0.99520  -0.99309  -0.96461  -0.92610
 Alpha  occ. eigenvalues --   -0.91309  -0.90913  -0.88750  -0.87225  -0.86152
 Alpha  occ. eigenvalues --   -0.85611  -0.83683  -0.83068  -0.81720  -0.80171
 Alpha  occ. eigenvalues --   -0.79743  -0.77000  -0.76676  -0.75670  -0.75402
 Alpha  occ. eigenvalues --   -0.74225  -0.74135  -0.73492  -0.71989  -0.71424
 Alpha  occ. eigenvalues --   -0.70888  -0.70496  -0.69707  -0.68541  -0.68146
 Alpha  occ. eigenvalues --   -0.67903  -0.67079  -0.66217  -0.65765  -0.65058
 Alpha  occ. eigenvalues --   -0.64760  -0.63795  -0.62875  -0.62621  -0.61904
 Alpha  occ. eigenvalues --   -0.61015  -0.59918  -0.59418  -0.58997  -0.58770
 Alpha  occ. eigenvalues --   -0.58440  -0.58000  -0.57823  -0.57611  -0.56888
 Alpha  occ. eigenvalues --   -0.56139  -0.55913  -0.55020  -0.54666  -0.54497
 Alpha  occ. eigenvalues --   -0.54240  -0.53625  -0.53529  -0.52988  -0.52846
 Alpha  occ. eigenvalues --   -0.52677  -0.52405  -0.52031  -0.51652  -0.51312
 Alpha  occ. eigenvalues --   -0.50776  -0.50553  -0.50515  -0.50081  -0.49611
 Alpha  occ. eigenvalues --   -0.49371  -0.49227  -0.48992  -0.48931  -0.48589
 Alpha  occ. eigenvalues --   -0.48427  -0.48053  -0.47989  -0.47545  -0.47317
 Alpha  occ. eigenvalues --   -0.47276  -0.47044  -0.46207  -0.45896  -0.45800
 Alpha  occ. eigenvalues --   -0.45535  -0.45368  -0.45289  -0.45143  -0.44795
 Alpha  occ. eigenvalues --   -0.44629  -0.44290  -0.44201  -0.43834  -0.43584
 Alpha  occ. eigenvalues --   -0.42707  -0.42484  -0.42164  -0.41876  -0.41808
 Alpha  occ. eigenvalues --   -0.41310  -0.41082  -0.40542  -0.40149  -0.39790
 Alpha  occ. eigenvalues --   -0.39541  -0.39380  -0.38544  -0.37878  -0.37415
 Alpha  occ. eigenvalues --   -0.37024  -0.36170  -0.35749  -0.35456  -0.34799
 Alpha  occ. eigenvalues --   -0.33694  -0.33229  -0.33066  -0.32293  -0.31691
 Alpha  occ. eigenvalues --   -0.30778  -0.30667  -0.26632
 Alpha virt. eigenvalues --   -0.10475  -0.09890  -0.08496  -0.07808  -0.07800
 Alpha virt. eigenvalues --   -0.05807  -0.05596  -0.04420  -0.04394  -0.03609
 Alpha virt. eigenvalues --   -0.02422  -0.02037  -0.01325  -0.00730  -0.00588

 Mulliken charges:
               1
     1  N   -0.788056
     2  H    0.329722
     3  H    0.476055
     4  H    0.350311
     5  C   -0.051055
     6  H    0.161339
     7  C    0.626343
     8  C   -0.100491
     9  H    0.144387
    10  O   -0.530483
    11  C   -0.468811
    12  H    0.157167
    13  H    0.164013
    14  H    0.145869
    15  C   -0.471627
    16  H    0.142198
    17  H    0.174928
    18  H    0.160443
    19  N   -0.619521
    20  H    0.357285
    21  C   -0.069740
    22  H    0.193002
    23  C    0.649369
    24  C   -0.027500
    25  H    0.145906
    26  H    0.144662
    27  O   -0.547375
    28  O   -0.623720
    29  H    0.406100
    30  N   -0.620555
    31  H    0.365133
    32  C   -0.023797
    33  H    0.181321
    34  C    0.630835
    35  C   -0.465539
    36  H    0.130919
    37  H    0.188012
    38  H    0.206559
    39  O   -0.546079
    40  N   -0.609123
    41  H    0.344277
    42  C   -0.073270
    43  H    0.210724
    44  C    0.676160
    45  C   -0.288149
    46  H    0.132233
    47  H    0.126140
    48  O   -0.622809
    49  C   -0.072878
    50  H    0.133829
    51  C   -0.446800
    52  H    0.135804
    53  H    0.169208
    54  H    0.139089
    55  C   -0.457431
    56  H    0.144443
    57  H    0.166371
    58  H    0.161992
    59  N   -0.601181
    60  H    0.399209
    61  C   -0.035399
    62  H    0.171983
    63  C    0.631401
    64  C   -0.408212
    65  H    0.175130
    66  H    0.174067
    67  O   -0.529107
    68  C    0.167155
    69  C   -0.190474
    70  H    0.111215
    71  C   -0.200056
    72  H    0.134204
    73  C   -0.167115
    74  H    0.140391
    75  C   -0.221178
    76  H    0.158465
    77  O   -0.697775
    78  C    0.350998
    79  N   -0.606843
    80  H    0.352655
    81  C   -0.056801
    82  H    0.211619
    83  C    0.588057
    84  C   -0.276110
    85  H    0.161651
    86  H    0.179513
    87  O   -0.456045
    88  C   -0.292711
    89  H    0.151258
    90  H    0.144234
    91  C   -0.306903
    92  H    0.178519
    93  H    0.226649
    94  C   -0.196222
    95  H    0.210128
    96  H    0.199706
    97  N   -0.766103
    98  H    0.401376
    99  H    0.463003
   100  H    0.404012
   101  O   -0.556335
   102  H    0.430630
 Sum of Mulliken charges =   1.00000

 Dipole moment (field-independent basis, Debye):
    X=             10.9903    Y=            -12.2275    Z=             -3.0445  Tot=             16.7203
 Quadrupole moment (field-independent basis, Debye-Ang):
   XX=           -151.0940   YY=           -197.6104   ZZ=           -228.7760
   XY=           -100.1674   XZ=            -36.1168   YZ=             12.1889

 Normal termination of Gaussian 16 at Sat Jul  2 15:30:36 2022.
