 Gaussian 16, Revision C.01,
 Gaussian 16:  ES64L-G16RevC.01  3-Jul-2019

 -------------------------------------------------------------------
 # B3LYP/6-31G* guess=read geom=check nosymm integral(ultrafinegrid)
 -------------------------------------------------------------------

 ------------------------------------------------------
 Candidate Structure: Conf:883 Charge calc in gas phase
 ------------------------------------------------------
 Structure from the checkpoint file:  "conf-883.chk"
 Charge =  1 Multiplicity = 1

                          Input orientation:
 ---------------------------------------------------------------------
 Center     Atomic      Atomic             Coordinates (Angstroms)
 Number     Number       Type             X           Y           Z
 ---------------------------------------------------------------------
      1          7           0       -9.997816    3.165274    2.770245
      2          1           0       -9.955980    2.722559    3.689155
      3          1           0      -10.956570    3.162124    2.430720
      4          1           0       -9.689899    4.134971    2.875624
      5          6           0       -9.074504    2.520913    1.814730
      6          1           0       -9.021653    1.445341    2.030291
      7          6           0       -7.690762    3.133300    2.033474
      8          6           0       -9.565428    2.683357    0.357841
      9          1           0      -10.566953    2.235417    0.362552
     10          8           0       -7.555128    4.282291    2.431316
     11          6           0       -9.693538    4.146398   -0.053050
     12          1           0       -8.710523    4.617276   -0.073791
     13          1           0      -10.135654    4.228616   -1.048029
     14          1           0      -10.316661    4.704164    0.646487
     15          6           0       -8.710177    1.917286   -0.649044
     16          1           0       -7.729773    2.383736   -0.760026
     17          1           0       -8.557658    0.875199   -0.349942
     18          1           0       -9.194201    1.917428   -1.628376
     19          7           0       -6.644235    2.325830    1.739236
     20          1           0       -6.785591    1.472695    1.223731
     21          6           0       -5.296964    2.836924    1.633255
     22          1           0       -5.315917    3.827626    1.162369
     23          6           0       -4.564355    1.848589    0.703956
     24          6           0       -4.644418    2.986086    3.001138
     25          1           0       -4.399148    2.002505    3.417793
     26          1           0       -5.365243    3.476872    3.657880
     27          8           0       -5.169534    0.965921    0.115001
     28          8           0       -3.475222    3.790145    2.833987
     29          1           0       -2.997525    3.804279    3.668058
     30          7           0       -3.245278    2.047115    0.572450
     31          1           0       -2.781078    2.771872    1.106191
     32          6           0       -2.452078    1.220398   -0.306520
     33          1           0       -2.787345    0.186702   -0.194300
     34          6           0       -0.993266    1.360956    0.138629
     35          6           0       -2.618918    1.631319   -1.770047
     36          1           0       -2.001061    1.004055   -2.416234
     37          1           0       -2.321448    2.673981   -1.905959
     38          1           0       -3.661804    1.524430   -2.061784
     39          8           0       -0.587626    2.374843    0.681547
     40          7           0       -0.203809    0.293924   -0.149999
     41          1           0       -0.523667   -0.400258   -0.808764
     42          6           0        1.238193    0.358850   -0.050892
     43          1           0        1.530125    1.406922    0.045273
     44          6           0        1.783683   -0.215940   -1.362823
     45          6           0        1.787413   -0.428926    1.138242
     46          1           0        1.470863   -1.469858    1.037084
     47          1           0        2.878745   -0.424595    1.080794
     48          8           0        1.107176   -0.928390   -2.086395
     49          6           0        1.374909    0.081879    2.521070
     50          1           0        0.286059    0.110546    2.568227
     51          6           0        1.866779   -0.894413    3.586401
     52          1           0        2.957403   -0.964359    3.563107
     53          1           0        1.567817   -0.569321    4.585578
     54          1           0        1.456305   -1.892862    3.420434
     55          6           0        1.911010    1.485013    2.793004
     56          1           0        3.004017    1.486261    2.742403
     57          1           0        1.619914    1.814924    3.793526
     58          1           0        1.530032    2.212546    2.076237
     59          7           0        3.071370    0.083368   -1.638943
     60          1           0        3.655070    0.613671   -1.012589
     61          6           0        3.724438   -0.479854   -2.797421
     62          1           0        3.426528   -1.530090   -2.880387
     63          6           0        5.232711   -0.376510   -2.556281
     64          6           0        3.290879    0.236744   -4.093708
     65          1           0        3.702828    1.247373   -4.106780
     66          1           0        2.202458    0.316286   -4.039952
     67          8           0        5.697940    0.390498   -1.729124
     68          6           0        3.689978   -0.527046   -5.311031
     69          6           0        4.678865   -0.058820   -6.189544
     70          1           0        5.130189    0.916660   -6.010924
     71          6           0        3.103803   -1.777683   -5.546118
     72          1           0        2.328098   -2.115078   -4.859555
     73          6           0        5.110816   -0.815032   -7.247033
     74          1           0        5.886955   -0.470085   -7.920150
     75          6           0        3.497141   -2.572689   -6.586911
     76          1           0        3.055695   -3.544652   -6.765295
     77          8           0        4.927964   -2.833495   -8.438763
     78          6           0        4.543815   -2.131982   -7.499193
     79          7           0        5.986129   -1.186786   -3.338375
     80          1           0        5.535066   -1.745054   -4.053270
     81          6           0        7.436172   -1.089817   -3.353742
     82          1           0        7.711568   -0.114759   -2.946104
     83          6           0        7.936898   -1.156116   -4.781973
     84          6           0        8.116846   -2.184487   -2.525081
     85          1           0        7.852753   -3.164360   -2.922040
     86          1           0        9.197111   -2.066609   -2.650783
     87          8           0        8.693072   -0.379121   -5.301179
     88          6           0        7.773139   -2.109558   -1.045638
     89          1           0        6.710462   -2.289992   -0.901235
     90          1           0        7.967050   -1.096814   -0.679454
     91          6           0        8.563969   -3.108902   -0.220442
     92          1           0        8.367226   -4.120033   -0.586937
     93          1           0        9.635473   -2.926094   -0.341100
     94          6           0        8.217497   -3.046095    1.250476
     95          1           0        7.145901   -3.221188    1.371989
     96          1           0        8.423819   -2.040567    1.624555
     97          7           0        8.974440   -4.038461    2.053949
     98          1           0        8.736389   -3.998003    3.045476
     99          1           0        8.786561   -4.987071    1.731369
    100          1           0        9.978829   -3.883806    1.972754
    101          8           0        7.444521   -2.243713   -5.417277
    102          1           0        7.812006   -2.232829   -6.310231
 ---------------------------------------------------------------------

 SCF Done:  E(RB3LYP) =  -2311.94534884     A.U. after    3 cycles

 Alpha  occ. eigenvalues --  -19.25603 -19.24421 -19.22503 -19.20607 -19.18054
 Alpha  occ. eigenvalues --  -19.17343 -19.16285 -19.16261 -19.03184 -14.62286
 Alpha  occ. eigenvalues --  -14.61065 -14.47958 -14.43178 -14.41335 -14.40088
 Alpha  occ. eigenvalues --  -14.39704 -10.42450 -10.40417 -10.38126 -10.37336
 Alpha  occ. eigenvalues --  -10.35407 -10.34911 -10.34215 -10.33330 -10.33242
 Alpha  occ. eigenvalues --  -10.33042 -10.32828 -10.30963 -10.30034 -10.29852
 Alpha  occ. eigenvalues --  -10.29463 -10.28366 -10.28144 -10.27339 -10.25832
 Alpha  occ. eigenvalues --  -10.25726 -10.24082 -10.24059 -10.24022 -10.22966
 Alpha  occ. eigenvalues --  -10.21846 -10.19518 -10.18661 -10.15834 -10.15812
 Alpha  occ. eigenvalues --  -10.15408 -10.13702 -10.13492  -1.19354  -1.16373
 Alpha  occ. eigenvalues --   -1.16300  -1.14015  -1.13380  -1.11623  -1.10508
 Alpha  occ. eigenvalues --   -1.09104  -1.08408  -1.05069  -1.04958  -1.00441
 Alpha  occ. eigenvalues --   -0.98474  -0.97381  -0.96694  -0.95818  -0.93995
 Alpha  occ. eigenvalues --   -0.92833  -0.88640  -0.87201  -0.86212  -0.85640
 Alpha  occ. eigenvalues --   -0.83442  -0.82841  -0.81269  -0.80781  -0.80296
 Alpha  occ. eigenvalues --   -0.77496  -0.77379  -0.75801  -0.75707  -0.75531
 Alpha  occ. eigenvalues --   -0.74541  -0.73631  -0.73100  -0.72471  -0.71622
 Alpha  occ. eigenvalues --   -0.71283  -0.70478  -0.70373  -0.69279  -0.68024
 Alpha  occ. eigenvalues --   -0.67630  -0.65926  -0.65402  -0.64751  -0.64340
 Alpha  occ. eigenvalues --   -0.63432  -0.63338  -0.62827  -0.62484  -0.62149
 Alpha  occ. eigenvalues --   -0.61349  -0.61167  -0.59916  -0.59447  -0.57862
 Alpha  occ. eigenvalues --   -0.57172  -0.56969  -0.56788  -0.55963  -0.55694
 Alpha  occ. eigenvalues --   -0.54686  -0.54363  -0.53918  -0.53785  -0.53520
 Alpha  occ. eigenvalues --   -0.53242  -0.53041  -0.52468  -0.52008  -0.51872
 Alpha  occ. eigenvalues --   -0.51342  -0.51134  -0.50774  -0.50435  -0.50333
 Alpha  occ. eigenvalues --   -0.50061  -0.49491  -0.49359  -0.49209  -0.48431
 Alpha  occ. eigenvalues --   -0.48161  -0.47972  -0.47723  -0.47570  -0.47392
 Alpha  occ. eigenvalues --   -0.46897  -0.46687  -0.46392  -0.45445  -0.45300
 Alpha  occ. eigenvalues --   -0.44967  -0.44577  -0.44524  -0.44166  -0.44121
 Alpha  occ. eigenvalues --   -0.44027  -0.43505  -0.43130  -0.43078  -0.42548
 Alpha  occ. eigenvalues --   -0.42396  -0.42155  -0.41775  -0.41619  -0.41431
 Alpha  occ. eigenvalues --   -0.40928  -0.39872  -0.39583  -0.38872  -0.38491
 Alpha  occ. eigenvalues --   -0.38265  -0.38103  -0.37833  -0.37186  -0.36862
 Alpha  occ. eigenvalues --   -0.35371  -0.35133  -0.34907  -0.34032  -0.33607
 Alpha  occ. eigenvalues --   -0.32312  -0.32098  -0.31998  -0.31655  -0.31191
 Alpha  occ. eigenvalues --   -0.30269  -0.29851  -0.29779  -0.28560  -0.27015
 Alpha  occ. eigenvalues --   -0.22342  -0.16785  -0.13335
 Alpha virt. eigenvalues --   -0.12723  -0.12323  -0.11843  -0.07445  -0.06090
 Alpha virt. eigenvalues --   -0.05634  -0.05589  -0.04962  -0.03642  -0.03298
 Alpha virt. eigenvalues --   -0.03060  -0.02591  -0.01971  -0.01677  -0.00655

 Mulliken charges:
               1
     1  N   -0.712020
     2  H    0.411313
     3  H    0.406712
     4  H    0.423971
     5  C   -0.138598
     6  H    0.208686
     7  C    0.625556
     8  C   -0.111229
     9  H    0.153672
    10  O   -0.519852
    11  C   -0.461861
    12  H    0.194629
    13  H    0.196002
    14  H    0.125318
    15  C   -0.469926
    16  H    0.186668
    17  H    0.168489
    18  H    0.191948
    19  N   -0.616964
    20  H    0.368821
    21  C   -0.057096
    22  H    0.210358
    23  C    0.603900
    24  C   -0.036135
    25  H    0.146238
    26  H    0.158248
    27  O   -0.547314
    28  O   -0.614850
    29  H    0.418795
    30  N   -0.616901
    31  H    0.384083
    32  C   -0.036864
    33  H    0.175770
    34  C    0.603230
    35  C   -0.454148
    36  H    0.175993
    37  H    0.168485
    38  H    0.176231
    39  O   -0.526483
    40  N   -0.603873
    41  H    0.352915
    42  C   -0.079467
    43  H    0.185099
    44  C    0.620457
    45  C   -0.246480
    46  H    0.138998
    47  H    0.126888
    48  O   -0.536455
    49  C   -0.066974
    50  H    0.130832
    51  C   -0.439949
    52  H    0.126951
    53  H    0.143167
    54  H    0.139695
    55  C   -0.461654
    56  H    0.128157
    57  H    0.135906
    58  H    0.185336
    59  N   -0.620900
    60  H    0.341830
    61  C   -0.042821
    62  H    0.173004
    63  C    0.609711
    64  C   -0.346350
    65  H    0.138091
    66  H    0.165274
    67  O   -0.558792
    68  C    0.102500
    69  C   -0.189141
    70  H    0.089887
    71  C   -0.203456
    72  H    0.102233
    73  C   -0.234938
    74  H    0.094142
    75  C   -0.220938
    76  H    0.092960
    77  O   -0.613462
    78  C    0.413400
    79  N   -0.618877
    80  H    0.386124
    81  C   -0.032996
    82  H    0.197151
    83  C    0.581592
    84  C   -0.276580
    85  H    0.167306
    86  H    0.153237
    87  O   -0.449433
    88  C   -0.268533
    89  H    0.163445
    90  H    0.170968
    91  C   -0.285527
    92  H    0.161437
    93  H    0.161319
    94  C   -0.220853
    95  H    0.217421
    96  H    0.220553
    97  N   -0.650478
    98  H    0.369837
    99  H    0.371067
   100  H    0.371240
   101  O   -0.559242
   102  H    0.435166
 Sum of Mulliken charges =   1.00000

 Dipole moment (field-independent basis, Debye):
    X=            -17.7676    Y=             -0.2242    Z=             36.9690  Tot=             41.0176
 Quadrupole moment (field-independent basis, Debye-Ang):
   XX=            321.2657   YY=           -219.4137   ZZ=           -393.0164
   XY=           -221.7501   XZ=             65.7338   YZ=            -45.5197

 Normal termination of Gaussian 16 at Sat Jul  2 15:30:39 2022.
