 Gaussian 16, Revision C.01,
 Gaussian 16:  ES64L-G16RevC.01  3-Jul-2019

 -------------------------------------------------------------------
 # B3LYP/6-31G* guess=read geom=check nosymm integral(ultrafinegrid)
 -------------------------------------------------------------------

 ------------------------------------------------------
 Candidate Structure: Conf:315 Charge calc in gas phase
 ------------------------------------------------------
 Structure from the checkpoint file:  "conf-315.chk"
 Charge =  1 Multiplicity = 1

                          Input orientation:
 ---------------------------------------------------------------------
 Center     Atomic      Atomic             Coordinates (Angstroms)
 Number     Number       Type             X           Y           Z
 ---------------------------------------------------------------------
      1          7           0       -4.016364    4.042894   -2.765670
      2          1           0       -4.755439    4.265221   -3.430355
      3          1           0       -3.769462    2.253075   -2.518300
      4          1           0       -3.167519    4.489495   -3.113689
      5          6           0       -4.331401    4.643313   -1.441762
      6          1           0       -4.374421    5.741274   -1.511000
      7          6           0       -3.070612    4.336546   -0.614673
      8          6           0       -5.682317    4.144196   -0.886125
      9          1           0       -5.605346    3.063694   -0.697741
     10          8           0       -2.010644    4.908387   -0.921113
     11          6           0       -6.034582    4.872623    0.423279
     12          1           0       -6.181227    5.944397    0.241154
     13          1           0       -6.967196    4.477741    0.838600
     14          1           0       -5.259324    4.767687    1.188613
     15          6           0       -6.816206    4.341360   -1.908624
     16          1           0       -6.883434    5.387945   -2.233227
     17          1           0       -6.699574    3.706461   -2.793382
     18          1           0       -7.777087    4.077483   -1.455600
     19          7           0       -3.127638    3.405566    0.357807
     20          1           0       -3.953896    2.829558    0.496930
     21          6           0       -1.910656    2.839242    0.904700
     22          1           0       -1.285790    2.491163    0.067860
     23          6           0       -2.296980    1.558249    1.679113
     24          6           0       -1.043169    3.867284    1.682644
     25          1           0       -0.571095    3.420252    2.561898
     26          1           0       -1.682602    4.683551    2.037649
     27          8           0       -3.451710    1.156866    1.721763
     28          8           0        0.015247    4.368427    0.867371
     29          1           0       -0.448153    4.731767    0.074107
     30          7           0       -1.203333    0.939356    2.195605
     31          1           0       -0.318881    1.423854    2.109660
     32          6           0       -0.983277   -0.463032    2.538609
     33          1           0       -1.015374   -0.583578    3.633012
     34          6           0        0.492724   -0.703207    2.124458
     35          6           0       -1.990784   -1.429889    1.908273
     36          1           0       -1.830292   -2.447305    2.282258
     37          1           0       -1.918858   -1.425968    0.816295
     38          1           0       -3.004382   -1.132679    2.177996
     39          8           0        1.292710    0.247188    2.094376
     40          7           0        0.880147   -1.950102    1.805401
     41          1           0        0.216204   -2.709086    1.882692
     42          6           0        2.286346   -2.270727    1.535282
     43          1           0        2.897520   -1.781277    2.297389
     44          6           0        2.809656   -1.716048    0.196425
     45          6           0        2.511926   -3.794471    1.576590
     46          1           0        1.890679   -4.262350    0.798690
     47          1           0        3.554320   -3.963960    1.284071
     48          8           0        4.019485   -1.583095    0.034272
     49          6           0        2.247217   -4.480900    2.934151
     50          1           0        1.201897   -4.293836    3.228956
     51          6           0        2.413363   -6.000551    2.777777
     52          1           0        3.442417   -6.254056    2.494992
     53          1           0        2.190128   -6.516144    3.717728
     54          1           0        1.745693   -6.403153    2.007051
     55          6           0        3.154440   -3.943047    4.050276
     56          1           0        4.212262   -4.082185    3.794920
     57          1           0        2.966436   -4.476158    4.988270
     58          1           0        2.994046   -2.876457    4.245284
     59          7           0        1.915125   -1.466268   -0.796900
     60          1           0        0.918096   -1.494903   -0.627383
     61          6           0        2.382789   -1.163285   -2.140799
     62          1           0        3.149013   -1.905924   -2.389911
     63          6           0        3.038134    0.227711   -2.227480
     64          6           0        1.228818   -1.318803   -3.175357
     65          1           0        1.025797   -2.393635   -3.249715
     66          1           0        1.629470   -1.016184   -4.150007
     67          8           0        2.429068    1.263114   -1.914154
     68          6           0       -0.067133   -0.586577   -2.887691
     69          6           0       -1.146896   -1.247354   -2.277656
     70          1           0       -1.055394   -2.303747   -2.026685
     71          6           0       -0.260858    0.750018   -3.264801
     72          1           0        0.543206    1.291143   -3.753345
     73          6           0       -2.359896   -0.603884   -2.034058
     74          1           0       -3.197781   -1.131720   -1.589108
     75          6           0       -1.465079    1.407497   -3.031234
     76          1           0       -1.587158    2.439074   -3.348372
     77          8           0       -3.730573    1.316079   -2.172037
     78          6           0       -2.535474    0.737671   -2.411325
     79          7           0        4.284240    0.238942   -2.730441
     80          1           0        4.745156   -0.637338   -2.955178
     81          6           0        5.014586    1.430430   -3.145298
     82          1           0        4.302716    2.139435   -3.583296
     83          6           0        5.968907    0.966711   -4.248403
     84          6           0        5.812665    2.164067   -2.032495
     85          1           0        6.436070    1.433084   -1.502920
     86          1           0        6.495845    2.847158   -2.546501
     87          8           0        6.219607   -0.194588   -4.486496
     88          6           0        4.949679    2.976409   -1.041572
     89          1           0        4.013713    3.254987   -1.539143
     90          1           0        5.464804    3.918443   -0.817199
     91          6           0        4.652616    2.273650    0.297833
     92          1           0        4.429527    1.208950    0.157601
     93          1           0        5.547072    2.308785    0.930779
     94          6           0        3.507141    2.943238    1.063880
     95          1           0        3.549506    4.031974    0.972304
     96          1           0        3.520262    2.691079    2.126510
     97          7           0        2.163487    2.499113    0.531986
     98          1           0        1.418186    3.227568    0.634882
     99          1           0        2.226776    2.212764   -0.468390
    100          1           0        1.858331    1.647564    1.033758
    101          8           0        6.509662    2.004481   -4.906521
    102          1           0        7.124139    1.639455   -5.572586
 ---------------------------------------------------------------------

 SCF Done:  E(RB3LYP) =  -2312.14545889     A.U. after    2 cycles

 Alpha  occ. eigenvalues --  -19.29534 -19.25385 -19.25315 -19.24118 -19.22784
 Alpha  occ. eigenvalues --  -19.22726 -19.22217 -19.22074 -19.21242 -14.52020
 Alpha  occ. eigenvalues --  -14.49179 -14.46651 -14.46207 -14.46187 -14.45754
 Alpha  occ. eigenvalues --  -14.43031 -10.42121 -10.41957 -10.39629 -10.39589
 Alpha  occ. eigenvalues --  -10.38697 -10.38633 -10.35490 -10.34605 -10.34225
 Alpha  occ. eigenvalues --  -10.34206 -10.33919 -10.33702 -10.33601 -10.32330
 Alpha  occ. eigenvalues --  -10.31731 -10.29144 -10.29067 -10.28843 -10.28612
 Alpha  occ. eigenvalues --  -10.28534 -10.28407 -10.28202 -10.27954 -10.27308
 Alpha  occ. eigenvalues --  -10.27237 -10.26852 -10.26282 -10.26026 -10.25490
 Alpha  occ. eigenvalues --  -10.25477 -10.25206 -10.25197  -1.20637  -1.17061
 Alpha  occ. eigenvalues --   -1.14469  -1.14424  -1.13542  -1.13168  -1.12025
 Alpha  occ. eigenvalues --   -1.11789  -1.11304  -1.07528  -1.05326  -1.03428
 Alpha  occ. eigenvalues --   -1.03163  -1.02351  -1.02233  -0.99204  -0.93035
 Alpha  occ. eigenvalues --   -0.91155  -0.90754  -0.89053  -0.88279  -0.87787
 Alpha  occ. eigenvalues --   -0.86630  -0.85165  -0.83795  -0.82364  -0.81919
 Alpha  occ. eigenvalues --   -0.80545  -0.78496  -0.77737  -0.76437  -0.75987
 Alpha  occ. eigenvalues --   -0.75364  -0.75082  -0.74708  -0.74110  -0.72190
 Alpha  occ. eigenvalues --   -0.71395  -0.69788  -0.69468  -0.68703  -0.68486
 Alpha  occ. eigenvalues --   -0.68409  -0.67088  -0.66775  -0.66594  -0.66415
 Alpha  occ. eigenvalues --   -0.66111  -0.65830  -0.64506  -0.63488  -0.62332
 Alpha  occ. eigenvalues --   -0.61446  -0.61309  -0.60459  -0.60286  -0.59998
 Alpha  occ. eigenvalues --   -0.59352  -0.58904  -0.58526  -0.58146  -0.57629
 Alpha  occ. eigenvalues --   -0.57061  -0.56993  -0.56568  -0.56181  -0.55706
 Alpha  occ. eigenvalues --   -0.55248  -0.54927  -0.54412  -0.54135  -0.53898
 Alpha  occ. eigenvalues --   -0.53483  -0.53257  -0.53106  -0.52774  -0.52372
 Alpha  occ. eigenvalues --   -0.52024  -0.51793  -0.51494  -0.51352  -0.51113
 Alpha  occ. eigenvalues --   -0.50822  -0.50417  -0.49955  -0.49806  -0.49675
 Alpha  occ. eigenvalues --   -0.49446  -0.49300  -0.49221  -0.48774  -0.48735
 Alpha  occ. eigenvalues --   -0.48505  -0.48030  -0.47584  -0.47474  -0.47269
 Alpha  occ. eigenvalues --   -0.47136  -0.46906  -0.46632  -0.46216  -0.45999
 Alpha  occ. eigenvalues --   -0.45892  -0.45552  -0.44932  -0.44643  -0.44398
 Alpha  occ. eigenvalues --   -0.44073  -0.43588  -0.43263  -0.43061  -0.42751
 Alpha  occ. eigenvalues --   -0.41787  -0.41641  -0.41628  -0.41510  -0.41433
 Alpha  occ. eigenvalues --   -0.41179  -0.40550  -0.40210  -0.39640  -0.39311
 Alpha  occ. eigenvalues --   -0.38987  -0.38021  -0.37263  -0.36492  -0.36451
 Alpha  occ. eigenvalues --   -0.36158  -0.35445  -0.35151  -0.34914  -0.34873
 Alpha  occ. eigenvalues --   -0.34459  -0.32901  -0.28902
 Alpha virt. eigenvalues --   -0.11157  -0.09626  -0.08942  -0.08640  -0.08224
 Alpha virt. eigenvalues --   -0.07672  -0.07531  -0.06774  -0.04756  -0.03365
 Alpha virt. eigenvalues --   -0.01590  -0.01028  -0.00688  -0.00394   0.00445

 Mulliken charges:
               1
     1  N   -0.788758
     2  H    0.339799
     3  H    0.468324
     4  H    0.341082
     5  C   -0.036578
     6  H    0.161755
     7  C    0.625132
     8  C   -0.107758
     9  H    0.156082
    10  O   -0.570402
    11  C   -0.461440
    12  H    0.157070
    13  H    0.167784
    14  H    0.150939
    15  C   -0.473874
    16  H    0.153309
    17  H    0.156463
    18  H    0.171804
    19  N   -0.615885
    20  H    0.383634
    21  C   -0.063448
    22  H    0.186866
    23  C    0.612644
    24  C   -0.065484
    25  H    0.164290
    26  H    0.185579
    27  O   -0.507200
    28  O   -0.658760
    29  H    0.443845
    30  N   -0.642399
    31  H    0.346264
    32  C   -0.012809
    33  H    0.199927
    34  C    0.622579
    35  C   -0.498457
    36  H    0.150218
    37  H    0.172744
    38  H    0.228862
    39  O   -0.569180
    40  N   -0.632450
    41  H    0.357995
    42  C   -0.023410
    43  H    0.195752
    44  C    0.621294
    45  C   -0.308001
    46  H    0.140498
    47  H    0.187343
    48  O   -0.531839
    49  C   -0.080095
    50  H    0.111356
    51  C   -0.444966
    52  H    0.157425
    53  H    0.161601
    54  H    0.146692
    55  C   -0.451543
    56  H    0.159534
    57  H    0.163745
    58  H    0.141847
    59  N   -0.612782
    60  H    0.340902
    61  C   -0.030974
    62  H    0.171771
    63  C    0.657672
    64  C   -0.400959
    65  H    0.174485
    66  H    0.174559
    67  O   -0.591819
    68  C    0.161788
    69  C   -0.223712
    70  H    0.125218
    71  C   -0.163055
    72  H    0.134121
    73  C   -0.168072
    74  H    0.150193
    75  C   -0.208881
    76  H    0.130379
    77  O   -0.692608
    78  C    0.352917
    79  N   -0.588458
    80  H    0.372101
    81  C   -0.038144
    82  H    0.195421
    83  C    0.582890
    84  C   -0.280811
    85  H    0.169822
    86  H    0.182874
    87  O   -0.454243
    88  C   -0.275665
    89  H    0.150781
    90  H    0.159172
    91  C   -0.308466
    92  H    0.190755
    93  H    0.175572
    94  C   -0.175782
    95  H    0.197027
    96  H    0.196275
    97  N   -0.861629
    98  H    0.428787
    99  H    0.445879
   100  H    0.431548
   101  O   -0.556574
   102  H    0.432380
 Sum of Mulliken charges =   1.00000

 Dipole moment (field-independent basis, Debye):
    X=              4.7223    Y=              5.6260    Z=             -1.1369  Tot=              7.4327
 Quadrupole moment (field-independent basis, Debye-Ang):
   XX=           -209.7460   YY=           -221.2733   ZZ=           -240.0878
   XY=             -8.9564   XZ=            -10.1155   YZ=            -26.4113

 Normal termination of Gaussian 16 at Sat Jul  2 15:30:49 2022.
