 Gaussian 16, Revision C.01,
 Gaussian 16:  ES64L-G16RevC.01  3-Jul-2019

 -------------------------------------------------------------------
 # B3LYP/6-31G* guess=read geom=check nosymm integral(ultrafinegrid)
 -------------------------------------------------------------------

 ------------------------------------------------------
 Candidate Structure: Conf:404 Charge calc in gas phase
 ------------------------------------------------------
 Structure from the checkpoint file:  "conf-404.chk"
 Charge =  1 Multiplicity = 1

                          Input orientation:
 ---------------------------------------------------------------------
 Center     Atomic      Atomic             Coordinates (Angstroms)
 Number     Number       Type             X           Y           Z
 ---------------------------------------------------------------------
      1          7           0       -2.027608    2.209960   -3.761283
      2          1           0       -1.792342    2.852957   -4.519968
      3          1           0       -1.808901    1.242688   -4.114517
      4          1           0       -1.356823    2.347800   -2.976930
      5          6           0       -3.418822    2.401611   -3.213510
      6          1           0       -3.705507    3.427230   -3.472029
      7          6           0       -3.236865    2.369874   -1.669210
      8          6           0       -4.422920    1.422462   -3.882356
      9          1           0       -4.139304    1.422311   -4.944696
     10          8           0       -2.095805    2.412263   -1.197805
     11          6           0       -4.309922   -0.020071   -3.364180
     12          1           0       -4.611528   -0.092415   -2.313425
     13          1           0       -4.970347   -0.671625   -3.944680
     14          1           0       -3.293889   -0.416305   -3.458699
     15          6           0       -5.874858    1.933975   -3.831389
     16          1           0       -6.342172    1.823826   -2.845652
     17          1           0       -5.952026    2.985019   -4.131779
     18          1           0       -6.486201    1.348158   -4.524503
     19          7           0       -4.348009    2.378192   -0.919260
     20          1           0       -5.275905    2.288961   -1.320037
     21          6           0       -4.338463    2.486869    0.541620
     22          1           0       -3.518938    3.151440    0.831909
     23          6           0       -4.161645    1.094573    1.193051
     24          6           0       -5.703239    3.075461    0.948273
     25          1           0       -5.773702    4.110637    0.601951
     26          1           0       -5.795406    3.069453    2.041899
     27          8           0       -5.140555    0.384063    1.444752
     28          8           0       -6.749414    2.354999    0.319444
     29          1           0       -6.701022    1.458293    0.707570
     30          7           0       -2.888394    0.730968    1.451832
     31          1           0       -2.120096    1.363350    1.247438
     32          6           0       -2.519462   -0.532666    2.079271
     33          1           0       -3.051574   -0.620175    3.036805
     34          6           0       -1.005639   -0.440008    2.360022
     35          6           0       -2.887596   -1.743838    1.201092
     36          1           0       -2.712477   -2.691302    1.722720
     37          1           0       -2.311774   -1.742907    0.269676
     38          1           0       -3.951709   -1.694336    0.964293
     39          8           0       -0.388445    0.611069    2.164609
     40          7           0       -0.387867   -1.568622    2.794874
     41          1           0       -0.913440   -2.431833    2.839551
     42          6           0        1.077858   -1.664413    2.922757
     43          1           0        1.420565   -0.688682    3.276027
     44          6           0        1.641831   -1.902636    1.497892
     45          6           0        1.479938   -2.764634    3.906368
     46          1           0        1.149466   -3.731217    3.503554
     47          1           0        2.578306   -2.804097    3.921121
     48          8           0        1.935814   -3.046003    1.093182
     49          6           0        0.966341   -2.589917    5.350462
     50          1           0       -0.131729   -2.538505    5.318032
     51          6           0        1.351486   -3.819103    6.187556
     52          1           0        2.442037   -3.915164    6.267747
     53          1           0        0.952704   -3.739978    7.204260
     54          1           0        0.963835   -4.745736    5.747599
     55          6           0        1.479630   -1.299254    6.006367
     56          1           0        2.577024   -1.278773    6.030076
     57          1           0        1.127322   -1.227976    7.040805
     58          1           0        1.136319   -0.398504    5.485274
     59          7           0        1.661747   -0.809076    0.727422
     60          1           0        1.329311    0.042893    1.174011
     61          6           0        1.597914   -0.812226   -0.735351
     62          1           0        0.988530   -1.673286   -1.035620
     63          6           0        2.988483   -0.973327   -1.394286
     64          6           0        0.857919    0.497927   -1.147320
     65          1           0        1.497924    1.349134   -0.882425
     66          1           0       -0.032748    0.568189   -0.510198
     67          8           0        4.032111   -0.818884   -0.760626
     68          6           0        0.491242    0.556484   -2.603522
     69          6           0        1.086916    1.496238   -3.475380
     70          1           0        1.739498    2.261293   -3.054245
     71          6           0       -0.375196   -0.392662   -3.172702
     72          1           0       -0.887904   -1.105615   -2.522938
     73          6           0        0.911660    1.438390   -4.848464
     74          1           0        1.457868    2.111787   -5.503749
     75          6           0       -0.582736   -0.467718   -4.553246
     76          1           0       -1.171051   -1.276803   -4.980781
     77          8           0        0.420700   -0.012970   -6.669821
     78          6           0        0.235510    0.313921   -5.465161
     79          7           0        2.936759   -1.335328   -2.704731
     80          1           0        2.027295   -1.366704   -3.155638
     81          6           0        4.080077   -1.245044   -3.632153
     82          1           0        4.780046   -0.511165   -3.225997
     83          6           0        3.575338   -0.685559   -4.974964
     84          6           0        4.828484   -2.576451   -3.874712
     85          1           0        4.123890   -3.329699   -4.247432
     86          1           0        5.542613   -2.387751   -4.685411
     87          8           0        4.093796    0.244843   -5.544279
     88          6           0        5.604705   -3.101072   -2.654143
     89          1           0        6.084836   -2.249551   -2.157129
     90          1           0        6.411949   -3.761116   -2.992156
     91          6           0        4.723677   -3.861509   -1.638280
     92          1           0        3.703911   -3.468683   -1.666160
     93          1           0        4.666647   -4.924455   -1.911857
     94          6           0        5.264672   -3.706713   -0.224029
     95          1           0        5.343155   -2.649108    0.034708
     96          1           0        6.228893   -4.202153   -0.079984
     97          7           0        4.295492   -4.308600    0.776189
     98          1           0        4.678747   -4.304791    1.726088
     99          1           0        3.383842   -3.766299    0.803901
    100          1           0        4.072732   -5.280494    0.538342
    101          8           0        2.516058   -1.386669   -5.410442
    102          1           0        2.026693   -0.906980   -6.137491
 ---------------------------------------------------------------------

 SCF Done:  E(RB3LYP) =  -2312.06863844     A.U. after    1 cycles

 Alpha  occ. eigenvalues --  -19.24484 -19.24417 -19.24050 -19.23604 -19.23081
 Alpha  occ. eigenvalues --  -19.22037 -19.20265 -19.18821 -19.12431 -14.57259
 Alpha  occ. eigenvalues --  -14.54068 -14.48426 -14.47988 -14.46947 -14.46165
 Alpha  occ. eigenvalues --  -14.43998 -10.41530 -10.40984 -10.40794 -10.39095
 Alpha  occ. eigenvalues --  -10.37416 -10.37375 -10.37197 -10.36018 -10.34789
 Alpha  occ. eigenvalues --  -10.34718 -10.33813 -10.33040 -10.32776 -10.31881
 Alpha  occ. eigenvalues --  -10.30709 -10.29799 -10.29239 -10.28650 -10.28458
 Alpha  occ. eigenvalues --  -10.28355 -10.28354 -10.27857 -10.27797 -10.27749
 Alpha  occ. eigenvalues --  -10.26830 -10.25908 -10.25904 -10.25857 -10.25092
 Alpha  occ. eigenvalues --  -10.24729 -10.23300 -10.22566  -1.16535  -1.16227
 Alpha  occ. eigenvalues --   -1.15288  -1.14708  -1.13849  -1.11796  -1.11748
 Alpha  occ. eigenvalues --   -1.10588  -1.09088  -1.06343  -1.04720  -1.04205
 Alpha  occ. eigenvalues --   -1.03483  -1.02594  -1.02085  -1.00334  -0.92344
 Alpha  occ. eigenvalues --   -0.91543  -0.91002  -0.90653  -0.88604  -0.87225
 Alpha  occ. eigenvalues --   -0.86135  -0.85380  -0.83832  -0.82323  -0.80413
 Alpha  occ. eigenvalues --   -0.80119  -0.79168  -0.78549  -0.77303  -0.76882
 Alpha  occ. eigenvalues --   -0.75290  -0.74563  -0.73761  -0.72233  -0.72170
 Alpha  occ. eigenvalues --   -0.71093  -0.70966  -0.70505  -0.70343  -0.68911
 Alpha  occ. eigenvalues --   -0.68646  -0.67813  -0.67438  -0.66683  -0.66436
 Alpha  occ. eigenvalues --   -0.66187  -0.65660  -0.64765  -0.64397  -0.63124
 Alpha  occ. eigenvalues --   -0.62416  -0.61589  -0.61557  -0.60709  -0.60412
 Alpha  occ. eigenvalues --   -0.59745  -0.58853  -0.58745  -0.58381  -0.58251
 Alpha  occ. eigenvalues --   -0.57631  -0.57434  -0.56560  -0.55944  -0.55219
 Alpha  occ. eigenvalues --   -0.55065  -0.54077  -0.53714  -0.53625  -0.53422
 Alpha  occ. eigenvalues --   -0.53309  -0.53023  -0.52242  -0.52124  -0.51994
 Alpha  occ. eigenvalues --   -0.51812  -0.51660  -0.51351  -0.51166  -0.51015
 Alpha  occ. eigenvalues --   -0.50762  -0.50662  -0.50550  -0.50140  -0.49823
 Alpha  occ. eigenvalues --   -0.49569  -0.49201  -0.48670  -0.48519  -0.48352
 Alpha  occ. eigenvalues --   -0.48179  -0.48052  -0.47797  -0.47391  -0.47347
 Alpha  occ. eigenvalues --   -0.46927  -0.46783  -0.45972  -0.45582  -0.45516
 Alpha  occ. eigenvalues --   -0.45310  -0.44932  -0.44752  -0.44595  -0.44287
 Alpha  occ. eigenvalues --   -0.44229  -0.42891  -0.42734  -0.42632  -0.42355
 Alpha  occ. eigenvalues --   -0.42082  -0.41826  -0.41766  -0.41703  -0.40308
 Alpha  occ. eigenvalues --   -0.40072  -0.39695  -0.39349  -0.38598  -0.38254
 Alpha  occ. eigenvalues --   -0.37397  -0.36937  -0.36544  -0.36487  -0.35856
 Alpha  occ. eigenvalues --   -0.35502  -0.34840  -0.34361  -0.33620  -0.31754
 Alpha  occ. eigenvalues --   -0.31318  -0.26007  -0.23922
 Alpha virt. eigenvalues --   -0.11572  -0.10581  -0.09522  -0.08979  -0.08082
 Alpha virt. eigenvalues --   -0.07462  -0.07135  -0.05093  -0.04655  -0.04124
 Alpha virt. eigenvalues --   -0.03759  -0.03419  -0.02625  -0.00990  -0.00675

 Mulliken charges:
               1
     1  N   -0.776043
     2  H    0.402226
     3  H    0.397971
     4  H    0.432437
     5  C   -0.090393
     6  H    0.208104
     7  C    0.628872
     8  C   -0.112552
     9  H    0.170820
    10  O   -0.534298
    11  C   -0.474197
    12  H    0.157971
    13  H    0.181107
    14  H    0.168481
    15  C   -0.484808
    16  H    0.176413
    17  H    0.165990
    18  H    0.187473
    19  N   -0.605994
    20  H    0.379075
    21  C   -0.088554
    22  H    0.185346
    23  C    0.645488
    24  C   -0.059558
    25  H    0.169159
    26  H    0.166244
    27  O   -0.543318
    28  O   -0.633511
    29  H    0.426848
    30  N   -0.621948
    31  H    0.381092
    32  C   -0.030297
    33  H    0.201736
    34  C    0.626329
    35  C   -0.473665
    36  H    0.148275
    37  H    0.160624
    38  H    0.215169
    39  O   -0.541476
    40  N   -0.605560
    41  H    0.347426
    42  C   -0.068918
    43  H    0.199628
    44  C    0.624074
    45  C   -0.281560
    46  H    0.148348
    47  H    0.132250
    48  O   -0.600516
    49  C   -0.075137
    50  H    0.129500
    51  C   -0.445888
    52  H    0.143804
    53  H    0.164920
    54  H    0.143523
    55  C   -0.456715
    56  H    0.147047
    57  H    0.165930
    58  H    0.152731
    59  N   -0.571485
    60  H    0.389225
    61  C   -0.066425
    62  H    0.168223
    63  C    0.619736
    64  C   -0.394352
    65  H    0.167633
    66  H    0.165058
    67  O   -0.544711
    68  C    0.096997
    69  C   -0.200414
    70  H    0.130756
    71  C   -0.217331
    72  H    0.109169
    73  C   -0.268579
    74  H    0.148276
    75  C   -0.308482
    76  H    0.129988
    77  O   -0.626472
    78  C    0.412309
    79  N   -0.621897
    80  H    0.378964
    81  C   -0.013764
    82  H    0.190990
    83  C    0.579154
    84  C   -0.285427
    85  H    0.163380
    86  H    0.175258
    87  O   -0.452399
    88  C   -0.275662
    89  H    0.168604
    90  H    0.158257
    91  C   -0.284936
    92  H    0.181202
    93  H    0.151336
    94  C   -0.207043
    95  H    0.246876
    96  H    0.195873
    97  N   -0.770775
    98  H    0.399965
    99  H    0.461014
   100  H    0.397912
   101  O   -0.604384
   102  H    0.450860
 Sum of Mulliken charges =   1.00000

 Dipole moment (field-independent basis, Debye):
    X=              0.3998    Y=             -8.9543    Z=              7.1990  Tot=             11.4963
 Quadrupole moment (field-independent basis, Debye-Ang):
   XX=           -202.6005   YY=           -196.3096   ZZ=           -289.8114
   XY=            -85.3169   XZ=             50.5819   YZ=            -36.1350

 Normal termination of Gaussian 16 at Sat Jul  2 15:30:13 2022.
