 Gaussian 16, Revision C.01,
 Gaussian 16:  ES64L-G16RevC.01  3-Jul-2019

 -------------------------------------------------------------------
 # B3LYP/6-31G* guess=read geom=check nosymm integral(ultrafinegrid)
 -------------------------------------------------------------------

 ------------------------------------------------------
 Candidate Structure: Conf:102 Charge calc in gas phase
 ------------------------------------------------------
 Structure from the checkpoint file:  "conf-102.chk"
 Charge =  1 Multiplicity = 1

                          Input orientation:
 ---------------------------------------------------------------------
 Center     Atomic      Atomic             Coordinates (Angstroms)
 Number     Number       Type             X           Y           Z
 ---------------------------------------------------------------------
      1          7           0       -6.325686    0.547761    5.858951
      2          1           0       -5.868496    1.237240    6.459958
      3          1           0       -6.875664   -0.078896    6.447783
      4          1           0       -6.960234    1.036861    5.223042
      5          6           0       -5.333485   -0.198953    5.045534
      6          1           0       -4.542261   -0.576893    5.703492
      7          6           0       -4.737579    0.779163    4.041701
      8          6           0       -5.966317   -1.387061    4.307288
      9          1           0       -6.790853   -0.971513    3.722288
     10          8           0       -5.455523    1.399923    3.264777
     11          6           0       -4.981516   -2.058358    3.347088
     12          1           0       -4.137144   -2.473161    3.907929
     13          1           0       -5.474791   -2.882159    2.825706
     14          1           0       -4.585869   -1.371230    2.598656
     15          6           0       -6.515971   -2.432169    5.273486
     16          1           0       -5.707892   -2.832973    5.890973
     17          1           0       -7.289110   -2.043708    5.937300
     18          1           0       -6.954432   -3.260618    4.713235
     19          7           0       -3.392925    0.949496    4.088563
     20          1           0       -2.813561    0.252741    4.533350
     21          6           0       -2.739028    1.739570    3.068828
     22          1           0       -3.357989    2.618011    2.889400
     23          6           0       -2.616865    0.958098    1.761079
     24          6           0       -1.385840    2.194656    3.588006
     25          1           0       -1.563221    2.873401    4.426268
     26          1           0       -0.832264    2.724880    2.802046
     27          8           0       -2.502711   -0.263518    1.708962
     28          8           0       -0.669840    1.037050    4.020620
     29          1           0        0.046224    1.327728    4.592736
     30          7           0       -2.638662    1.727159    0.632894
     31          1           0       -2.447582    2.705442    0.751483
     32          6           0       -2.135417    1.163377   -0.616544
     33          1           0       -2.629123    0.199828   -0.756005
     34          6           0       -0.633082    0.955496   -0.476817
     35          6           0       -2.435875    2.117738   -1.757130
     36          1           0       -2.088520    1.706374   -2.707726
     37          1           0       -1.923441    3.064616   -1.583613
     38          1           0       -3.510082    2.299375   -1.823831
     39          8           0        0.087425    1.873104   -0.076564
     40          7           0       -0.151463   -0.253263   -0.813592
     41          1           0       -0.807502   -0.986008   -1.019444
     42          6           0        1.215467   -0.632923   -0.477786
     43          1           0        1.494187   -0.034945    0.402171
     44          6           0        2.192094   -0.228957   -1.595501
     45          6           0        1.314800   -2.117374   -0.151212
     46          1           0        1.116399   -2.696916   -1.053803
     47          1           0        2.348277   -2.329715    0.129309
     48          8           0        3.014272   -1.007041   -2.073581
     49          6           0        0.394422   -2.589058    0.972712
     50          1           0       -0.643368   -2.461283    0.643344
     51          6           0        0.637346   -4.072757    1.231377
     52          1           0        1.662465   -4.232437    1.574702
     53          1           0       -0.037644   -4.456460    1.999756
     54          1           0        0.485844   -4.665280    0.325904
     55          6           0        0.589775   -1.777863    2.251592
     56          1           0        1.622761   -1.875806    2.602310
     57          1           0       -0.066728   -2.148937    3.045643
     58          1           0        0.365847   -0.721048    2.116020
     59          7           0        2.072953    1.051343   -2.032194
     60          1           0        1.603683    1.713078   -1.425730
     61          6           0        2.994836    1.578788   -3.017370
     62          1           0        3.172236    0.798097   -3.758870
     63          6           0        4.324922    1.949624   -2.351432
     64          6           0        2.397295    2.833040   -3.686161
     65          1           0        2.214142    3.565395   -2.898381
     66          1           0        1.437783    2.552474   -4.117010
     67          8           0        4.366069    2.705511   -1.367335
     68          6           0        3.287310    3.416640   -4.728701
     69          6           0        4.339616    4.282566   -4.360120
     70          1           0        4.489818    4.493197   -3.300504
     71          6           0        3.123344    3.091471   -6.087762
     72          1           0        2.312662    2.430281   -6.377133
     73          6           0        5.179754    4.832023   -5.294840
     74          1           0        5.982339    5.512070   -5.029502
     75          6           0        3.947960    3.595107   -7.058012
     76          1           0        3.817996    3.344879   -8.103626
     77          8           0        5.776951    4.991924   -7.558493
     78          6           0        5.029113    4.509263   -6.708698
     79          7           0        5.404601    1.405397   -2.976204
     80          1           0        5.278036    0.944206   -3.862662
     81          6           0        6.758005    1.740450   -2.596946
     82          1           0        6.694790    2.478711   -1.792557
     83          6           0        7.454674    2.373175   -3.781861
     84          6           0        7.557757    0.513800   -2.128785
     85          1           0        7.831672   -0.094032   -2.996627
     86          1           0        8.493677    0.876244   -1.696637
     87          8           0        7.187476    2.165531   -4.937942
     88          6           0        6.805419   -0.349574   -1.118626
     89          1           0        7.444088   -1.187427   -0.823514
     90          1           0        5.924756   -0.789014   -1.595362
     91          6           0        6.356605    0.403767    0.120166
     92          1           0        7.222036    0.727432    0.701430
     93          1           0        5.809850    1.302645   -0.166092
     94          6           0        5.443517   -0.448622    0.975240
     95          1           0        5.943708   -1.386663    1.222679
     96          1           0        4.555936   -0.692126    0.387769
     97          7           0        5.027601    0.242634    2.221412
     98          1           0        4.340058   -0.292055    2.753056
     99          1           0        5.827865    0.405733    2.832177
    100          1           0        4.617997    1.150743    2.005447
    101          8           0        8.463856    3.176570   -3.394946
    102          1           0        8.860659    3.499018   -4.214474
 ---------------------------------------------------------------------

 SCF Done:  E(RB3LYP) =  -2311.92103923     A.U. after    3 cycles

 Alpha  occ. eigenvalues --  -19.27122 -19.24105 -19.23962 -19.22228 -19.21103
 Alpha  occ. eigenvalues --  -19.18652 -19.18194 -19.17507 -19.04694 -14.61741
 Alpha  occ. eigenvalues --  -14.61431 -14.48314 -14.45894 -14.45798 -14.41762
 Alpha  occ. eigenvalues --  -14.41374 -10.41137 -10.39569 -10.39069 -10.37796
 Alpha  occ. eigenvalues --  -10.37750 -10.36272 -10.35727 -10.35398 -10.34787
 Alpha  occ. eigenvalues --  -10.34247 -10.33077 -10.32565 -10.31865 -10.30325
 Alpha  occ. eigenvalues --  -10.29854 -10.29416 -10.28616 -10.27497 -10.27286
 Alpha  occ. eigenvalues --  -10.27228 -10.26847 -10.26738 -10.26448 -10.25922
 Alpha  occ. eigenvalues --  -10.25184 -10.21465 -10.19786 -10.17081 -10.16938
 Alpha  occ. eigenvalues --  -10.16925 -10.14916 -10.14711  -1.18043  -1.16821
 Alpha  occ. eigenvalues --   -1.15542  -1.15373  -1.14594  -1.14018  -1.13062
 Alpha  occ. eigenvalues --   -1.10500  -1.08618  -1.06133  -1.04894  -1.02701
 Alpha  occ. eigenvalues --   -1.02442  -0.98755  -0.98227  -0.95413  -0.95259
 Alpha  occ. eigenvalues --   -0.92509  -0.90390  -0.89706  -0.86824  -0.86518
 Alpha  occ. eigenvalues --   -0.85155  -0.84273  -0.82998  -0.81202  -0.80745
 Alpha  occ. eigenvalues --   -0.79214  -0.76937  -0.76783  -0.76352  -0.75749
 Alpha  occ. eigenvalues --   -0.75299  -0.75010  -0.74790  -0.73408  -0.73205
 Alpha  occ. eigenvalues --   -0.72257  -0.72165  -0.70999  -0.69999  -0.69580
 Alpha  occ. eigenvalues --   -0.67973  -0.67894  -0.67353  -0.66523  -0.65022
 Alpha  occ. eigenvalues --   -0.64626  -0.64480  -0.64335  -0.64057  -0.63799
 Alpha  occ. eigenvalues --   -0.63085  -0.62362  -0.60436  -0.59695  -0.59494
 Alpha  occ. eigenvalues --   -0.58988  -0.58389  -0.58157  -0.57161  -0.56711
 Alpha  occ. eigenvalues --   -0.56409  -0.56099  -0.55270  -0.55013  -0.54772
 Alpha  occ. eigenvalues --   -0.54288  -0.54261  -0.53960  -0.53119  -0.52754
 Alpha  occ. eigenvalues --   -0.52635  -0.52301  -0.51924  -0.51466  -0.50998
 Alpha  occ. eigenvalues --   -0.50924  -0.50711  -0.50562  -0.50217  -0.50099
 Alpha  occ. eigenvalues --   -0.49789  -0.49638  -0.48592  -0.48180  -0.47861
 Alpha  occ. eigenvalues --   -0.47689  -0.47471  -0.47149  -0.47124  -0.46843
 Alpha  occ. eigenvalues --   -0.46395  -0.46284  -0.46235  -0.46028  -0.45995
 Alpha  occ. eigenvalues --   -0.45837  -0.45453  -0.45068  -0.45044  -0.44520
 Alpha  occ. eigenvalues --   -0.44141  -0.43671  -0.42907  -0.42625  -0.41781
 Alpha  occ. eigenvalues --   -0.41659  -0.41288  -0.41032  -0.40891  -0.40206
 Alpha  occ. eigenvalues --   -0.39861  -0.39564  -0.39082  -0.38920  -0.38340
 Alpha  occ. eigenvalues --   -0.37303  -0.36687  -0.36237  -0.36204  -0.35458
 Alpha  occ. eigenvalues --   -0.34846  -0.34427  -0.33528  -0.32986  -0.32565
 Alpha  occ. eigenvalues --   -0.32072  -0.31754  -0.30911  -0.30065  -0.28193
 Alpha  occ. eigenvalues --   -0.23165  -0.17976  -0.14202
 Alpha virt. eigenvalues --   -0.13487  -0.13060  -0.10527  -0.09100  -0.07484
 Alpha virt. eigenvalues --   -0.07059  -0.06543  -0.06038  -0.05661  -0.05244
 Alpha virt. eigenvalues --   -0.04998  -0.03868  -0.03115  -0.02858  -0.02465

 Mulliken charges:
               1
     1  N   -0.672712
     2  H    0.371960
     3  H    0.370238
     4  H    0.411047
     5  C   -0.135077
     6  H    0.181394
     7  C    0.606678
     8  C   -0.094681
     9  H    0.169557
    10  O   -0.528190
    11  C   -0.476618
    12  H    0.148809
    13  H    0.178175
    14  H    0.211745
    15  C   -0.467218
    16  H    0.164034
    17  H    0.130144
    18  H    0.195674
    19  N   -0.591371
    20  H    0.353729
    21  C   -0.097096
    22  H    0.199014
    23  C    0.646219
    24  C   -0.056484
    25  H    0.153833
    26  H    0.173436
    27  O   -0.530587
    28  O   -0.618417
    29  H    0.407211
    30  N   -0.567313
    31  H    0.338877
    32  C   -0.062421
    33  H    0.170664
    34  C    0.648614
    35  C   -0.472121
    36  H    0.183392
    37  H    0.177341
    38  H    0.179400
    39  O   -0.570545
    40  N   -0.578503
    41  H    0.347187
    42  C   -0.072081
    43  H    0.147565
    44  C    0.619127
    45  C   -0.278921
    46  H    0.167014
    47  H    0.135195
    48  O   -0.542961
    49  C   -0.082847
    50  H    0.135924
    51  C   -0.439362
    52  H    0.135080
    53  H    0.146466
    54  H    0.156831
    55  C   -0.443826
    56  H    0.085690
    57  H    0.149236
    58  H    0.170400
    59  N   -0.611351
    60  H    0.367579
    61  C   -0.035549
    62  H    0.166211
    63  C    0.643105
    64  C   -0.375998
    65  H    0.146777
    66  H    0.140534
    67  O   -0.581560
    68  C    0.120568
    69  C   -0.196073
    70  H    0.102232
    71  C   -0.183512
    72  H    0.082342
    73  C   -0.213562
    74  H    0.092036
    75  C   -0.207006
    76  H    0.104546
    77  O   -0.588650
    78  C    0.425727
    79  N   -0.569302
    80  H    0.363653
    81  C   -0.063920
    82  H    0.195450
    83  C    0.602362
    84  C   -0.284943
    85  H    0.172533
    86  H    0.164520
    87  O   -0.432846
    88  C   -0.281591
    89  H    0.147715
    90  H    0.190205
    91  C   -0.310465
    92  H    0.148116
    93  H    0.209829
    94  C   -0.237717
    95  H    0.210391
    96  H    0.238030
    97  N   -0.682478
    98  H    0.379068
    99  H    0.390980
   100  H    0.408520
   101  O   -0.571863
   102  H    0.427809
 Sum of Mulliken charges =   1.00000

 Dipole moment (field-independent basis, Debye):
    X=            -14.1547    Y=             -9.3191    Z=             43.3438  Tot=             46.5391
 Quadrupole moment (field-independent basis, Debye-Ang):
   XX=           -109.7453   YY=           -327.2222   ZZ=           -250.3885
   XY=            -56.3591   XZ=              6.9303   YZ=             90.3403

 Normal termination of Gaussian 16 at Sat Jul  2 15:31:43 2022.
