 Gaussian 16, Revision C.01,
 Gaussian 16:  ES64L-G16RevC.01  3-Jul-2019

 -------------------------------------------------------------------
 # B3LYP/6-31G* guess=read geom=check nosymm integral(ultrafinegrid)
 -------------------------------------------------------------------

 -----------------------------------------------------
 Candidate Structure: Conf:84 Charge calc in gas phase
 -----------------------------------------------------
 Structure from the checkpoint file:  "conf-84.chk"
 Charge =  1 Multiplicity = 1

                          Input orientation:
 ---------------------------------------------------------------------
 Center     Atomic      Atomic             Coordinates (Angstroms)
 Number     Number       Type             X           Y           Z
 ---------------------------------------------------------------------
      1          7           0       -5.712139    0.803130    4.298433
      2          1           0       -5.556839    0.404591    5.228278
      3          1           0       -6.565067    1.367999    4.327233
      4          1           0       -5.808998    0.015650    3.568022
      5          6           0       -4.519314    1.536057    3.748916
      6          1           0       -3.718066    1.546951    4.489912
      7          1           0       -4.797795    2.562490    3.504969
      8          6           0       -4.140563    0.715131    2.482911
      9          8           0       -4.858753   -0.267638    2.232675
     10          7           0       -3.101783    1.148451    1.792262
     11          1           0       -2.471750    1.869367    2.163678
     12          6           0       -2.472870    0.462203    0.655739
     13          1           0       -2.660724   -0.611022    0.749828
     14          6           0       -0.964428    0.771495    0.836280
     15          6           0       -2.969402    0.991561   -0.708604
     16          1           0       -2.790866    2.074968   -0.726670
     17          1           0       -2.324027    0.560854   -1.486102
     18          8           0       -0.622403    1.697066    1.580792
     19          6           0       -4.440488    0.697859   -1.065919
     20          1           0       -5.076139    1.080204   -0.253681
     21          6           0       -4.813222    1.458304   -2.348552
     22          1           0       -4.205877    1.118807   -3.196760
     23          1           0       -5.864455    1.293245   -2.608206
     24          1           0       -4.659139    2.538166   -2.237890
     25          6           0       -4.716294   -0.804937   -1.222408
     26          1           0       -4.078403   -1.241219   -2.001630
     27          1           0       -4.551210   -1.356799   -0.291283
     28          1           0       -5.757439   -0.974684   -1.517926
     29          7           0       -0.129053   -0.007166    0.135603
     30          1           0       -0.487106   -0.660814   -0.558732
     31          6           0        1.303002    0.246773   -0.031810
     32          1           0        1.498570    1.281446    0.268168
     33          6           0        1.546547    0.043415   -1.544646
     34          6           0        2.169962   -0.716227    0.834535
     35          1           0        1.987133   -1.731511    0.454750
     36          8           0        0.835607   -0.747806   -2.171628
     37          6           0        3.670351   -0.409514    0.703126
     38          1           0        3.895526    0.612721    1.035031
     39          1           0        4.246693   -1.090852    1.337392
     40          1           0        4.040148   -0.522912   -0.319405
     41          6           0        1.745663   -0.666401    2.309742
     42          1           0        1.868927    0.341189    2.723572
     43          1           0        2.363364   -1.352672    2.899028
     44          1           0        0.700502   -0.961451    2.442834
     45          7           0        2.539004    0.761427   -2.103001
     46          1           0        3.162123    1.329420   -1.536431
     47          6           0        3.000268    0.548792   -3.470760
     48          1           0        2.975754   -0.523732   -3.690915
     49          6           0        4.428746    1.070855   -3.544127
     50          6           0        2.123739    1.270644   -4.530284
     51          1           0        2.368863    0.842257   -5.508039
     52          1           0        1.090890    0.980235   -4.311158
     53          8           0        4.980115    0.866863   -4.726953
     54          6           0        2.222345    2.814322   -4.602311
     55          1           0        2.310482    3.232229   -3.589931
     56          1           0        1.254001    3.167360   -4.975064
     57          6           0        3.321546    3.419402   -5.529500
     58          1           0        3.619370    2.667216   -6.269937
     59          1           0        2.859101    4.230528   -6.102375
     60          6           0        4.597589    3.992186   -4.853102
     61          1           0        4.684483    5.063956   -5.076413
     62          1           0        4.537905    3.894546   -3.766766
     63          7           0        5.833448    3.273900   -5.268440
     64          1           0        6.634155    3.638476   -4.753332
     65          1           0        5.576769    1.690026   -4.930362
     66          1           0        6.022006    3.440520   -6.257097
     67          8           0        4.930357    1.710561   -2.628823
 ---------------------------------------------------------------------

 SCF Done:  E(RB3LYP) =  -1396.64244452     A.U. after    1 cycles

 Alpha  occ. eigenvalues --  -19.28371 -19.22218 -19.22148 -19.19566 -19.19400
 Alpha  occ. eigenvalues --  -14.61812 -14.50285 -14.45429 -14.43279 -14.41386
 Alpha  occ. eigenvalues --  -10.45144 -10.42253 -10.39145 -10.37323 -10.36472
 Alpha  occ. eigenvalues --  -10.34898 -10.31485 -10.29871 -10.28730 -10.28106
 Alpha  occ. eigenvalues --  -10.27981 -10.27213 -10.25287 -10.25258 -10.25125
 Alpha  occ. eigenvalues --  -10.25074 -10.25015 -10.24506 -10.24383  -1.20772
 Alpha  occ. eigenvalues --   -1.15368  -1.14780  -1.14039  -1.11245  -1.06981
 Alpha  occ. eigenvalues --   -1.06252  -1.02069  -0.99749  -0.96671  -0.92389
 Alpha  occ. eigenvalues --   -0.89700  -0.88341  -0.86133  -0.84990  -0.82021
 Alpha  occ. eigenvalues --   -0.79006  -0.76595  -0.76160  -0.75838  -0.75768
 Alpha  occ. eigenvalues --   -0.75460  -0.75289  -0.71742  -0.69783  -0.68822
 Alpha  occ. eigenvalues --   -0.67476  -0.66969  -0.65874  -0.65095  -0.65007
 Alpha  occ. eigenvalues --   -0.63935  -0.63128  -0.61972  -0.61021  -0.59411
 Alpha  occ. eigenvalues --   -0.57359  -0.57197  -0.56943  -0.56385  -0.56023
 Alpha  occ. eigenvalues --   -0.54734  -0.53992  -0.53666  -0.53572  -0.53137
 Alpha  occ. eigenvalues --   -0.52494  -0.51993  -0.51849  -0.51178  -0.50070
 Alpha  occ. eigenvalues --   -0.49714  -0.48964  -0.48493  -0.47898  -0.47650
 Alpha  occ. eigenvalues --   -0.47333  -0.46837  -0.46390  -0.46058  -0.45904
 Alpha  occ. eigenvalues --   -0.45162  -0.44907  -0.44403  -0.43298  -0.43164
 Alpha  occ. eigenvalues --   -0.42628  -0.42226  -0.41659  -0.41433  -0.41190
 Alpha  occ. eigenvalues --   -0.40974  -0.40523  -0.39684  -0.39655  -0.39585
 Alpha  occ. eigenvalues --   -0.38857  -0.36348  -0.36217  -0.35203  -0.33713
 Alpha  occ. eigenvalues --   -0.33486  -0.32842  -0.32390
 Alpha virt. eigenvalues --   -0.13388  -0.13092  -0.07899  -0.07514  -0.05936
 Alpha virt. eigenvalues --   -0.05535  -0.04862  -0.02441  -0.01974  -0.00019
 Alpha virt. eigenvalues --    0.00500   0.01125   0.01723   0.01895   0.03138

 Mulliken charges:
               1
     1  N   -0.751441
     2  H    0.422728
     3  H    0.422391
     4  H    0.440652
     5  C   -0.278643
     6  H    0.248932
     7  H    0.248648
     8  C    0.637903
     9  O   -0.529363
    10  N   -0.586005
    11  H    0.373691
    12  C   -0.089748
    13  H    0.194745
    14  C    0.630651
    15  C   -0.261806
    16  H    0.151894
    17  H    0.166856
    18  O   -0.548399
    19  C   -0.071256
    20  H    0.114653
    21  C   -0.447503
    22  H    0.156544
    23  H    0.157010
    24  H    0.145129
    25  C   -0.460197
    26  H    0.153330
    27  H    0.155130
    28  H    0.158083
    29  N   -0.605080
    30  H    0.362149
    31  C   -0.063140
    32  H    0.175509
    33  C    0.623428
    34  C   -0.072952
    35  H    0.145978
    36  O   -0.549498
    37  C   -0.469384
    38  H    0.149868
    39  H    0.164094
    40  H    0.164764
    41  C   -0.444669
    42  H    0.157519
    43  H    0.157029
    44  H    0.136211
    45  N   -0.611579
    46  H    0.358951
    47  C   -0.041197
    48  H    0.193090
    49  C    0.606446
    50  C   -0.265728
    51  H    0.165525
    52  H    0.164068
    53  O   -0.604853
    54  C   -0.286693
    55  H    0.141999
    56  H    0.147103
    57  C   -0.282647
    58  H    0.160089
    59  H    0.150139
    60  C   -0.159179
    61  H    0.149315
    62  H    0.182841
    63  N   -0.775077
    64  H    0.339191
    65  H    0.459852
    66  H    0.330937
    67  O   -0.509027
 Sum of Mulliken charges =   1.00000

 Dipole moment (field-independent basis, Debye):
    X=            -15.6215    Y=              8.8452    Z=             10.1680  Tot=             20.6314
 Quadrupole moment (field-independent basis, Debye-Ang):
   XX=            -34.4044   YY=           -151.4312   ZZ=            -68.6486
   XY=             -4.6492   XZ=           -112.2560   YZ=            -12.7890

 Normal termination of Gaussian 16 at Fri May 27 01:48:41 2022.
