 Gaussian 16, Revision C.01,
 Gaussian 16:  ES64L-G16RevC.01  3-Jul-2019

 -------------------------------------------------------------------
 # B3LYP/6-31G* guess=read geom=check nosymm integral(ultrafinegrid)
 -------------------------------------------------------------------

 ------------------------------------------------------
 Candidate Structure: Conf:231 Charge calc in gas phase
 ------------------------------------------------------
 Structure from the checkpoint file:  "conf-231.chk"
 Charge =  1 Multiplicity = 1

                          Input orientation:
 ---------------------------------------------------------------------
 Center     Atomic      Atomic             Coordinates (Angstroms)
 Number     Number       Type             X           Y           Z
 ---------------------------------------------------------------------
      1          7           0       -5.083824    2.620674    3.636194
      2          1           0       -4.875126    2.683236    4.636498
      3          1           0       -5.896171    3.211659    3.438892
      4          1           0       -5.293461    1.601115    3.365445
      5          6           0       -3.900180    2.906925    2.753083
      6          1           0       -3.038265    3.173004    3.367618
      7          1           0       -4.133562    3.735410    2.082310
      8          6           0       -3.686243    1.571956    1.984296
      9          8           0       -4.474338    0.651350    2.251835
     10          7           0       -2.693263    1.544011    1.110592
     11          1           0       -2.007604    2.301226    1.051676
     12          6           0       -2.247479    0.359653    0.365001
     13          1           0       -2.524117   -0.530110    0.936788
     14          6           0       -0.711586    0.510918    0.288122
     15          6           0       -2.835043    0.303524   -1.065440
     16          1           0       -2.580610    1.249478   -1.561855
     17          1           0       -2.301361   -0.483203   -1.616255
     18          8           0       -0.205571    1.631783    0.422397
     19          6           0       -4.351933    0.046589   -1.172797
     20          1           0       -4.874118    0.805919   -0.571820
     21          6           0       -4.792999    0.221610   -2.634776
     22          1           0       -4.298069   -0.510190   -3.284847
     23          1           0       -5.873698    0.075302   -2.735278
     24          1           0       -4.552161    1.222000   -3.013193
     25          6           0       -4.749601   -1.339521   -0.644115
     26          1           0       -4.226962   -2.132924   -1.193332
     27          1           0       -4.533638   -1.456469    0.423143
     28          1           0       -5.824432   -1.505006   -0.774840
     29          7           0       -0.034822   -0.628617    0.058521
     30          1           0       -0.566700   -1.450701   -0.210299
     31          6           0        1.371148   -0.679684   -0.365703
     32          1           0        1.822969    0.277587   -0.097689
     33          6           0        1.336513   -0.876163   -1.894241
     34          6           0        2.110122   -1.839999    0.345941
     35          1           0        1.536295   -2.753530    0.135131
     36          8           0        0.634876   -1.763150   -2.371841
     37          6           0        3.523884   -2.037251   -0.222057
     38          1           0        4.123793   -1.122348   -0.132663
     39          1           0        4.044613   -2.825407    0.330822
     40          1           0        3.503862   -2.342056   -1.273631
     41          6           0        2.151071   -1.617361    1.863805
     42          1           0        2.748958   -0.732186    2.115677
     43          1           0        2.607223   -2.478429    2.363250
     44          1           0        1.148730   -1.478837    2.282184
     45          7           0        2.111943   -0.018442   -2.619313
     46          1           0        3.829226   -1.075905   -3.114639
     47          6           0        1.983176    0.035702   -4.081555
     48          1           0        1.007690   -0.380960   -4.352605
     49          6           0        3.029833   -0.832766   -4.807684
     50          6           0        2.094751    1.492555   -4.573658
     51          1           0        3.103965    1.855355   -4.341847
     52          1           0        2.026444    1.470672   -5.664305
     53          8           0        2.993192   -1.002851   -6.000024
     54          6           0        1.021366    2.422731   -3.960005
     55          1           0        0.511348    1.900632   -3.141460
     56          1           0        0.246189    2.631051   -4.706685
     57          6           0        1.545881    3.767246   -3.421425
     58          1           0        1.879142    4.403443   -4.251521
     59          1           0        0.704702    4.298862   -2.954083
     60          6           0        2.704572    3.681835   -2.416070
     61          1           0        3.634547    3.420940   -2.933693
     62          1           0        2.862741    4.682310   -1.984994
     63          7           0        2.486890    2.650009   -1.378367
     64          1           0        3.222070    2.724182   -0.675655
     65          1           0        1.608900    2.810460   -0.881705
     66          1           0        2.386167    0.864656   -2.147084
     67          8           0        4.005858   -1.352547   -4.034577
 ---------------------------------------------------------------------

 SCF Done:  E(RB3LYP) =  -1396.63330450     A.U. after    1 cycles

 Alpha  occ. eigenvalues --  -19.29560 -19.24389 -19.24246 -19.20314 -19.18156
 Alpha  occ. eigenvalues --  -14.62960 -14.51813 -14.47602 -14.43628 -14.41570
 Alpha  occ. eigenvalues --  -10.46446 -10.43470 -10.41111 -10.37175 -10.36749
 Alpha  occ. eigenvalues --  -10.36346 -10.32515 -10.30391 -10.29887 -10.29322
 Alpha  occ. eigenvalues --  -10.28950 -10.28384 -10.26376 -10.26215 -10.26148
 Alpha  occ. eigenvalues --  -10.26078 -10.25994 -10.25771 -10.25719  -1.21998
 Alpha  occ. eigenvalues --   -1.16599  -1.15822  -1.15040  -1.12067  -1.08417
 Alpha  occ. eigenvalues --   -1.06782  -1.04011  -1.00350  -0.97300  -0.93648
 Alpha  occ. eigenvalues --   -0.90856  -0.89663  -0.87271  -0.86208  -0.82955
 Alpha  occ. eigenvalues --   -0.80060  -0.77662  -0.77059  -0.76851  -0.76819
 Alpha  occ. eigenvalues --   -0.76594  -0.76171  -0.73235  -0.70909  -0.70080
 Alpha  occ. eigenvalues --   -0.69076  -0.67160  -0.66308  -0.66053  -0.65640
 Alpha  occ. eigenvalues --   -0.65007  -0.64720  -0.63168  -0.62172  -0.60826
 Alpha  occ. eigenvalues --   -0.59392  -0.58849  -0.58368  -0.57994  -0.57384
 Alpha  occ. eigenvalues --   -0.56072  -0.55477  -0.54770  -0.54625  -0.54186
 Alpha  occ. eigenvalues --   -0.53084  -0.52674  -0.52586  -0.51259  -0.51052
 Alpha  occ. eigenvalues --   -0.50645  -0.49453  -0.49220  -0.48988  -0.48571
 Alpha  occ. eigenvalues --   -0.48412  -0.47653  -0.47230  -0.46980  -0.46398
 Alpha  occ. eigenvalues --   -0.46201  -0.45967  -0.44897  -0.44746  -0.44460
 Alpha  occ. eigenvalues --   -0.43390  -0.43065  -0.42526  -0.42449  -0.42371
 Alpha  occ. eigenvalues --   -0.42085  -0.41704  -0.40976  -0.40923  -0.40378
 Alpha  occ. eigenvalues --   -0.39953  -0.37948  -0.37549  -0.36257  -0.35791
 Alpha  occ. eigenvalues --   -0.34303  -0.33393  -0.31083
 Alpha virt. eigenvalues --   -0.14597  -0.14134  -0.09864  -0.08692  -0.07259
 Alpha virt. eigenvalues --   -0.06724  -0.04091  -0.03685  -0.03268  -0.02123
 Alpha virt. eigenvalues --   -0.01873  -0.00367   0.00567   0.00934   0.01701

 Mulliken charges:
               1
     1  N   -0.750436
     2  H    0.424798
     3  H    0.424887
     4  H    0.442019
     5  C   -0.278707
     6  H    0.248874
     7  H    0.249542
     8  C    0.640413
     9  O   -0.524564
    10  N   -0.585915
    11  H    0.369690
    12  C   -0.091585
    13  H    0.196219
    14  C    0.630391
    15  C   -0.265837
    16  H    0.151814
    17  H    0.174283
    18  O   -0.553291
    19  C   -0.071904
    20  H    0.113200
    21  C   -0.448452
    22  H    0.162608
    23  H    0.159762
    24  H    0.145229
    25  C   -0.461798
    26  H    0.155685
    27  H    0.153095
    28  H    0.162231
    29  N   -0.586012
    30  H    0.355838
    31  C   -0.074870
    32  H    0.173406
    33  C    0.611964
    34  C   -0.082948
    35  H    0.151858
    36  O   -0.525285
    37  C   -0.475864
    38  H    0.144667
    39  H    0.172643
    40  H    0.170900
    41  C   -0.447361
    42  H    0.146631
    43  H    0.166588
    44  H    0.141934
    45  N   -0.700269
    46  H    0.426917
    47  C   -0.063168
    48  H    0.200040
    49  C    0.607982
    50  C   -0.296771
    51  H    0.149603
    52  H    0.193425
    53  O   -0.445485
    54  C   -0.266063
    55  H    0.131004
    56  H    0.153983
    57  C   -0.278615
    58  H    0.160041
    59  H    0.131530
    60  C   -0.137785
    61  H    0.160282
    62  H    0.141955
    63  N   -0.775864
    64  H    0.318653
    65  H    0.330803
    66  H    0.416122
    67  O   -0.574662
 Sum of Mulliken charges =   1.00000

 Dipole moment (field-independent basis, Debye):
    X=            -17.3590    Y=             15.3220    Z=             15.7135  Tot=             27.9824
 Quadrupole moment (field-independent basis, Debye-Ang):
   XX=            -78.7271   YY=           -131.2719   ZZ=           -153.3435
   XY=            -42.3294   XZ=            -43.8040   YZ=             16.4178

 Normal termination of Gaussian 16 at Fri May 27 01:48:41 2022.
