 Gaussian 16, Revision C.01,
 Gaussian 16:  ES64L-G16RevC.01  3-Jul-2019

 -------------------------------------------------------------------
 # B3LYP/6-31G* guess=read geom=check nosymm integral(ultrafinegrid)
 -------------------------------------------------------------------

 ------------------------------------------------------
 Candidate Structure: Conf:123 Charge calc in gas phase
 ------------------------------------------------------
 Structure from the checkpoint file:  "conf-123.chk"
 Charge =  1 Multiplicity = 1

                          Input orientation:
 ---------------------------------------------------------------------
 Center     Atomic      Atomic             Coordinates (Angstroms)
 Number     Number       Type             X           Y           Z
 ---------------------------------------------------------------------
      1          7           0       -4.880946    0.603856    5.059409
      2          1           0       -4.570789    0.104688    5.897457
      3          1           0       -5.697209    1.170499    5.304590
      4          1           0       -5.132636   -0.098313    4.281639
      5          6           0       -3.786648    1.381118    4.380759
      6          1           0       -2.865203    1.306582    4.960927
      7          1           0       -4.076298    2.429966    4.298988
      8          6           0       -3.664286    0.697626    2.988775
      9          8           0       -4.443724   -0.244994    2.770177
     10          7           0       -2.752835    1.193603    2.171651
     11          1           0       -2.045829    1.862994    2.498407
     12          6           0       -2.355058    0.629285    0.874960
     13          1           0       -2.553900   -0.446109    0.887433
     14          6           0       -0.830021    0.902821    0.815359
     15          6           0       -3.070524    1.309143   -0.314085
     16          1           0       -2.865592    2.386051   -0.250285
     17          1           0       -2.587397    0.958947   -1.236341
     18          8           0       -0.335939    1.734703    1.584221
     19          6           0       -4.589908    1.071829   -0.428694
     20          1           0       -5.058209    1.369445    0.520982
     21          6           0       -5.163071    1.972159   -1.534655
     22          1           0       -4.727580    1.721653   -2.510012
     23          1           0       -6.248248    1.847456   -1.615799
     24          1           0       -4.959424    3.031666   -1.339988
     25          6           0       -4.934496   -0.401811   -0.690467
     26          1           0       -4.460238   -0.756841   -1.614428
     27          1           0       -4.621673   -1.053961    0.131458
     28          1           0       -6.016369   -0.527404   -0.808255
     29          7           0       -0.150533    0.203793   -0.104391
     30          1           0       -0.637231   -0.375786   -0.784506
     31          6           0        1.244967    0.455284   -0.469794
     32          1           0        1.515582    1.444496   -0.087252
     33          6           0        1.247493    0.427709   -2.013065
     34          6           0        2.211491   -0.612979    0.127258
     35          1           0        1.965444   -1.567625   -0.359339
     36          8           0        0.453010   -0.310390   -2.605939
     37          6           0        3.681933   -0.275401   -0.167747
     38          1           0        3.964798    0.682001    0.289093
     39          1           0        4.333086   -1.044123    0.260996
     40          1           0        3.906689   -0.215148   -1.235774
     41          6           0        1.998702   -0.771488    1.640039
     42          1           0        2.182434    0.172148    2.166562
     43          1           0        2.691980   -1.521039    2.036508
     44          1           0        0.982216   -1.100458    1.876811
     45          7           0        2.131433    1.236376   -2.629038
     46          1           0        2.853662    1.708673   -2.090241
     47          6           0        2.443937    1.152115   -4.051873
     48          1           0        2.194489    0.140902   -4.384788
     49          6           0        3.963520    1.355466   -4.186681
     50          6           0        1.665738    2.191711   -4.908978
     51          1           0        1.490630    3.063076   -4.268254
     52          1           0        2.303081    2.541182   -5.729290
     53          8           0        4.462400    1.083958   -5.383996
     54          6           0        0.328852    1.676298   -5.477541
     55          1           0       -0.353520    2.529272   -5.582739
     56          1           0       -0.134297    0.996495   -4.752113
     57          6           0        0.396235    0.990423   -6.855813
     58          1           0       -0.631812    0.744674   -7.150748
     59          1           0        0.753786    1.710672   -7.607530
     60          6           0        1.219495   -0.300776   -6.983391
     61          1           0        1.082530   -0.930093   -6.096415
     62          1           0        0.841099   -0.875528   -7.840675
     63          7           0        2.675821   -0.044362   -7.140576
     64          1           0        3.153298   -0.932426   -7.303031
     65          1           0        2.822320    0.497989   -7.993773
     66          1           0        3.750546    0.702178   -5.996166
     67          8           0        4.638400    1.758657   -3.258951
 ---------------------------------------------------------------------

 SCF Done:  E(RB3LYP) =  -1396.64643318     A.U. after    1 cycles

 Alpha  occ. eigenvalues --  -19.28523 -19.22899 -19.22359 -19.19913 -19.18865
 Alpha  occ. eigenvalues --  -14.61965 -14.50441 -14.45758 -14.43691 -14.42175
 Alpha  occ. eigenvalues --  -10.45300 -10.42378 -10.39386 -10.37198 -10.36953
 Alpha  occ. eigenvalues --  -10.35145 -10.31703 -10.30438 -10.29126 -10.28996
 Alpha  occ. eigenvalues --  -10.28245 -10.27304 -10.25816 -10.25759 -10.25570
 Alpha  occ. eigenvalues --  -10.25552 -10.25022 -10.24604 -10.24193  -1.20914
 Alpha  occ. eigenvalues --   -1.15528  -1.14614  -1.14279  -1.11640  -1.07150
 Alpha  occ. eigenvalues --   -1.06658  -1.02330  -1.00206  -0.97610  -0.92581
 Alpha  occ. eigenvalues --   -0.89902  -0.88517  -0.86771  -0.85193  -0.82572
 Alpha  occ. eigenvalues --   -0.79337  -0.76866  -0.76423  -0.76258  -0.75905
 Alpha  occ. eigenvalues --   -0.75617  -0.75274  -0.71944  -0.70189  -0.68924
 Alpha  occ. eigenvalues --   -0.67753  -0.66800  -0.65383  -0.65297  -0.65262
 Alpha  occ. eigenvalues --   -0.64907  -0.64048  -0.62511  -0.62062  -0.59940
 Alpha  occ. eigenvalues --   -0.58746  -0.57569  -0.57415  -0.56738  -0.55594
 Alpha  occ. eigenvalues --   -0.54970  -0.54431  -0.54309  -0.53762  -0.53637
 Alpha  occ. eigenvalues --   -0.52848  -0.52137  -0.51372  -0.50672  -0.50605
 Alpha  occ. eigenvalues --   -0.49862  -0.49133  -0.48867  -0.48251  -0.47915
 Alpha  occ. eigenvalues --   -0.47716  -0.46742  -0.46589  -0.46372  -0.45936
 Alpha  occ. eigenvalues --   -0.45350  -0.45294  -0.44907  -0.43625  -0.43464
 Alpha  occ. eigenvalues --   -0.43364  -0.42476  -0.41795  -0.41574  -0.41466
 Alpha  occ. eigenvalues --   -0.40984  -0.40617  -0.40508  -0.40276  -0.39855
 Alpha  occ. eigenvalues --   -0.39726  -0.36520  -0.36109  -0.35417  -0.34491
 Alpha  occ. eigenvalues --   -0.33807  -0.33128  -0.32311
 Alpha virt. eigenvalues --   -0.13540  -0.13212  -0.08097  -0.07690  -0.06066
 Alpha virt. eigenvalues --   -0.05791  -0.04114  -0.02603  -0.02142  -0.00795
 Alpha virt. eigenvalues --   -0.00374   0.00953   0.01543   0.01784   0.03059

 Mulliken charges:
               1
     1  N   -0.751237
     2  H    0.423108
     3  H    0.422754
     4  H    0.440358
     5  C   -0.278844
     6  H    0.249525
     7  H    0.249326
     8  C    0.637498
     9  O   -0.529435
    10  N   -0.586065
    11  H    0.374607
    12  C   -0.089665
    13  H    0.193972
    14  C    0.632795
    15  C   -0.260794
    16  H    0.153762
    17  H    0.163531
    18  O   -0.546581
    19  C   -0.071413
    20  H    0.115984
    21  C   -0.447283
    22  H    0.154369
    23  H    0.157360
    24  H    0.146805
    25  C   -0.459746
    26  H    0.150335
    27  H    0.155709
    28  H    0.158583
    29  N   -0.606553
    30  H    0.359749
    31  C   -0.059105
    32  H    0.179404
    33  C    0.617356
    34  C   -0.075421
    35  H    0.143903
    36  O   -0.553169
    37  C   -0.471458
    38  H    0.153094
    39  H    0.163364
    40  H    0.168580
    41  C   -0.445539
    42  H    0.159263
    43  H    0.158085
    44  H    0.133807
    45  N   -0.602609
    46  H    0.361702
    47  C   -0.081678
    48  H    0.185641
    49  C    0.602099
    50  C   -0.266879
    51  H    0.157743
    52  H    0.155603
    53  O   -0.608299
    54  C   -0.282595
    55  H    0.142088
    56  H    0.170081
    57  C   -0.267153
    58  H    0.152311
    59  H    0.139295
    60  C   -0.148792
    61  H    0.169187
    62  H    0.148722
    63  N   -0.776547
    64  H    0.336178
    65  H    0.332065
    66  H    0.474091
    67  O   -0.476931
 Sum of Mulliken charges =   1.00000

 Dipole moment (field-independent basis, Debye):
    X=            -17.9593    Y=              2.8732    Z=             10.3412  Tot=             20.9220
 Quadrupole moment (field-independent basis, Debye-Ang):
   XX=           -107.6897   YY=           -168.8710   ZZ=             -7.7839
   XY=            -31.1977   XZ=            -90.4263   YZ=             18.5711

 Normal termination of Gaussian 16 at Fri May 27 01:48:42 2022.
