 Gaussian 16, Revision C.01,
 Gaussian 16:  ES64L-G16RevC.01  3-Jul-2019

 -------------------------------------------------------------------
 # B3LYP/6-31G* guess=read geom=check nosymm integral(ultrafinegrid)
 -------------------------------------------------------------------

 ------------------------------------------------------
 Candidate Structure: Conf:549 Charge calc in gas phase
 ------------------------------------------------------
 Structure from the checkpoint file:  "conf-549.chk"
 Charge =  1 Multiplicity = 1

                          Input orientation:
 ---------------------------------------------------------------------
 Center     Atomic      Atomic             Coordinates (Angstroms)
 Number     Number       Type             X           Y           Z
 ---------------------------------------------------------------------
      1          7           0       -5.591827    0.858557    4.035761
      2          1           0       -5.378183    0.565130    4.992718
      3          1           0       -6.514280    1.301748    4.031875
      4          1           0       -5.582601    0.006177    3.374586
      5          6           0       -4.514325    1.698493    3.407040
      6          1           0       -3.718496    1.882318    4.130948
      7          1           0       -4.932905    2.652489    3.082556
      8          6           0       -4.032545    0.832339    2.207868
      9          8           0       -4.609936   -0.257254    2.053021
     10          7           0       -3.067633    1.344084    1.465996
     11          1           0       -2.539162    2.172060    1.766963
     12          6           0       -2.356116    0.658905    0.378432
     13          1           0       -2.388696   -0.418255    0.564869
     14          6           0       -0.905151    1.191479    0.507179
     15          6           0       -2.934088    0.994673   -1.014576
     16          1           0       -2.905301    2.086372   -1.129752
     17          1           0       -2.243399    0.587931   -1.765293
     18          8           0       -0.691836    2.209462    1.177868
     19          6           0       -4.354299    0.474157   -1.314787
     20          1           0       -5.028845    0.835150   -0.524481
     21          6           0       -4.839943    1.063570   -2.648614
     22          1           0       -4.199579    0.738533   -3.478025
     23          1           0       -5.860782    0.734971   -2.871493
     24          1           0       -4.834894    2.159798   -2.632305
     25          6           0       -4.422822   -1.060032   -1.338425
     26          1           0       -3.739356   -1.471138   -2.092320
     27          1           0       -4.173388   -1.501988   -0.368312
     28          1           0       -5.433860   -1.394588   -1.595387
     29          7           0        0.028827    0.502537   -0.156149
     30          1           0       -0.199277   -0.295816   -0.747855
     31          6           0        1.428056    0.908167   -0.267009
     32          1           0        1.462134    1.997228   -0.386808
     33          6           0        1.926784    0.214090   -1.553985
     34          6           0        2.236127    0.532953    1.014596
     35          1           0        1.631752    0.937617    1.836546
     36          8           0        1.297275   -0.737410   -2.026548
     37          6           0        2.365085   -0.984238    1.205375
     38          1           0        2.988458   -1.437112    0.425850
     39          1           0        2.831989   -1.204875    2.171283
     40          1           0        1.389336   -1.481452    1.183716
     41          6           0        3.603740    1.229730    1.072397
     42          1           0        4.304324    0.836742    0.327909
     43          1           0        4.059310    1.073122    2.055915
     44          1           0        3.513403    2.312954    0.923363
     45          7           0        3.060693    0.698469   -2.092521
     46          1           0        3.555719    1.479734   -1.675384
     47          6           0        3.734788    0.093977   -3.234450
     48          1           0        3.589293   -0.988243   -3.206515
     49          6           0        5.211847    0.442331   -3.139552
     50          6           0        3.178835    0.660332   -4.579563
     51          1           0        2.123829    0.369571   -4.610529
     52          1           0        3.197831    1.755427   -4.503260
     53          8           0        5.970780   -0.400086   -3.827058
     54          6           0        3.900851    0.192123   -5.872109
     55          1           0        3.145080   -0.180387   -6.573468
     56          1           0        4.550084   -0.658651   -5.650896
     57          6           0        4.692174    1.280968   -6.634379
     58          1           0        5.068307    0.837122   -7.567925
     59          1           0        3.986237    2.062616   -6.947282
     60          6           0        5.854794    2.016691   -5.946693
     61          1           0        6.150346    2.847598   -6.603038
     62          1           0        5.533667    2.461026   -4.999446
     63          7           0        7.028847    1.156041   -5.640122
     64          1           0        7.810665    1.743169   -5.351017
     65          1           0        6.633736    0.148917   -4.399700
     66          1           0        7.332872    0.664126   -6.481050
     67          8           0        5.594993    1.462824   -2.587594
 ---------------------------------------------------------------------

 SCF Done:  E(RB3LYP) =  -1396.64473046     A.U. after    2 cycles

 Alpha  occ. eigenvalues --  -19.28294 -19.22032 -19.21811 -19.19472 -19.19318
 Alpha  occ. eigenvalues --  -14.61731 -14.50180 -14.45265 -14.43435 -14.41455
 Alpha  occ. eigenvalues --  -10.45058 -10.42170 -10.39018 -10.37079 -10.36613
 Alpha  occ. eigenvalues --  -10.34816 -10.31512 -10.29850 -10.28668 -10.28288
 Alpha  occ. eigenvalues --  -10.27921 -10.27071 -10.25486 -10.25304 -10.25232
 Alpha  occ. eigenvalues --  -10.25209 -10.24429 -10.24410 -10.24271  -1.20691
 Alpha  occ. eigenvalues --   -1.15284  -1.14318  -1.13925  -1.11331  -1.06888
 Alpha  occ. eigenvalues --   -1.06017  -1.01927  -0.99900  -0.96810  -0.92311
 Alpha  occ. eigenvalues --   -0.89625  -0.88253  -0.86163  -0.84910  -0.82105
 Alpha  occ. eigenvalues --   -0.78985  -0.76538  -0.76102  -0.75849  -0.75693
 Alpha  occ. eigenvalues --   -0.75381  -0.75337  -0.71664  -0.70115  -0.69041
 Alpha  occ. eigenvalues --   -0.68120  -0.67111  -0.65146  -0.64978  -0.64043
 Alpha  occ. eigenvalues --   -0.63937  -0.63002  -0.61912  -0.61342  -0.59163
 Alpha  occ. eigenvalues --   -0.57662  -0.57292  -0.57132  -0.56096  -0.55788
 Alpha  occ. eigenvalues --   -0.54435  -0.53986  -0.53524  -0.53278  -0.52707
 Alpha  occ. eigenvalues --   -0.52400  -0.51854  -0.51628  -0.51099  -0.50659
 Alpha  occ. eigenvalues --   -0.50294  -0.49422  -0.48141  -0.48057  -0.47773
 Alpha  occ. eigenvalues --   -0.47489  -0.47136  -0.46320  -0.45711  -0.45339
 Alpha  occ. eigenvalues --   -0.45028  -0.44773  -0.44175  -0.43429  -0.43214
 Alpha  occ. eigenvalues --   -0.42276  -0.41863  -0.41544  -0.41336  -0.41164
 Alpha  occ. eigenvalues --   -0.40752  -0.40654  -0.40070  -0.39761  -0.39572
 Alpha  occ. eigenvalues --   -0.39243  -0.36130  -0.35559  -0.34904  -0.33831
 Alpha  occ. eigenvalues --   -0.33615  -0.32844  -0.31932
 Alpha virt. eigenvalues --   -0.13307  -0.13022  -0.07833  -0.07446  -0.05852
 Alpha virt. eigenvalues --   -0.05555  -0.04793  -0.02364  -0.01898   0.00111
 Alpha virt. eigenvalues --    0.00189   0.01253   0.01561   0.01994   0.03365

 Mulliken charges:
               1
     1  N   -0.751540
     2  H    0.422535
     3  H    0.422282
     4  H    0.440577
     5  C   -0.278602
     6  H    0.248676
     7  H    0.248758
     8  C    0.637577
     9  O   -0.529677
    10  N   -0.585905
    11  H    0.373896
    12  C   -0.088000
    13  H    0.194315
    14  C    0.634624
    15  C   -0.259100
    16  H    0.152417
    17  H    0.163876
    18  O   -0.553288
    19  C   -0.071356
    20  H    0.114675
    21  C   -0.447304
    22  H    0.155697
    23  H    0.156858
    24  H    0.145863
    25  C   -0.459767
    26  H    0.152343
    27  H    0.155585
    28  H    0.157791
    29  N   -0.618731
    30  H    0.366808
    31  C   -0.054509
    32  H    0.175329
    33  C    0.627149
    34  C   -0.073373
    35  H    0.154721
    36  O   -0.551889
    37  C   -0.456621
    38  H    0.163961
    39  H    0.156569
    40  H    0.142528
    41  C   -0.474072
    42  H    0.165173
    43  H    0.162985
    44  H    0.150748
    45  N   -0.617254
    46  H    0.357676
    47  C   -0.030897
    48  H    0.192282
    49  C    0.590736
    50  C   -0.279979
    51  H    0.170498
    52  H    0.144697
    53  O   -0.603030
    54  C   -0.279793
    55  H    0.148126
    56  H    0.176124
    57  C   -0.278268
    58  H    0.141205
    59  H    0.150385
    60  C   -0.155303
    61  H    0.149973
    62  H    0.176716
    63  N   -0.774702
    64  H    0.340628
    65  H    0.458346
    66  H    0.330127
    67  O   -0.498869
 Sum of Mulliken charges =   1.00000

 Dipole moment (field-independent basis, Debye):
    X=            -14.2234    Y=              7.1204    Z=              7.2813  Tot=             17.4935
 Quadrupole moment (field-independent basis, Debye-Ang):
   XX=            -21.7976   YY=           -169.4128   ZZ=            -58.5618
   XY=            -15.6843   XZ=           -122.2961   YZ=              2.2233

 Normal termination of Gaussian 16 at Fri May 27 01:48:55 2022.
