 Gaussian 16, Revision C.01,
 Gaussian 16:  ES64L-G16RevC.01  3-Jul-2019

 -------------------------------------------------------------------
 # B3LYP/6-31G* guess=read geom=check nosymm integral(ultrafinegrid)
 -------------------------------------------------------------------

 ------------------------------------------------------
 Candidate Structure: Conf:950 Charge calc in gas phase
 ------------------------------------------------------
 Structure from the checkpoint file:  "conf-950.chk"
 Charge =  1 Multiplicity = 1

                          Input orientation:
 ---------------------------------------------------------------------
 Center     Atomic      Atomic             Coordinates (Angstroms)
 Number     Number       Type             X           Y           Z
 ---------------------------------------------------------------------
      1          7           0       -5.554700   -1.510144    3.934753
      2          1           0       -6.374535   -1.021994    4.304456
      3          1           0       -5.664237   -1.679691    2.872530
      4          1           0       -5.459540   -2.401982    4.427523
      5          6           0       -4.301272   -0.679572    3.941214
      6          1           0       -3.530272   -1.176870    4.532034
      7          1           0       -4.510145    0.300244    4.373886
      8          6           0       -3.924719   -0.587885    2.434647
      9          8           0       -4.691821   -1.162825    1.641576
     10          7           0       -2.832190    0.085881    2.135821
     11          1           0       -2.217074    0.507390    2.841576
     12          6           0       -2.287957    0.274178    0.783920
     13          1           0       -2.339154   -0.681675    0.254704
     14          6           0       -0.816945    0.676368    1.053370
     15          6           0       -3.089817    1.358237    0.020381
     16          1           0       -4.150491    1.089607    0.109270
     17          1           0       -2.953528    2.310086    0.550031
     18          8           0       -0.504653    1.098527    2.174495
     19          6           0       -2.761733    1.544114   -1.476801
     20          1           0       -1.703217    1.815658   -1.579518
     21          6           0       -3.014251    0.270295   -2.299207
     22          1           0       -4.057407   -0.057828   -2.206293
     23          1           0       -2.814081    0.454464   -3.359559
     24          1           0       -2.374436   -0.568201   -1.997828
     25          6           0       -3.590576    2.714835   -2.029288
     26          1           0       -4.665506    2.502525   -1.966022
     27          1           0       -3.397198    3.641289   -1.476188
     28          1           0       -3.349614    2.896611   -3.081888
     29          7           0        0.033620    0.539736    0.030484
     30          1           0       -0.274408    0.255233   -0.898055
     31          6           0        1.422227    0.993289    0.055879
     32          1           0        1.468961    1.918774    0.640968
     33          6           0        1.759716    1.281376   -1.424006
     34          6           0        2.353537   -0.059375    0.734559
     35          1           0        1.849338   -0.284931    1.683131
     36          8           0        1.048402    0.819024   -2.322076
     37          6           0        2.465211   -1.356390   -0.077922
     38          1           0        2.988538   -1.193537   -1.027190
     39          1           0        3.029144   -2.107561    0.485391
     40          1           0        1.480966   -1.779322   -0.306395
     41          6           0        3.736133    0.512809    1.081734
     42          1           0        4.346598    0.700568    0.191973
     43          1           0        4.287363   -0.200174    1.703984
     44          1           0        3.656621    1.448083    1.649835
     45          7           0        2.849440    2.036575   -1.652102
     46          1           0        3.414483    2.395501   -0.889732
     47          6           0        3.380446    2.307893   -2.982219
     48          1           0        3.177070    1.449205   -3.625306
     49          6           0        4.884375    2.507598   -2.850774
     50          6           0        2.732731    3.585788   -3.608843
     51          1           0        1.733715    3.291180   -3.946633
     52          1           0        2.589652    4.314190   -2.800718
     53          8           0        5.516835    2.243309   -3.982790
     54          6           0        3.520434    4.247356   -4.763524
     55          1           0        2.804577    4.760562   -5.415808
     56          1           0        3.987812    3.470215   -5.375583
     57          6           0        4.585242    5.280046   -4.291781
     58          1           0        4.142017    6.281443   -4.343491
     59          1           0        4.824393    5.125851   -3.232120
     60          6           0        5.910603    5.303377   -5.081655
     61          1           0        5.744888    4.983252   -6.116107
     62          1           0        6.298326    6.330355   -5.123040
     63          7           0        6.928329    4.391304   -4.492292
     64          1           0        7.750544    4.345846   -5.093307
     65          1           0        7.244725    4.764258   -3.596636
     66          1           0        6.275125    2.933727   -4.122411
     67          8           0        5.390233    2.961262   -1.834447
 ---------------------------------------------------------------------

 SCF Done:  E(RB3LYP) =  -1396.64551962     A.U. after    3 cycles

 Alpha  occ. eigenvalues --  -19.28051 -19.21983 -19.21877 -19.19457 -19.19201
 Alpha  occ. eigenvalues --  -14.61496 -14.50041 -14.45197 -14.43440 -14.41419
 Alpha  occ. eigenvalues --  -10.44806 -10.42010 -10.38907 -10.37038 -10.36592
 Alpha  occ. eigenvalues --  -10.34676 -10.31438 -10.29746 -10.28477 -10.28445
 Alpha  occ. eigenvalues --  -10.27452 -10.27040 -10.25375 -10.25198 -10.24882
 Alpha  occ. eigenvalues --  -10.24846 -10.24460 -10.24378 -10.24234  -1.20481
 Alpha  occ. eigenvalues --   -1.15058  -1.14338  -1.13806  -1.11278  -1.06708
 Alpha  occ. eigenvalues --   -1.05964  -1.01828  -0.99871  -0.96787  -0.92064
 Alpha  occ. eigenvalues --   -0.89477  -0.88081  -0.86121  -0.84591  -0.81899
 Alpha  occ. eigenvalues --   -0.78987  -0.76592  -0.75886  -0.75838  -0.75503
 Alpha  occ. eigenvalues --   -0.75305  -0.75131  -0.71442  -0.69267  -0.68863
 Alpha  occ. eigenvalues --   -0.68043  -0.66881  -0.65550  -0.65125  -0.64269
 Alpha  occ. eigenvalues --   -0.63886  -0.63184  -0.61508  -0.60971  -0.59080
 Alpha  occ. eigenvalues --   -0.57836  -0.57234  -0.56584  -0.55945  -0.55286
 Alpha  occ. eigenvalues --   -0.54346  -0.54089  -0.53845  -0.53514  -0.52660
 Alpha  occ. eigenvalues --   -0.51852  -0.51706  -0.51390  -0.51085  -0.50512
 Alpha  occ. eigenvalues --   -0.50033  -0.49228  -0.48069  -0.47841  -0.47521
 Alpha  occ. eigenvalues --   -0.47398  -0.46490  -0.46273  -0.46082  -0.45541
 Alpha  occ. eigenvalues --   -0.44912  -0.44544  -0.44052  -0.43239  -0.42765
 Alpha  occ. eigenvalues --   -0.42523  -0.42132  -0.41414  -0.41090  -0.40826
 Alpha  occ. eigenvalues --   -0.40697  -0.40554  -0.39902  -0.39495  -0.39263
 Alpha  occ. eigenvalues --   -0.38936  -0.36092  -0.35699  -0.34837  -0.33778
 Alpha  occ. eigenvalues --   -0.33739  -0.32823  -0.31849
 Alpha virt. eigenvalues --   -0.13090  -0.12863  -0.07848  -0.07267  -0.05702
 Alpha virt. eigenvalues --   -0.05507  -0.04536  -0.02152  -0.01288  -0.00294
 Alpha virt. eigenvalues --    0.00670   0.01303   0.01559   0.02658   0.03326

 Mulliken charges:
               1
     1  N   -0.752192
     2  H    0.421615
     3  H    0.440671
     4  H    0.421791
     5  C   -0.276408
     6  H    0.247462
     7  H    0.247526
     8  C    0.642044
     9  O   -0.535063
    10  N   -0.603445
    11  H    0.376856
    12  C   -0.069336
    13  H    0.192381
    14  C    0.628323
    15  C   -0.258905
    16  H    0.158079
    17  H    0.152403
    18  O   -0.553052
    19  C   -0.098133
    20  H    0.148446
    21  C   -0.453795
    22  H    0.150141
    23  H    0.171355
    24  H    0.138853
    25  C   -0.447743
    26  H    0.145929
    27  H    0.148563
    28  H    0.162436
    29  N   -0.622252
    30  H    0.377600
    31  C   -0.060548
    32  H    0.176739
    33  C    0.628310
    34  C   -0.071416
    35  H    0.154283
    36  O   -0.553126
    37  C   -0.457022
    38  H    0.163407
    39  H    0.157374
    40  H    0.142862
    41  C   -0.475325
    42  H    0.165517
    43  H    0.163267
    44  H    0.150682
    45  N   -0.616600
    46  H    0.357278
    47  C   -0.017625
    48  H    0.192929
    49  C    0.580251
    50  C   -0.279624
    51  H    0.166967
    52  H    0.146438
    53  O   -0.600065
    54  C   -0.283435
    55  H    0.147387
    56  H    0.171326
    57  C   -0.291301
    58  H    0.152505
    59  H    0.160260
    60  C   -0.144311
    61  H    0.166338
    62  H    0.151183
    63  N   -0.777427
    64  H    0.335943
    65  H    0.340548
    66  H    0.459150
    67  O   -0.505269
 Sum of Mulliken charges =   1.00000

 Dipole moment (field-independent basis, Debye):
    X=            -13.0042    Y=              1.8047    Z=             10.1263  Tot=             16.5803
 Quadrupole moment (field-independent basis, Debye-Ang):
   XX=            -26.7352   YY=           -131.4423   ZZ=            -84.7553
   XY=             57.5212   XZ=           -113.4623   YZ=            -54.6790

 Normal termination of Gaussian 16 at Fri May 27 02:06:13 2022.
