 Gaussian 16, Revision C.01,
 Gaussian 16:  ES64L-G16RevC.01  3-Jul-2019

 -------------------------------------------------------------------
 # B3LYP/6-31G* guess=read geom=check nosymm integral(ultrafinegrid)
 -------------------------------------------------------------------

 ------------------------------------------------------
 Candidate Structure: Conf:448 Charge calc in gas phase
 ------------------------------------------------------
 Structure from the checkpoint file:  "conf-448.chk"
 Charge =  1 Multiplicity = 1

                          Input orientation:
 ---------------------------------------------------------------------
 Center     Atomic      Atomic             Coordinates (Angstroms)
 Number     Number       Type             X           Y           Z
 ---------------------------------------------------------------------
      1          7           0       -0.353860    5.418510    0.575479
      2          1           0       -0.541702    5.403339    1.580877
      3          1           0        0.918580    4.495976    0.249828
      4          1           0       -0.204716    6.391109    0.309668
      5          6           0       -1.543178    4.870043   -0.109456
      6          1           0       -1.283530    4.657572   -1.148364
      7          1           0       -2.391056    5.567601   -0.088310
      8          6           0       -1.968368    3.610659    0.653088
      9          8           0       -2.142109    3.658902    1.864191
     10          7           0       -2.153439    2.495475   -0.113811
     11          1           0       -1.732859    2.516605   -1.035753
     12          6           0       -2.418355    1.180469    0.480440
     13          1           0       -2.492666    1.350639    1.555414
     14          6           0       -1.147617    0.327870    0.305128
     15          6           0       -3.713731    0.545724   -0.053064
     16          1           0       -3.656709    0.446707   -1.148954
     17          1           0       -3.788838   -0.474002    0.350521
     18          8           0       -0.254628    0.334338    1.156060
     19          6           0       -5.003870    1.322325    0.286050
     20          1           0       -4.901113    2.332757   -0.133935
     21          6           0       -6.206020    0.648506   -0.392825
     22          1           0       -6.361113   -0.366339   -0.004650
     23          1           0       -7.124986    1.215551   -0.209696
     24          1           0       -6.070170    0.574957   -1.478921
     25          6           0       -5.231486    1.455160    1.800053
     26          1           0       -5.264994    0.469306    2.282232
     27          1           0       -4.452119    2.050167    2.286934
     28          1           0       -6.188890    1.949661    1.997654
     29          7           0       -1.023052   -0.369610   -0.859889
     30          1           0       -1.763991   -0.327344   -1.545147
     31          6           0        0.160541   -1.177077   -1.172161
     32          1           0        0.508868   -1.578499   -0.213898
     33          6           0        1.274991   -0.226101   -1.687646
     34          6           0       -0.192273   -2.380437   -2.075223
     35          1           0       -0.922837   -2.952787   -1.486817
     36          8           0        1.569798   -0.165843   -2.898221
     37          6           0       -0.859815   -2.025688   -3.415267
     38          1           0       -0.196274   -1.433310   -4.048903
     39          1           0       -1.120793   -2.945863   -3.948744
     40          1           0       -1.796150   -1.467494   -3.289279
     41          6           0        1.034109   -3.283589   -2.281737
     42          1           0        1.795279   -2.787065   -2.892483
     43          1           0        0.742316   -4.206186   -2.793606
     44          1           0        1.491257   -3.566596   -1.326301
     45          7           0        1.851493    0.478509   -0.693937
     46          1           0        1.384062    0.334620    0.208739
     47          6           0        2.540719    1.777286   -0.752992
     48          1           0        3.115124    1.854433    0.174095
     49          6           0        1.465355    2.887314   -0.742168
     50          6           0        3.485276    1.979670   -1.944757
     51          1           0        2.874477    2.038630   -2.849583
     52          1           0        3.942861    2.969585   -1.824559
     53          8           0        0.508724    2.842885   -1.507115
     54          6           0        4.596918    0.919906   -2.048415
     55          1           0        4.186788   -0.079440   -1.857668
     56          1           0        5.323761    1.101705   -1.249314
     57          6           0        5.336745    0.921368   -3.402406
     58          1           0        5.437089    1.945517   -3.788328
     59          1           0        6.360789    0.554290   -3.267685
     60          6           0        4.724895    0.019416   -4.473737
     61          1           0        5.295656    0.058800   -5.405014
     62          1           0        4.679111   -1.019461   -4.136270
     63          7           0        3.297631    0.398703   -4.809541
     64          1           0        2.928150   -0.187657   -5.564646
     65          1           0        2.644670    0.268994   -3.967752
     66          1           0        3.235121    1.372681   -5.121398
     67          8           0        1.716184    3.818130    0.145862
 ---------------------------------------------------------------------

 SCF Done:  E(RB3LYP) =  -1396.66886819     A.U. after    1 cycles

 Alpha  occ. eigenvalues --  -19.25971 -19.25416 -19.22710 -19.22008 -19.20185
 Alpha  occ. eigenvalues --  -14.58638 -14.47292 -14.47031 -14.44961 -14.44276
 Alpha  occ. eigenvalues --  -10.41566 -10.40936 -10.39089 -10.38997 -10.37473
 Alpha  occ. eigenvalues --  -10.34597 -10.34221 -10.33084 -10.31827 -10.31308
 Alpha  occ. eigenvalues --  -10.31242 -10.31182 -10.29917 -10.27279 -10.27263
 Alpha  occ. eigenvalues --  -10.27205 -10.26113 -10.23877 -10.23300  -1.18007
 Alpha  occ. eigenvalues --   -1.16190  -1.13899  -1.13311  -1.12083  -1.09424
 Alpha  occ. eigenvalues --   -1.04410  -1.02984  -1.01159  -0.99586  -0.93911
 Alpha  occ. eigenvalues --   -0.90948  -0.89586  -0.88565  -0.84483  -0.83540
 Alpha  occ. eigenvalues --   -0.80711  -0.78484  -0.78132  -0.77348  -0.74595
 Alpha  occ. eigenvalues --   -0.74129  -0.73227  -0.72527  -0.71409  -0.70513
 Alpha  occ. eigenvalues --   -0.69029  -0.67783  -0.67218  -0.66544  -0.64719
 Alpha  occ. eigenvalues --   -0.63826  -0.62947  -0.62055  -0.60991  -0.60325
 Alpha  occ. eigenvalues --   -0.59592  -0.58824  -0.58257  -0.57465  -0.56890
 Alpha  occ. eigenvalues --   -0.56022  -0.55748  -0.55356  -0.54493  -0.54274
 Alpha  occ. eigenvalues --   -0.53370  -0.53131  -0.52639  -0.52214  -0.51919
 Alpha  occ. eigenvalues --   -0.51357  -0.50921  -0.50323  -0.49830  -0.49664
 Alpha  occ. eigenvalues --   -0.49064  -0.48247  -0.48160  -0.47596  -0.47555
 Alpha  occ. eigenvalues --   -0.47157  -0.46485  -0.45878  -0.45849  -0.45545
 Alpha  occ. eigenvalues --   -0.44888  -0.44725  -0.43965  -0.43888  -0.43631
 Alpha  occ. eigenvalues --   -0.43372  -0.40522  -0.40139  -0.39557  -0.39406
 Alpha  occ. eigenvalues --   -0.39260  -0.38764  -0.37151  -0.36710  -0.35723
 Alpha  occ. eigenvalues --   -0.35418  -0.34041  -0.33059
 Alpha virt. eigenvalues --   -0.11691  -0.10655  -0.09132  -0.07229  -0.05903
 Alpha virt. eigenvalues --   -0.05388  -0.03344  -0.03167  -0.01950  -0.01429
 Alpha virt. eigenvalues --   -0.00189  -0.00020   0.01182   0.01726   0.02175

 Mulliken charges:
               1
     1  N   -0.788081
     2  H    0.361357
     3  H    0.476147
     4  H    0.342997
     5  C   -0.221772
     6  H    0.175912
     7  H    0.186677
     8  C    0.605116
     9  O   -0.499014
    10  N   -0.599204
    11  H    0.351926
    12  C   -0.072819
    13  H    0.225251
    14  C    0.619149
    15  C   -0.271801
    16  H    0.113315
    17  H    0.152589
    18  O   -0.531163
    19  C   -0.070035
    20  H    0.134504
    21  C   -0.446792
    22  H    0.147499
    23  H    0.158813
    24  H    0.137151
    25  C   -0.467978
    26  H    0.143814
    27  H    0.174621
    28  H    0.156708
    29  N   -0.614884
    30  H    0.350226
    31  C   -0.069815
    32  H    0.193317
    33  C    0.662022
    34  C   -0.093273
    35  H    0.158848
    36  O   -0.601035
    37  C   -0.463655
    38  H    0.156918
    39  H    0.167663
    40  H    0.138631
    41  C   -0.458618
    42  H    0.134652
    43  H    0.168286
    44  H    0.158229
    45  N   -0.602435
    46  H    0.399392
    47  C   -0.035990
    48  H    0.192107
    49  C    0.596229
    50  C   -0.297174
    51  H    0.131130
    52  H    0.181290
    53  O   -0.523419
    54  C   -0.286090
    55  H    0.163776
    56  H    0.180640
    57  C   -0.289820
    58  H    0.167311
    59  H    0.196840
    60  C   -0.197498
    61  H    0.209543
    62  H    0.214431
    63  N   -0.771965
    64  H    0.407476
    65  H    0.472909
    66  H    0.400325
    67  O   -0.591408
 Sum of Mulliken charges =   1.00000

 Dipole moment (field-independent basis, Debye):
    X=             10.0583    Y=              4.3599    Z=            -17.9414  Tot=             21.0255
 Quadrupole moment (field-independent basis, Debye-Ang):
   XX=           -101.9344   YY=           -130.7960   ZZ=           -102.6671
   XY=              3.1908   XZ=            -53.3334   YZ=             -6.4187

 Normal termination of Gaussian 16 at Fri May 27 01:48:49 2022.
