 Gaussian 16, Revision C.01,
 Gaussian 16:  ES64L-G16RevC.01  3-Jul-2019

 -------------------------------------------------------------------
 # B3LYP/6-31G* guess=read geom=check nosymm integral(ultrafinegrid)
 -------------------------------------------------------------------

 -----------------------------------------------------
 Candidate Structure: Conf:81 Charge calc in gas phase
 -----------------------------------------------------
 Structure from the checkpoint file:  "conf-81.chk"
 Charge =  1 Multiplicity = 1

                          Input orientation:
 ---------------------------------------------------------------------
 Center     Atomic      Atomic             Coordinates (Angstroms)
 Number     Number       Type             X           Y           Z
 ---------------------------------------------------------------------
      1          7           0       -4.471940    0.757451    5.684901
      2          1           0       -4.050380    0.353597    6.525656
      3          1           0       -5.287285    1.308812    5.965422
      4          1           0       -4.765450   -0.025180    5.004647
      5          6           0       -3.496914    1.513847    4.825020
      6          1           0       -2.517288    1.533507    5.305815
      7          1           0       -3.848252    2.537046    4.682593
      8          6           0       -3.484638    0.708574    3.494184
      9          8           0       -4.231486   -0.283304    3.446535
     10          7           0       -2.691231    1.164510    2.541766
     11          1           0       -1.990056    1.891158    2.729087
     12          6           0       -2.401185    0.498080    1.265148
     13          1           0       -2.541324   -0.578804    1.394787
     14          6           0       -0.906853    0.829521    1.017089
     15          6           0       -3.270510    1.032104    0.104554
     16          1           0       -3.114805    2.117635    0.048193
     17          1           0       -2.869307    0.615569   -0.829339
     18          8           0       -0.379946    1.749915    1.651585
     19          6           0       -4.779616    0.723514    0.177324
     20          1           0       -5.160888    1.091319    1.141237
     21          6           0       -5.509452    1.490299   -0.936977
     22          1           0       -5.165975    1.165622   -1.927106
     23          1           0       -6.589521    1.314759   -0.888317
     24          1           0       -5.340147    2.570895   -0.862347
     25          6           0       -5.074877   -0.781118    0.089128
     26          1           0       -4.681123   -1.203546   -0.844239
     27          1           0       -4.646631   -1.338314    0.928671
     28          1           0       -6.155451   -0.960943    0.100004
     29          7           0       -0.290594    0.077442    0.094682
     30          1           0       -0.813985   -0.583073   -0.475562
     31          6           0        1.044342    0.353633   -0.440084
     32          1           0        1.301329    1.384482   -0.176698
     33          6           0        0.887873    0.183895   -1.966081
     34          6           0        2.121894   -0.613104    0.139529
     35          1           0        1.875755   -1.618240   -0.231635
     36          8           0        0.076274   -0.638578   -2.404136
     37          6           0        3.533871   -0.243174   -0.342809
     38          1           0        3.813430    0.763476   -0.005363
     39          1           0        4.265231   -0.940872    0.078003
     40          1           0        3.641644   -0.273093   -1.430193
     41          6           0        2.077255   -0.639132    1.674497
     42          1           0        2.266971    0.356087    2.092809
     43          1           0        2.845444   -1.319492    2.057448
     44          1           0        1.109176   -0.986153    2.048559
     45          7           0        1.659011    0.968917   -2.743330
     46          1           0        2.412426    1.515167   -2.332641
     47          6           0        1.814924    0.764410   -4.178613
     48          1           0        1.618115   -0.291848   -4.386937
     49          6           0        3.288474    1.053342   -4.517106
     50          6           0        0.867788    1.646162   -5.035115
     51          1           0        0.725191    2.595021   -4.505063
     52          1           0        1.368015    1.897799   -5.975985
     53          8           0        3.654671    0.755233   -5.756345
     54          6           0       -0.497392    1.013227   -5.342722
     55          1           0       -1.093815    1.758043   -5.887248
     56          1           0       -1.027782    0.806671   -4.406329
     57          6           0       -0.462409   -0.286285   -6.170640
     58          1           0       -0.082409   -1.116108   -5.558923
     59          1           0       -1.499183   -0.555165   -6.407217
     60          6           0        0.325638   -0.224509   -7.490078
     61          1           0       -0.123618   -0.915642   -8.216807
     62          1           0        0.259202    0.778915   -7.926701
     63          7           0        1.769211   -0.534036   -7.305856
     64          1           0        2.242992   -0.458180   -8.207529
     65          1           0        2.901490    0.328295   -6.281742
     66          1           0        1.862242   -1.515203   -7.037728
     67          8           0        4.048197    1.535849   -3.699604
 ---------------------------------------------------------------------

 SCF Done:  E(RB3LYP) =  -1396.64790500     A.U. after    1 cycles

 Alpha  occ. eigenvalues --  -19.28521 -19.22981 -19.22355 -19.19870 -19.18908
 Alpha  occ. eigenvalues --  -14.61959 -14.50436 -14.45754 -14.43672 -14.42128
 Alpha  occ. eigenvalues --  -10.45297 -10.42374 -10.39382 -10.37276 -10.36908
 Alpha  occ. eigenvalues --  -10.35143 -10.31686 -10.30444 -10.29073 -10.28999
 Alpha  occ. eigenvalues --  -10.28245 -10.27297 -10.25799 -10.25564 -10.25551
 Alpha  occ. eigenvalues --  -10.25546 -10.25109 -10.24599 -10.24195  -1.20912
 Alpha  occ. eigenvalues --   -1.15522  -1.14640  -1.14275  -1.11615  -1.07147
 Alpha  occ. eigenvalues --   -1.06682  -1.02324  -1.00184  -0.97527  -0.92578
 Alpha  occ. eigenvalues --   -0.89900  -0.88533  -0.86912  -0.85190  -0.82467
 Alpha  occ. eigenvalues --   -0.79310  -0.76857  -0.76413  -0.76149  -0.75899
 Alpha  occ. eigenvalues --   -0.75612  -0.75267  -0.71939  -0.70444  -0.69027
 Alpha  occ. eigenvalues --   -0.67750  -0.66954  -0.65669  -0.65289  -0.65264
 Alpha  occ. eigenvalues --   -0.64367  -0.63742  -0.62482  -0.62062  -0.59969
 Alpha  occ. eigenvalues --   -0.58798  -0.57631  -0.57413  -0.56751  -0.55735
 Alpha  occ. eigenvalues --   -0.55220  -0.54457  -0.54167  -0.53767  -0.53497
 Alpha  occ. eigenvalues --   -0.52876  -0.52178  -0.51418  -0.50986  -0.50524
 Alpha  occ. eigenvalues --   -0.49845  -0.49306  -0.48645  -0.48156  -0.47911
 Alpha  occ. eigenvalues --   -0.47347  -0.46711  -0.46540  -0.45966  -0.45894
 Alpha  occ. eigenvalues --   -0.45345  -0.45094  -0.44897  -0.44022  -0.43472
 Alpha  occ. eigenvalues --   -0.43404  -0.42494  -0.41852  -0.41655  -0.41466
 Alpha  occ. eigenvalues --   -0.41023  -0.40665  -0.40590  -0.40421  -0.39853
 Alpha  occ. eigenvalues --   -0.39523  -0.36519  -0.36147  -0.35442  -0.34346
 Alpha  occ. eigenvalues --   -0.33772  -0.33144  -0.32391
 Alpha virt. eigenvalues --   -0.13536  -0.13209  -0.08091  -0.07685  -0.06059
 Alpha virt. eigenvalues --   -0.05734  -0.04107  -0.02598  -0.02142  -0.00765
 Alpha virt. eigenvalues --   -0.00384   0.00961   0.01540   0.01782   0.03046

 Mulliken charges:
               1
     1  N   -0.751258
     2  H    0.423096
     3  H    0.422738
     4  H    0.440388
     5  C   -0.278844
     6  H    0.249541
     7  H    0.249312
     8  C    0.637461
     9  O   -0.529425
    10  N   -0.585982
    11  H    0.374622
    12  C   -0.089678
    13  H    0.194057
    14  C    0.632767
    15  C   -0.260819
    16  H    0.153797
    17  H    0.163233
    18  O   -0.546605
    19  C   -0.071402
    20  H    0.115909
    21  C   -0.447269
    22  H    0.154300
    23  H    0.157389
    24  H    0.146858
    25  C   -0.459859
    26  H    0.150374
    27  H    0.155870
    28  H    0.158559
    29  N   -0.606553
    30  H    0.359693
    31  C   -0.059441
    32  H    0.179347
    33  C    0.616737
    34  C   -0.075442
    35  H    0.143966
    36  O   -0.554062
    37  C   -0.471582
    38  H    0.152973
    39  H    0.163390
    40  H    0.168666
    41  C   -0.445502
    42  H    0.159167
    43  H    0.158076
    44  H    0.133857
    45  N   -0.604115
    46  H    0.361820
    47  C   -0.072044
    48  H    0.180434
    49  C    0.602284
    50  C   -0.272983
    51  H    0.156577
    52  H    0.157260
    53  O   -0.609607
    54  C   -0.268091
    55  H    0.140404
    56  H    0.156700
    57  C   -0.272623
    58  H    0.152898
    59  H    0.152007
    60  C   -0.147608
    61  H    0.149387
    62  H    0.163813
    63  N   -0.774960
    64  H    0.337904
    65  H    0.475387
    66  H    0.328554
    67  O   -0.475817
 Sum of Mulliken charges =   1.00000

 Dipole moment (field-independent basis, Debye):
    X=            -17.4620    Y=              2.6259    Z=             12.8082  Tot=             21.8144
 Quadrupole moment (field-independent basis, Debye-Ang):
   XX=           -118.0867   YY=           -168.4010   ZZ=             11.7932
   XY=            -31.9131   XZ=            -81.4479   YZ=             31.9082

 Normal termination of Gaussian 16 at Fri May 27 01:48:53 2022.
