 Gaussian 16, Revision C.01,
 Gaussian 16:  ES64L-G16RevC.01  3-Jul-2019

 -------------------------------------------------------------------
 # B3LYP/6-31G* guess=read geom=check nosymm integral(ultrafinegrid)
 -------------------------------------------------------------------

 ------------------------------------------------------
 Candidate Structure: Conf:962 Charge calc in gas phase
 ------------------------------------------------------
 Structure from the checkpoint file:  "conf-962.chk"
 Charge =  1 Multiplicity = 1

                          Input orientation:
 ---------------------------------------------------------------------
 Center     Atomic      Atomic             Coordinates (Angstroms)
 Number     Number       Type             X           Y           Z
 ---------------------------------------------------------------------
      1          7           0       -5.834881   -0.438021    4.048103
      2          1           0       -5.778850   -1.319020    4.566421
      3          1           0       -6.560126    0.142849    4.477502
      4          1           0       -6.073223   -0.630733    3.016926
      5          6           0       -4.510382    0.259732    3.901050
      6          1           0       -3.738598   -0.295009    4.437637
      7          1           0       -4.578366    1.268534    4.311427
      8          6           0       -4.269228    0.268602    2.364613
      9          8           0       -5.156605   -0.247262    1.664854
     10          7           0       -3.148810    0.836421    1.954767
     11          1           0       -2.399657    1.080197    2.614517
     12          6           0       -2.628745    0.837128    0.581084
     13          1           0       -3.018945   -0.042259    0.060423
     14          6           0       -1.094596    0.718870    0.780908
     15          6           0       -2.978612    2.132779   -0.184353
     16          1           0       -2.588845    2.976846    0.399575
     17          1           0       -2.412230    2.125079   -1.125600
     18          8           0       -0.615528    0.939661    1.898731
     19          6           0       -4.469483    2.362538   -0.503993
     20          1           0       -5.035848    2.308141    0.436992
     21          6           0       -4.655488    3.775282   -1.079898
     22          1           0       -4.107187    3.891142   -2.023307
     23          1           0       -5.712216    3.976939   -1.285526
     24          1           0       -4.294353    4.544853   -0.387926
     25          6           0       -5.033801    1.302634   -1.461572
     26          1           0       -4.478576    1.295898   -2.408794
     27          1           0       -5.000491    0.295699   -1.032989
     28          1           0       -6.081288    1.518313   -1.698606
     29          7           0       -0.373295    0.402718   -0.302976
     30          1           0       -0.801275    0.266730   -1.212855
     31          6           0        1.090869    0.347583   -0.297040
     32          1           0        1.448132    1.131863    0.376352
     33          6           0        1.544623    0.651269   -1.730555
     34          6           0        1.612489   -1.024623    0.241723
     35          1           0        1.015837   -1.194994    1.147593
     36          8           0        0.745493    0.352662   -2.676306
     37          6           0        1.350385   -2.184453   -0.728725
     38          1           0        1.973370   -2.103333   -1.627101
     39          1           0        1.595819   -3.137108   -0.247837
     40          1           0        0.301652   -2.228902   -1.045209
     41          6           0        3.086627   -0.955022    0.667567
     42          1           0        3.769170   -0.741985   -0.161564
     43          1           0        3.387545   -1.911389    1.109220
     44          1           0        3.242418   -0.179267    1.426300
     45          7           0        2.736694    1.182717   -1.869024
     46          1           0        3.440249    1.225354   -1.083330
     47          6           0        3.562134    1.334361   -3.068895
     48          1           0        3.377986    0.506799   -3.763937
     49          6           0        5.062987    1.150234   -2.540291
     50          6           0        3.411691    2.695502   -3.755530
     51          1           0        3.448928    3.467870   -2.977683
     52          1           0        4.309402    2.826229   -4.370447
     53          8           0        5.915332    1.120561   -3.431275
     54          6           0        2.153904    2.904462   -4.618195
     55          1           0        2.064211    3.972968   -4.844304
     56          1           0        1.255386    2.646917   -4.041275
     57          6           0        2.178039    2.123820   -5.961035
     58          1           0        2.068242    2.819169   -6.801010
     59          1           0        3.156336    1.645075   -6.108611
     60          6           0        1.080771    1.079766   -6.147610
     61          1           0        0.089377    1.491680   -5.939239
     62          1           0        1.083180    0.675599   -7.163937
     63          7           0        1.253065   -0.091543   -5.208620
     64          1           0        0.575047   -0.831891   -5.410753
     65          1           0        2.188271   -0.497474   -5.312683
     66          1           0        1.126026    0.178885   -4.153601
     67          8           0        5.137185    1.074260   -1.279534
 ---------------------------------------------------------------------

 SCF Done:  E(RB3LYP) =  -1396.59775284     A.U. after    1 cycles

 Alpha  occ. eigenvalues --  -19.29010 -19.22918 -19.22457 -19.11059 -19.09655
 Alpha  occ. eigenvalues --  -14.62444 -14.54474 -14.50910 -14.46502 -14.42867
 Alpha  occ. eigenvalues --  -10.45791 -10.42791 -10.39980 -10.37982 -10.35860
 Alpha  occ. eigenvalues --  -10.35470 -10.32069 -10.29784 -10.29022 -10.28826
 Alpha  occ. eigenvalues --  -10.28763 -10.27211 -10.27204 -10.26531 -10.26383
 Alpha  occ. eigenvalues --  -10.26280 -10.25046 -10.24231 -10.22975  -1.21370
 Alpha  occ. eigenvalues --   -1.16021  -1.14913  -1.12713  -1.09270  -1.07658
 Alpha  occ. eigenvalues --   -1.04233  -1.02870  -0.99645  -0.95459  -0.93160
 Alpha  occ. eigenvalues --   -0.90502  -0.89273  -0.88429  -0.85726  -0.83985
 Alpha  occ. eigenvalues --   -0.80216  -0.77711  -0.77279  -0.77038  -0.76338
 Alpha  occ. eigenvalues --   -0.76099  -0.75186  -0.73080  -0.72134  -0.69712
 Alpha  occ. eigenvalues --   -0.69680  -0.68335  -0.67565  -0.66026  -0.65933
 Alpha  occ. eigenvalues --   -0.64851  -0.64401  -0.63807  -0.62722  -0.62301
 Alpha  occ. eigenvalues --   -0.60188  -0.59895  -0.58066  -0.57535  -0.57018
 Alpha  occ. eigenvalues --   -0.55906  -0.54999  -0.54506  -0.54265  -0.53497
 Alpha  occ. eigenvalues --   -0.53216  -0.53123  -0.52229  -0.52100  -0.50898
 Alpha  occ. eigenvalues --   -0.50463  -0.49803  -0.48886  -0.48867  -0.48451
 Alpha  occ. eigenvalues --   -0.48178  -0.47473  -0.46377  -0.46107  -0.45729
 Alpha  occ. eigenvalues --   -0.45343  -0.44409  -0.43984  -0.43926  -0.43321
 Alpha  occ. eigenvalues --   -0.42536  -0.42288  -0.42002  -0.41814  -0.41187
 Alpha  occ. eigenvalues --   -0.40626  -0.40567  -0.40438  -0.40216  -0.39935
 Alpha  occ. eigenvalues --   -0.38109  -0.37341  -0.36664  -0.35377  -0.33963
 Alpha  occ. eigenvalues --   -0.26009  -0.25866  -0.23868
 Alpha virt. eigenvalues --   -0.14014  -0.13624  -0.08727  -0.08176  -0.07333
 Alpha virt. eigenvalues --   -0.06701  -0.06428  -0.03137  -0.02679  -0.02104
 Alpha virt. eigenvalues --   -0.01425   0.00372   0.00468   0.00840   0.01974

 Mulliken charges:
               1
     1  N   -0.750728
     2  H    0.424001
     3  H    0.423734
     4  H    0.439617
     5  C   -0.279243
     6  H    0.251073
     7  H    0.250801
     8  C    0.635946
     9  O   -0.530087
    10  N   -0.586008
    11  H    0.376869
    12  C   -0.088119
    13  H    0.189373
    14  C    0.639438
    15  C   -0.256298
    16  H    0.158464
    17  H    0.151928
    18  O   -0.544528
    19  C   -0.071734
    20  H    0.119456
    21  C   -0.446880
    22  H    0.150285
    23  H    0.158846
    24  H    0.150892
    25  C   -0.458169
    26  H    0.139773
    27  H    0.156587
    28  H    0.160967
    29  N   -0.618578
    30  H    0.353788
    31  C   -0.043990
    32  H    0.193410
    33  C    0.633999
    34  C   -0.077226
    35  H    0.147385
    36  O   -0.663384
    37  C   -0.450935
    38  H    0.146273
    39  H    0.161896
    40  H    0.127777
    41  C   -0.477353
    42  H    0.197414
    43  H    0.153268
    44  H    0.157586
    45  N   -0.577338
    46  H    0.389215
    47  C   -0.095682
    48  H    0.086105
    49  C    0.602956
    50  C   -0.265960
    51  H    0.154002
    52  H    0.189502
    53  O   -0.559069
    54  C   -0.289264
    55  H    0.160495
    56  H    0.137409
    57  C   -0.286056
    58  H    0.182503
    59  H    0.179347
    60  C   -0.193381
    61  H    0.197391
    62  H    0.194642
    63  N   -0.773443
    64  H    0.390150
    65  H    0.400166
    66  H    0.467407
    67  O   -0.598682
 Sum of Mulliken charges =   1.00000

 Dipole moment (field-independent basis, Debye):
    X=            -30.0032    Y=             -1.4424    Z=              4.1634  Tot=             30.3250
 Quadrupole moment (field-independent basis, Debye-Ang):
   XX=           -136.7717   YY=           -161.4601   ZZ=            -27.5021
   XY=            -13.2058   XZ=            -75.8596   YZ=             -5.8503

 Normal termination of Gaussian 16 at Fri May 27 02:05:54 2022.
