 Gaussian 16, Revision C.01,
 Gaussian 16:  ES64L-G16RevC.01  3-Jul-2019

 -------------------------------------------------------------------
 # B3LYP/6-31G* guess=read geom=check nosymm integral(ultrafinegrid)
 -------------------------------------------------------------------

 ------------------------------------------------------
 Candidate Structure: Conf:669 Charge calc in gas phase
 ------------------------------------------------------
 Structure from the checkpoint file:  "conf-669.chk"
 Charge =  1 Multiplicity = 1

                          Input orientation:
 ---------------------------------------------------------------------
 Center     Atomic      Atomic             Coordinates (Angstroms)
 Number     Number       Type             X           Y           Z
 ---------------------------------------------------------------------
      1          7           0       -5.322495    0.699226    4.704242
      2          1           0       -5.014299    0.181975    5.532431
      3          1           0       -6.152763    1.242938    4.954774
      4          1           0       -5.549424    0.013019    3.909668
      5          6           0       -4.231646    1.516782    4.067703
      6          1           0       -3.328742    1.470514    4.679125
      7          1           0       -4.555006    2.555618    3.982719
      8          6           0       -4.037815    0.851481    2.675779
      9          8           0       -4.794406   -0.095686    2.406583
     10          7           0       -3.092514    1.368317    1.909187
     11          1           0       -2.404677    2.033459    2.283938
     12          6           0       -2.601552    0.798776    0.647169
     13          1           0       -2.814952   -0.273767    0.644918
     14          6           0       -1.071419    1.051695    0.714065
     15          6           0       -3.215550    1.486496   -0.591133
     16          1           0       -2.989956    2.558677   -0.520055
     17          1           0       -2.675891    1.116815   -1.474629
     18          8           0       -0.642501    1.895377    1.507838
     19          6           0       -4.728383    1.283805   -0.809583
     20          1           0       -5.250748    1.600145    0.104808
     21          6           0       -5.206586    2.189127   -1.955609
     22          1           0       -4.717237    1.919330   -2.900561
     23          1           0       -6.286940    2.091641   -2.106262
     24          1           0       -4.988533    3.244686   -1.756094
     25          6           0       -5.091765   -0.183292   -1.082349
     26          1           0       -4.563455   -0.560593   -1.968102
     27          1           0       -4.853871   -0.834304   -0.235237
     28          1           0       -6.165276   -0.283499   -1.275627
     29          7           0       -0.313511    0.324335   -0.119043
     30          1           0       -0.737564   -0.285394   -0.808675
     31          6           0        1.139428    0.452132   -0.223233
     32          1           0        1.405295    1.443044    0.154987
     33          6           0        1.539186    0.343867   -1.702350
     34          6           0        1.911543   -0.619100    0.614655
     35          1           0        2.973904   -0.452149    0.393568
     36          8           0        0.727622   -0.207670   -2.509222
     37          6           0        1.701176   -0.409122    2.119717
     38          1           0        0.660886   -0.598052    2.413176
     39          1           0        2.335177   -1.102880    2.682068
     40          1           0        1.958764    0.609644    2.426638
     41          6           0        1.558396   -2.054468    0.198350
     42          1           0        0.507926   -2.289441    0.415780
     43          1           0        2.175616   -2.765886    0.756040
     44          1           0        1.732605   -2.233068   -0.867838
     45          7           0        2.754543    0.782905   -1.972859
     46          1           0        3.393336    1.002772   -1.156998
     47          6           0        3.712479    0.250817   -2.956743
     48          1           0        3.363215   -0.727913   -3.300613
     49          6           0        5.047705    0.017197   -2.099429
     50          6           0        4.018140    1.181201   -4.132394
     51          1           0        4.341110    2.153074   -3.739876
     52          1           0        4.882632    0.745757   -4.645326
     53          8           0        4.953763    0.433662   -0.904178
     54          6           0        2.853781    1.396397   -5.111126
     55          1           0        3.117645    2.161515   -5.851559
     56          1           0        2.012644    1.814845   -4.537327
     57          6           0        2.444075    0.095699   -5.833395
     58          1           0        3.030758   -0.030949   -6.750231
     59          1           0        2.676934   -0.771914   -5.207348
     60          6           0        0.971530    0.006182   -6.215840
     61          1           0        0.680437    0.742416   -6.970239
     62          1           0        0.717827   -0.988582   -6.589637
     63          7           0        0.090182    0.251905   -4.999854
     64          1           0       -0.811038   -0.223585   -5.089430
     65          1           0        0.529538   -0.038990   -4.041038
     66          1           0       -0.106366    1.250088   -4.896756
     67          8           0        5.971234   -0.511617   -2.719335
 ---------------------------------------------------------------------

 SCF Done:  E(RB3LYP) =  -1396.58905633     A.U. after    3 cycles

 Alpha  occ. eigenvalues --  -19.29171 -19.22917 -19.22207 -19.10752 -19.09297
 Alpha  occ. eigenvalues --  -14.62605 -14.55383 -14.51075 -14.46609 -14.41703
 Alpha  occ. eigenvalues --  -10.45962 -10.42932 -10.40077 -10.37451 -10.36065
 Alpha  occ. eigenvalues --  -10.35895 -10.31589 -10.30397 -10.29608 -10.28666
 Alpha  occ. eigenvalues --  -10.28310 -10.27094 -10.27033 -10.26898 -10.26243
 Alpha  occ. eigenvalues --  -10.26218 -10.24095 -10.23931 -10.23861  -1.21525
 Alpha  occ. eigenvalues --   -1.16185  -1.14935  -1.12264  -1.09905  -1.07804
 Alpha  occ. eigenvalues --   -1.03804  -1.02931  -0.98978  -0.94963  -0.93438
 Alpha  occ. eigenvalues --   -0.90876  -0.89679  -0.88195  -0.85857  -0.83952
 Alpha  occ. eigenvalues --   -0.80066  -0.78158  -0.77677  -0.76949  -0.76496
 Alpha  occ. eigenvalues --   -0.76243  -0.75027  -0.73143  -0.72062  -0.69871
 Alpha  occ. eigenvalues --   -0.69573  -0.68607  -0.67593  -0.66510  -0.66374
 Alpha  occ. eigenvalues --   -0.65334  -0.64313  -0.63096  -0.62730  -0.61726
 Alpha  occ. eigenvalues --   -0.60493  -0.59905  -0.58455  -0.57821  -0.56238
 Alpha  occ. eigenvalues --   -0.55818  -0.55186  -0.55048  -0.54649  -0.53723
 Alpha  occ. eigenvalues --   -0.53488  -0.52835  -0.52355  -0.51861  -0.50962
 Alpha  occ. eigenvalues --   -0.50324  -0.49548  -0.49301  -0.48909  -0.48676
 Alpha  occ. eigenvalues --   -0.48092  -0.47469  -0.46624  -0.46271  -0.45462
 Alpha  occ. eigenvalues --   -0.45412  -0.44477  -0.44119  -0.43671  -0.43492
 Alpha  occ. eigenvalues --   -0.43084  -0.42928  -0.41964  -0.41878  -0.40976
 Alpha  occ. eigenvalues --   -0.40825  -0.40358  -0.40233  -0.39864  -0.39422
 Alpha  occ. eigenvalues --   -0.37737  -0.37191  -0.36383  -0.35022  -0.33701
 Alpha  occ. eigenvalues --   -0.25724  -0.25520  -0.23311
 Alpha virt. eigenvalues --   -0.14255  -0.13670  -0.08690  -0.08455  -0.08191
 Alpha virt. eigenvalues --   -0.06958  -0.06567  -0.03430  -0.03329  -0.02921
 Alpha virt. eigenvalues --   -0.01895  -0.00129  -0.00070   0.00406   0.02048

 Mulliken charges:
               1
     1  N   -0.750260
     2  H    0.425258
     3  H    0.423885
     4  H    0.439750
     5  C   -0.279356
     6  H    0.252361
     7  H    0.250741
     8  C    0.634991
     9  O   -0.528687
    10  N   -0.585604
    11  H    0.376916
    12  C   -0.089583
    13  H    0.191937
    14  C    0.638830
    15  C   -0.252114
    16  H    0.157852
    17  H    0.135934
    18  O   -0.543107
    19  C   -0.071925
    20  H    0.123607
    21  C   -0.444525
    22  H    0.137362
    23  H    0.162238
    24  H    0.151395
    25  C   -0.457676
    26  H    0.134388
    27  H    0.162497
    28  H    0.162510
    29  N   -0.602808
    30  H    0.346215
    31  C   -0.071927
    32  H    0.197778
    33  C    0.612541
    34  C   -0.098594
    35  H    0.205488
    36  O   -0.655885
    37  C   -0.444033
    38  H    0.117499
    39  H    0.163743
    40  H    0.162640
    41  C   -0.463040
    42  H    0.120844
    43  H    0.171462
    44  H    0.160299
    45  N   -0.569996
    46  H    0.379859
    47  C   -0.118086
    48  H    0.144518
    49  C    0.607244
    50  C   -0.261876
    51  H    0.155030
    52  H    0.188958
    53  O   -0.605972
    54  C   -0.282388
    55  H    0.159626
    56  H    0.102838
    57  C   -0.286259
    58  H    0.187754
    59  H    0.181461
    60  C   -0.185730
    61  H    0.195729
    62  H    0.202364
    63  N   -0.770565
    64  H    0.390878
    65  H    0.458200
    66  H    0.394102
    67  O   -0.549526
 Sum of Mulliken charges =   1.00000

 Dipole moment (field-independent basis, Debye):
    X=            -31.1939    Y=              5.5638    Z=              4.5670  Tot=             32.0136
 Quadrupole moment (field-independent basis, Debye-Ang):
   XX=           -149.5333   YY=           -166.2913   ZZ=             -3.5089
   XY=            -20.0505   XZ=            -70.5967   YZ=              7.4020

 Normal termination of Gaussian 16 at Fri May 27 02:06:45 2022.
