 Gaussian 16, Revision C.01,
 Gaussian 16:  ES64L-G16RevC.01  3-Jul-2019

 -------------------------------------------------------------------
 # B3LYP/6-31G* guess=read geom=check nosymm integral(ultrafinegrid)
 -------------------------------------------------------------------

 ------------------------------------------------------
 Candidate Structure: Conf:684 Charge calc in gas phase
 ------------------------------------------------------
 Structure from the checkpoint file:  "conf-684.chk"
 Charge =  1 Multiplicity = 1

                          Input orientation:
 ---------------------------------------------------------------------
 Center     Atomic      Atomic             Coordinates (Angstroms)
 Number     Number       Type             X           Y           Z
 ---------------------------------------------------------------------
      1          7           0       -4.890174    2.491150    4.168702
      2          1           0       -5.551512    3.266444    4.075263
      3          1           0       -5.211354    1.648389    3.573069
      4          1           0       -4.838589    2.227108    5.156103
      5          6           0       -3.548888    2.760614    3.544673
      6          1           0       -2.765263    2.675001    4.299279
      7          1           0       -3.533899    3.766993    3.122893
      8          6           0       -3.436916    1.663010    2.448067
      9          8           0       -4.407769    0.892743    2.341380
     10          7           0       -2.328208    1.645981    1.734993
     11          1           0       -1.546659    2.291101    1.893022
     12          6           0       -2.017509    0.685650    0.666094
     13          1           0       -2.322182   -0.310451    0.998844
     14          6           0       -0.477315    0.781673    0.545475
     15          6           0       -2.758217    1.072060   -0.639195
     16          1           0       -3.814414    1.211262   -0.373763
     17          1           0       -2.376173    2.049242   -0.962232
     18          8           0        0.092641    1.795312    0.964450
     19          6           0       -2.679831    0.069075   -1.810105
     20          1           0       -1.628905   -0.079003   -2.088667
     21          6           0       -3.278980   -1.300893   -1.453899
     22          1           0       -4.328532   -1.204904   -1.147532
     23          1           0       -3.241773   -1.969805   -2.319543
     24          1           0       -2.741823   -1.805523   -0.641150
     25          6           0       -3.397248    0.668344   -3.030363
     26          1           0       -4.462991    0.829923   -2.823419
     27          1           0       -2.961036    1.631243   -3.320772
     28          1           0       -3.324244   -0.005231   -3.890558
     29          7           0        0.143252   -0.273229   -0.006188
     30          1           0       -0.397686   -0.993385   -0.481253
     31          6           0        1.548301   -0.270481   -0.408753
     32          1           0        1.869634    0.773076   -0.492231
     33          6           0        1.580717   -0.947449   -1.797059
     34          6           0        2.479277   -0.998514    0.605539
     35          1           0        3.484693   -0.963494    0.162673
     36          8           0        0.608018   -1.591413   -2.203348
     37          6           0        2.535308   -0.256201    1.947534
     38          1           0        1.564414   -0.282560    2.454891
     39          1           0        3.269225   -0.729890    2.608590
     40          1           0        2.815998    0.794345    1.819985
     41          6           0        2.095689   -2.472834    0.797275
     42          1           0        1.099687   -2.564218    1.246668
     43          1           0        2.807216   -2.963301    1.469540
     44          1           0        2.090766   -3.027560   -0.146811
     45          7           0        2.724104   -0.804684   -2.491937
     46          1           0        3.526527   -0.317645   -2.104054
     47          6           0        2.987489   -1.495573   -3.749010
     48          1           0        2.612129   -2.520844   -3.677432
     49          6           0        4.497581   -1.479165   -3.948012
     50          6           0        2.315636   -0.803826   -4.978439
     51          1           0        2.141446   -1.571922   -5.738817
     52          1           0        1.328690   -0.476187   -4.639130
     53          8           0        4.886649   -2.188293   -4.994549
     54          6           0        3.107336    0.376394   -5.607015
     55          1           0        3.773412    0.814596   -4.852280
     56          1           0        2.400673    1.174846   -5.857716
     57          6           0        3.905432   -0.000032   -6.892086
     58          1           0        3.910689   -1.086596   -7.022442
     59          1           0        3.378936    0.407152   -7.764334
     60          6           0        5.360303    0.488588   -6.986555
     61          1           0        5.714689    0.290073   -8.003338
     62          1           0        5.409170    1.577669   -6.840836
     63          7           0        6.288051   -0.217421   -6.060370
     64          1           0        7.234614   -0.202199   -6.434744
     65          1           0        6.330465    0.252256   -5.156054
     66          1           0        5.659547   -1.667157   -5.431353
     67          8           0        5.223411   -0.750876   -3.282780
 ---------------------------------------------------------------------

 SCF Done:  E(RB3LYP) =  -1396.64335323     A.U. after    1 cycles

 Alpha  occ. eigenvalues --  -19.28199 -19.23113 -19.22169 -19.20327 -19.19816
 Alpha  occ. eigenvalues --  -14.61642 -14.50253 -14.45506 -14.43548 -14.40512
 Alpha  occ. eigenvalues --  -10.44971 -10.42165 -10.39198 -10.38064 -10.36788
 Alpha  occ. eigenvalues --  -10.34837 -10.31597 -10.30404 -10.28557 -10.28089
 Alpha  occ. eigenvalues --  -10.27465 -10.27341 -10.25451 -10.25219 -10.24942
 Alpha  occ. eigenvalues --  -10.24861 -10.24540 -10.24507 -10.24389  -1.20637
 Alpha  occ. eigenvalues --   -1.15594  -1.15216  -1.14090  -1.11564  -1.07007
 Alpha  occ. eigenvalues --   -1.06894  -1.02096  -1.00097  -0.95997  -0.92203
 Alpha  occ. eigenvalues --   -0.89588  -0.88382  -0.86225  -0.84684  -0.82101
 Alpha  occ. eigenvalues --   -0.79113  -0.76670  -0.75997  -0.75900  -0.75640
 Alpha  occ. eigenvalues --   -0.75543  -0.75271  -0.71767  -0.69736  -0.69066
 Alpha  occ. eigenvalues --   -0.67512  -0.67034  -0.65694  -0.65315  -0.64240
 Alpha  occ. eigenvalues --   -0.63952  -0.63190  -0.61647  -0.61001  -0.59314
 Alpha  occ. eigenvalues --   -0.58122  -0.57548  -0.56863  -0.56274  -0.55573
 Alpha  occ. eigenvalues --   -0.54941  -0.54229  -0.53848  -0.53687  -0.53255
 Alpha  occ. eigenvalues --   -0.52476  -0.51767  -0.51557  -0.51005  -0.50561
 Alpha  occ. eigenvalues --   -0.50247  -0.49201  -0.48590  -0.48353  -0.47624
 Alpha  occ. eigenvalues --   -0.47191  -0.46480  -0.46095  -0.45929  -0.45650
 Alpha  occ. eigenvalues --   -0.44979  -0.44790  -0.44216  -0.43554  -0.43388
 Alpha  occ. eigenvalues --   -0.42834  -0.42601  -0.41893  -0.41090  -0.41079
 Alpha  occ. eigenvalues --   -0.40850  -0.40611  -0.39736  -0.39249  -0.39030
 Alpha  occ. eigenvalues --   -0.38884  -0.36894  -0.36371  -0.35291  -0.34312
 Alpha  occ. eigenvalues --   -0.33566  -0.33259  -0.32432
 Alpha virt. eigenvalues --   -0.13243  -0.12992  -0.08101  -0.07430  -0.06096
 Alpha virt. eigenvalues --   -0.05849  -0.05354  -0.02304  -0.01451  -0.00555
 Alpha virt. eigenvalues --    0.00531   0.00993   0.01545   0.02396   0.03106

 Mulliken charges:
               1
     1  N   -0.752061
     2  H    0.421921
     3  H    0.440868
     4  H    0.422078
     5  C   -0.276507
     6  H    0.247622
     7  H    0.247635
     8  C    0.642481
     9  O   -0.534183
    10  N   -0.602843
    11  H    0.376360
    12  C   -0.070943
    13  H    0.192861
    14  C    0.624321
    15  C   -0.258583
    16  H    0.157052
    17  H    0.152200
    18  O   -0.547547
    19  C   -0.103919
    20  H    0.156637
    21  C   -0.453059
    22  H    0.149542
    23  H    0.172579
    24  H    0.134983
    25  C   -0.447968
    26  H    0.144983
    27  H    0.147242
    28  H    0.163539
    29  N   -0.607414
    30  H    0.373753
    31  C   -0.074039
    32  H    0.182930
    33  C    0.636188
    34  C   -0.079226
    35  H    0.144818
    36  O   -0.553193
    37  C   -0.442218
    38  H    0.139425
    39  H    0.156909
    40  H    0.158182
    41  C   -0.462400
    42  H    0.143404
    43  H    0.162457
    44  H    0.165994
    45  N   -0.617034
    46  H    0.358588
    47  C   -0.037784
    48  H    0.192964
    49  C    0.598155
    50  C   -0.267587
    51  H    0.165779
    52  H    0.166002
    53  O   -0.592584
    54  C   -0.296517
    55  H    0.143499
    56  H    0.148725
    57  C   -0.270766
    58  H    0.166993
    59  H    0.148075
    60  C   -0.148519
    61  H    0.159364
    62  H    0.146284
    63  N   -0.783574
    64  H    0.333454
    65  H    0.347073
    66  H    0.452504
    67  O   -0.505956
 Sum of Mulliken charges =   1.00000

 Dipole moment (field-independent basis, Debye):
    X=            -11.1602    Y=             10.8954    Z=              8.7110  Tot=             17.8645
 Quadrupole moment (field-independent basis, Debye-Ang):
   XX=            -66.0722   YY=           -148.1104   ZZ=            -61.7809
   XY=            -43.9695   XZ=           -102.6439   YZ=             32.6707

 Normal termination of Gaussian 16 at Fri May 27 01:48:47 2022.
