 Gaussian 16, Revision C.01,
 Gaussian 16:  ES64L-G16RevC.01  3-Jul-2019

 -------------------------------------------------------------------
 # B3LYP/6-31G* guess=read geom=check nosymm integral(ultrafinegrid)
 -------------------------------------------------------------------

 ------------------------------------------------------
 Candidate Structure: Conf:578 Charge calc in gas phase
 ------------------------------------------------------
 Structure from the checkpoint file:  "conf-578.chk"
 Charge =  1 Multiplicity = 1

                          Input orientation:
 ---------------------------------------------------------------------
 Center     Atomic      Atomic             Coordinates (Angstroms)
 Number     Number       Type             X           Y           Z
 ---------------------------------------------------------------------
      1          7           0       -5.763291   -1.598241    3.710663
      2          1           0       -5.636044   -2.442325    4.275257
      3          1           0       -6.648074   -1.159759    3.979367
      4          1           0       -5.772877   -1.849797    2.660404
      5          6           0       -4.587066   -0.662155    3.750437
      6          1           0       -3.828314   -1.049924    4.432173
      7          1           0       -4.910380    0.321946    4.093943
      8          6           0       -4.097861   -0.637406    2.274162
      9          8           0       -4.745846   -1.328960    1.468996
     10          7           0       -3.041203    0.106229    2.009539
     11          1           0       -2.540014    0.642894    2.723892
     12          6           0       -2.415994    0.260800    0.686192
     13          1           0       -2.413990   -0.714574    0.189387
     14          6           0       -0.975687    0.703076    1.034022
     15          6           0       -3.218583    1.275320   -0.164966
     16          1           0       -4.234696    0.868592   -0.228978
     17          1           0       -3.284959    2.217281    0.394477
     18          8           0       -0.783594    1.330957    2.081105
     19          6           0       -2.677023    1.543931   -1.593095
     20          1           0       -2.096842    0.669299   -1.923194
     21          6           0       -3.842780    1.714075   -2.580666
     22          1           0       -4.483224    2.556353   -2.289431
     23          1           0       -3.471714    1.913876   -3.591530
     24          1           0       -4.467657    0.814510   -2.623683
     25          6           0       -1.755932    2.773511   -1.638225
     26          1           0       -2.323759    3.684711   -1.411433
     27          1           0       -0.933133    2.707744   -0.919913
     28          1           0       -1.317077    2.890388   -2.634608
     29          7           0       -0.019824    0.330311    0.171022
     30          1           0       -0.258579   -0.086248   -0.726678
     31          6           0        1.374082    0.772444    0.231499
     32          1           0        1.418984    1.663275    0.866458
     33          6           0        1.733035    1.102944   -1.234731
     34          6           0        2.309593   -0.329567    0.818264
     35          1           0        2.291002   -1.167765    0.107280
     36          8           0        1.177917    0.486016   -2.148592
     37          6           0        3.758996    0.164659    0.952082
     38          1           0        3.820897    1.029280    1.626118
     39          1           0        4.383855   -0.625958    1.380125
     40          1           0        4.202703    0.449441   -0.005521
     41          6           0        1.796080   -0.834131    2.174974
     42          1           0        1.750867   -0.021617    2.909047
     43          1           0        2.469089   -1.606183    2.563429
     44          1           0        0.797259   -1.273598    2.094244
     45          7           0        2.651912    2.067449   -1.432144
     46          1           0        3.156895    2.479902   -0.653167
     47          6           0        3.232422    2.354871   -2.739526
     48          1           0        3.352404    1.414685   -3.288123
     49          6           0        4.589664    2.999322   -2.491447
     50          6           0        2.355008    3.300129   -3.604399
     51          1           0        2.720510    3.237984   -4.635020
     52          1           0        1.351385    2.861763   -3.600954
     53          8           0        5.244253    3.244246   -3.612159
     54          6           0        2.271031    4.785025   -3.173281
     55          1           0        2.233792    4.855959   -2.077458
     56          1           0        1.296741    5.150668   -3.517198
     57          6           0        3.353157    5.757132   -3.737098
     58          1           0        3.791966    5.319019   -4.641655
     59          1           0        2.838602    6.665483   -4.068826
     60          6           0        4.498800    6.190601   -2.781314
     61          1           0        4.472390    7.279748   -2.643191
     62          1           0        4.372785    5.738906   -1.794741
     63          7           0        5.838928    5.761852   -3.267454
     64          1           0        6.550260    6.006773   -2.579418
     65          1           0        5.750302    4.140014   -3.479555
     66          1           0        6.078339    6.260096   -4.124884
     67          8           0        4.944437    3.347153   -1.372568
 ---------------------------------------------------------------------

 SCF Done:  E(RB3LYP) =  -1396.63862655     A.U. after    1 cycles

 Alpha  occ. eigenvalues --  -19.28306 -19.22216 -19.21865 -19.19575 -19.19406
 Alpha  occ. eigenvalues --  -14.61756 -14.50446 -14.45482 -14.43294 -14.41392
 Alpha  occ. eigenvalues --  -10.45111 -10.42276 -10.39017 -10.37329 -10.36484
 Alpha  occ. eigenvalues --  -10.34959 -10.31503 -10.29881 -10.28585 -10.28099
 Alpha  occ. eigenvalues --  -10.27758 -10.27288 -10.25156 -10.25067 -10.25005
 Alpha  occ. eigenvalues --  -10.24985 -10.24949 -10.24608 -10.24417  -1.20749
 Alpha  occ. eigenvalues --   -1.15317  -1.14781  -1.13856  -1.11239  -1.07017
 Alpha  occ. eigenvalues --   -1.06253  -1.01996  -0.99762  -0.96673  -0.92262
 Alpha  occ. eigenvalues --   -0.89590  -0.88245  -0.86136  -0.84806  -0.82040
 Alpha  occ. eigenvalues --   -0.79165  -0.76664  -0.75861  -0.75769  -0.75738
 Alpha  occ. eigenvalues --   -0.75392  -0.75350  -0.71704  -0.69771  -0.68817
 Alpha  occ. eigenvalues --   -0.67310  -0.66986  -0.65875  -0.65523  -0.64739
 Alpha  occ. eigenvalues --   -0.64189  -0.63088  -0.61732  -0.60882  -0.59130
 Alpha  occ. eigenvalues --   -0.57643  -0.56947  -0.56680  -0.56348  -0.56027
 Alpha  occ. eigenvalues --   -0.54725  -0.54022  -0.53865  -0.53172  -0.52884
 Alpha  occ. eigenvalues --   -0.52623  -0.52226  -0.51827  -0.50817  -0.50322
 Alpha  occ. eigenvalues --   -0.49536  -0.49307  -0.48616  -0.48335  -0.47499
 Alpha  occ. eigenvalues --   -0.46943  -0.46449  -0.46209  -0.45972  -0.45902
 Alpha  occ. eigenvalues --   -0.45036  -0.44443  -0.44376  -0.43580  -0.43174
 Alpha  occ. eigenvalues --   -0.42634  -0.42359  -0.41645  -0.41070  -0.40927
 Alpha  occ. eigenvalues --   -0.40796  -0.40574  -0.39674  -0.39583  -0.39263
 Alpha  occ. eigenvalues --   -0.38855  -0.36313  -0.36080  -0.35134  -0.33724
 Alpha  occ. eigenvalues --   -0.33492  -0.32836  -0.32399
 Alpha virt. eigenvalues --   -0.13370  -0.13081  -0.08149  -0.07468  -0.05966
 Alpha virt. eigenvalues --   -0.05583  -0.04919  -0.02378  -0.01606  -0.00441
 Alpha virt. eigenvalues --    0.00344   0.00738   0.01712   0.02043   0.02932

 Mulliken charges:
               1
     1  N   -0.751802
     2  H    0.422501
     3  H    0.422299
     4  H    0.441085
     5  C   -0.276590
     6  H    0.248304
     7  H    0.247835
     8  C    0.642049
     9  O   -0.532893
    10  N   -0.600805
    11  H    0.375371
    12  C   -0.072804
    13  H    0.189631
    14  C    0.628137
    15  C   -0.261778
    16  H    0.162311
    17  H    0.154674
    18  O   -0.550517
    19  C   -0.087574
    20  H    0.138180
    21  C   -0.452072
    22  H    0.148644
    23  H    0.162582
    24  H    0.148400
    25  C   -0.454450
    26  H    0.148178
    27  H    0.148551
    28  H    0.165376
    29  N   -0.609229
    30  H    0.367224
    31  C   -0.061066
    32  H    0.175697
    33  C    0.627213
    34  C   -0.073849
    35  H    0.146100
    36  O   -0.551273
    37  C   -0.469561
    38  H    0.150565
    39  H    0.163665
    40  H    0.165165
    41  C   -0.444347
    42  H    0.159547
    43  H    0.156193
    44  H    0.132512
    45  N   -0.612243
    46  H    0.358954
    47  C   -0.042067
    48  H    0.193139
    49  C    0.607041
    50  C   -0.269377
    51  H    0.165684
    52  H    0.165985
    53  O   -0.604984
    54  C   -0.286682
    55  H    0.142821
    56  H    0.147387
    57  C   -0.282695
    58  H    0.159964
    59  H    0.150506
    60  C   -0.159282
    61  H    0.149740
    62  H    0.182873
    63  N   -0.775271
    64  H    0.339359
    65  H    0.459920
    66  H    0.331083
    67  O   -0.509233
 Sum of Mulliken charges =   1.00000

 Dipole moment (field-independent basis, Debye):
    X=            -15.7001    Y=              2.3849    Z=             11.2477  Tot=             19.4600
 Quadrupole moment (field-independent basis, Debye-Ang):
   XX=            -34.5293   YY=           -116.9009   ZZ=           -104.6940
   XY=             57.4767   XZ=            -95.5338   YZ=            -50.4627

 Normal termination of Gaussian 16 at Fri May 27 01:48:47 2022.
