 Gaussian 16, Revision C.01,
 Gaussian 16:  ES64L-G16RevC.01  3-Jul-2019

 -------------------------------------------------------------------
 # B3LYP/6-31G* guess=read geom=check nosymm integral(ultrafinegrid)
 -------------------------------------------------------------------

 ------------------------------------------------------
 Candidate Structure: Conf:651 Charge calc in gas phase
 ------------------------------------------------------
 Structure from the checkpoint file:  "conf-651.chk"
 Charge =  1 Multiplicity = 1

                          Input orientation:
 ---------------------------------------------------------------------
 Center     Atomic      Atomic             Coordinates (Angstroms)
 Number     Number       Type             X           Y           Z
 ---------------------------------------------------------------------
      1          7           0       -5.834257   -0.033837    3.963812
      2          1           0       -5.748865   -0.744711    4.695162
      3          1           0       -6.647404    0.550733    4.174582
      4          1           0       -5.950391   -0.503982    2.999771
      5          6           0       -4.570811    0.748148    3.731375
      6          1           0       -3.805051    0.434310    4.442922
      7          1           0       -4.767588    1.813527    3.861172
      8          6           0       -4.191778    0.397080    2.263908
      9          8           0       -4.963021   -0.375180    1.669457
     10          7           0       -3.096542    0.962431    1.790437
     11          1           0       -2.435320    1.452864    2.404941
     12          6           0       -2.464352    0.674805    0.495751
     13          1           0       -2.724775   -0.345305    0.199728
     14          6           0       -0.948340    0.784111    0.804335
     15          6           0       -2.867165    1.686523   -0.600367
     16          1           0       -2.611684    2.689676   -0.233885
     17          1           0       -2.223054    1.503818   -1.470893
     18          8           0       -0.581813    1.351643    1.841284
     19          6           0       -4.339389    1.656090   -1.058139
     20          1           0       -4.979183    1.777525   -0.171669
     21          6           0       -4.605590    2.846719   -1.992977
     22          1           0       -3.989138    2.780959   -2.898127
     23          1           0       -5.654214    2.867762   -2.308748
     24          1           0       -4.381552    3.802495   -1.504793
     25          6           0       -4.713348    0.331788   -1.740283
     26          1           0       -4.077090    0.148578   -2.615547
     27          1           0       -4.624272   -0.523889   -1.063144
     28          1           0       -5.751231    0.360402   -2.089755
     29          7           0       -0.128278    0.262541   -0.113454
     30          1           0       -0.471107   -0.144189   -0.983225
     31          6           0        1.328269    0.372245   -0.074419
     32          1           0        1.588754    1.375246    0.282403
     33          6           0        1.765068    0.199095   -1.546048
     34          6           0        1.954543   -0.671757    0.902715
     35          1           0        1.387438   -0.537263    1.832707
     36          8           0        0.993635   -0.315090   -2.361968
     37          6           0        1.764587   -2.116422    0.421189
     38          1           0        2.338150   -2.316492   -0.491153
     39          1           0        2.109078   -2.818272    1.188260
     40          1           0        0.713345   -2.340307    0.210185
     41          6           0        3.426218   -0.369403    1.222527
     42          1           0        4.086414   -0.542629    0.365938
     43          1           0        3.772056   -1.022220    2.031051
     44          1           0        3.562801    0.666105    1.558347
     45          7           0        3.001173    0.629755   -1.858900
     46          1           0        3.637228    0.974159   -1.146527
     47          6           0        3.625727    0.382965   -3.153669
     48          1           0        3.345327   -0.618474   -3.496773
     49          6           0        5.131413    0.466679   -2.942950
     50          6           0        3.191833    1.397258   -4.246958
     51          1           0        3.483400    0.980832   -5.217115
     52          1           0        2.097027    1.407774   -4.226699
     53          8           0        5.810900    0.190585   -4.041124
     54          6           0        3.723855    2.846306   -4.125090
     55          1           0        3.736371    3.154466   -3.070444
     56          1           0        2.975587    3.489304   -4.602268
     57          6           0        5.097635    3.164255   -4.792509
     58          1           0        5.306030    2.409783   -5.560702
     59          1           0        4.990114    4.111977   -5.331158
     60          6           0        6.336244    3.291940   -3.863340
     61          1           0        6.756458    4.303253   -3.944723
     62          1           0        6.054238    3.144773   -2.818326
     63          7           0        7.379032    2.271902   -4.160823
     64          1           0        8.141081    2.350957   -3.488213
     65          1           0        6.638268    0.817175   -4.053067
     66          1           0        7.783840    2.440743   -5.081898
     67          8           0        5.615403    0.868204   -1.892216
 ---------------------------------------------------------------------

 SCF Done:  E(RB3LYP) =  -1396.64415744     A.U. after    1 cycles

 Alpha  occ. eigenvalues --  -19.28306 -19.22168 -19.22039 -19.19543 -19.19525
 Alpha  occ. eigenvalues --  -14.61741 -14.50195 -14.45277 -14.43220 -14.41354
 Alpha  occ. eigenvalues --  -10.45071 -10.42184 -10.39026 -10.37292 -10.36559
 Alpha  occ. eigenvalues --  -10.34826 -10.31497 -10.29837 -10.28675 -10.28034
 Alpha  occ. eigenvalues --  -10.27927 -10.27086 -10.25235 -10.25209 -10.25020
 Alpha  occ. eigenvalues --  -10.24949 -10.24911 -10.24399 -10.24307  -1.20703
 Alpha  occ. eigenvalues --   -1.15294  -1.14737  -1.13933  -1.11349  -1.06901
 Alpha  occ. eigenvalues --   -1.06203  -1.01929  -0.99757  -0.96627  -0.92321
 Alpha  occ. eigenvalues --   -0.89634  -0.88252  -0.86011  -0.84916  -0.81923
 Alpha  occ. eigenvalues --   -0.78948  -0.76538  -0.76105  -0.75764  -0.75704
 Alpha  occ. eigenvalues --   -0.75391  -0.75350  -0.71687  -0.69727  -0.68899
 Alpha  occ. eigenvalues --   -0.68103  -0.67000  -0.65790  -0.64986  -0.64056
 Alpha  occ. eigenvalues --   -0.63886  -0.62977  -0.61908  -0.61213  -0.59139
 Alpha  occ. eigenvalues --   -0.57236  -0.57090  -0.56871  -0.56198  -0.55944
 Alpha  occ. eigenvalues --   -0.54369  -0.54136  -0.53741  -0.53518  -0.52976
 Alpha  occ. eigenvalues --   -0.52498  -0.52139  -0.51739  -0.50982  -0.50427
 Alpha  occ. eigenvalues --   -0.49688  -0.49058  -0.48404  -0.47817  -0.47739
 Alpha  occ. eigenvalues --   -0.47504  -0.46609  -0.46473  -0.46319  -0.45526
 Alpha  occ. eigenvalues --   -0.45033  -0.44656  -0.44151  -0.43229  -0.43107
 Alpha  occ. eigenvalues --   -0.42530  -0.42214  -0.41552  -0.41345  -0.41168
 Alpha  occ. eigenvalues --   -0.40764  -0.40658  -0.39600  -0.39563  -0.39496
 Alpha  occ. eigenvalues --   -0.38789  -0.36261  -0.36096  -0.34954  -0.33731
 Alpha  occ. eigenvalues --   -0.33571  -0.32890  -0.32344
 Alpha virt. eigenvalues --   -0.13318  -0.13034  -0.07845  -0.07460  -0.05867
 Alpha virt. eigenvalues --   -0.05483  -0.04855  -0.02375  -0.01911   0.00116
 Alpha virt. eigenvalues --    0.00559   0.01245   0.01649   0.01985   0.03246

 Mulliken charges:
               1
     1  N   -0.751554
     2  H    0.422523
     3  H    0.422282
     4  H    0.440626
     5  C   -0.278587
     6  H    0.248623
     7  H    0.248706
     8  C    0.637627
     9  O   -0.529646
    10  N   -0.585865
    11  H    0.373807
    12  C   -0.088077
    13  H    0.194259
    14  C    0.634878
    15  C   -0.258933
    16  H    0.152318
    17  H    0.163862
    18  O   -0.553533
    19  C   -0.071363
    20  H    0.114548
    21  C   -0.447334
    22  H    0.155847
    23  H    0.156922
    24  H    0.145743
    25  C   -0.459815
    26  H    0.152515
    27  H    0.155559
    28  H    0.157845
    29  N   -0.618906
    30  H    0.366646
    31  C   -0.053859
    32  H    0.175552
    33  C    0.626503
    34  C   -0.074475
    35  H    0.154628
    36  O   -0.551527
    37  C   -0.456053
    38  H    0.162708
    39  H    0.156494
    40  H    0.142750
    41  C   -0.475442
    42  H    0.167242
    43  H    0.162271
    44  H    0.150351
    45  N   -0.619159
    46  H    0.362580
    47  C   -0.041535
    48  H    0.191856
    49  C    0.607410
    50  C   -0.265871
    51  H    0.165234
    52  H    0.165883
    53  O   -0.604971
    54  C   -0.286873
    55  H    0.141506
    56  H    0.149322
    57  C   -0.282779
    58  H    0.159655
    59  H    0.151015
    60  C   -0.159310
    61  H    0.150016
    62  H    0.182569
    63  N   -0.775471
    64  H    0.339273
    65  H    0.459951
    66  H    0.331208
    67  O   -0.510170
 Sum of Mulliken charges =   1.00000

 Dipole moment (field-independent basis, Debye):
    X=            -14.0027    Y=              5.5449    Z=             10.4013  Tot=             18.3032
 Quadrupole moment (field-independent basis, Debye-Ang):
   XX=             -7.0541   YY=           -158.4344   ZZ=            -88.8137
   XY=             16.2608   XZ=           -115.7422   YZ=            -20.1204

 Normal termination of Gaussian 16 at Fri May 27 01:48:45 2022.
