 Gaussian 16, Revision C.01,
 Gaussian 16:  ES64L-G16RevC.01  3-Jul-2019

 -------------------------------------------------------------------
 # B3LYP/6-31G* guess=read geom=check nosymm integral(ultrafinegrid)
 -------------------------------------------------------------------

 ------------------------------------------------------
 Candidate Structure: Conf:862 Charge calc in gas phase
 ------------------------------------------------------
 Structure from the checkpoint file:  "conf-862.chk"
 Charge =  1 Multiplicity = 1

                          Input orientation:
 ---------------------------------------------------------------------
 Center     Atomic      Atomic             Coordinates (Angstroms)
 Number     Number       Type             X           Y           Z
 ---------------------------------------------------------------------
      1          7           0       -1.189347    3.463842    2.746193
      2          1           0       -0.838095    4.399016    2.972393
      3          1           0       -0.892305    2.800628    3.472803
      4          1           0       -0.780836    3.096953    1.832994
      5          6           0       -2.697467    3.392193    2.623203
      6          1           0       -3.019368    4.190434    1.952344
      7          1           0       -3.139750    3.519627    3.611783
      8          6           0       -2.876169    1.962985    2.085065
      9          8           0       -2.504754    1.040080    2.797144
     10          7           0       -3.215257    1.849725    0.775924
     11          1           0       -3.375040    2.712615    0.269468
     12          6           0       -2.564512    0.797213   -0.010023
     13          1           0       -2.828768   -0.165508    0.432535
     14          6           0       -1.027085    1.010073    0.125932
     15          6           0       -3.070333    0.884051   -1.467794
     16          1           0       -4.163217    0.979015   -1.412655
     17          1           0       -2.692022    1.817946   -1.908738
     18          8           0       -0.553528    2.111740    0.485529
     19          6           0       -2.733499   -0.294054   -2.407153
     20          1           0       -1.643102   -0.401195   -2.474668
     21          6           0       -3.319347   -1.626184   -1.913024
     22          1           0       -4.411188   -1.566189   -1.821329
     23          1           0       -3.086790   -2.429293   -2.619255
     24          1           0       -2.921756   -1.935795   -0.938524
     25          6           0       -3.248170    0.029887   -3.819032
     26          1           0       -4.339922    0.139095   -3.826662
     27          1           0       -2.814066    0.960504   -4.203076
     28          1           0       -2.990002   -0.773022   -4.517019
     29          7           0       -0.268117   -0.042892   -0.166556
     30          1           0       -0.680656   -0.892957   -0.548308
     31          6           0        1.195635   -0.062093   -0.220512
     32          1           0        1.545346    0.969138   -0.328870
     33          6           0        1.512633   -0.903037   -1.478881
     34          6           0        1.804512   -0.694115    1.068491
     35          1           0        1.440821   -1.730209    1.109066
     36          8           0        0.730813   -1.796218   -1.818027
     37          6           0        3.340544   -0.719108    1.022384
     38          1           0        3.752583    0.294842    0.931985
     39          1           0        3.733405   -1.148619    1.949473
     40          1           0        3.728811   -1.317138    0.194087
     41          6           0        1.323726    0.033655    2.333538
     42          1           0        1.660074    1.078865    2.330704
     43          1           0        1.745316   -0.449451    3.221279
     44          1           0        0.233902    0.014882    2.432810
     45          7           0        2.643810   -0.602882   -2.140473
     46          1           0        3.298002    0.090197   -1.788909
     47          6           0        3.157736   -1.408928   -3.244222
     48          1           0        2.970800   -2.464807   -3.028209
     49          6           0        4.651825   -1.123126   -3.332422
     50          6           0        2.498997   -1.054946   -4.616119
     51          1           0        2.536310   -1.950772   -5.244066
     52          1           0        1.441221   -0.869962   -4.406359
     53          8           0        5.270796   -1.890141   -4.211685
     54          6           0        3.130119    0.140630   -5.382810
     55          1           0        3.628081    0.811708   -4.670678
     56          1           0        2.322691    0.739067   -5.818398
     57          6           0        4.108768   -0.274758   -6.522886
     58          1           0        4.321159   -1.346329   -6.459381
     59          1           0        3.609005   -0.121821   -7.487470
     60          6           0        5.454448    0.465226   -6.600797
     61          1           0        5.939900    0.178552   -7.539221
     62          1           0        5.292977    1.551996   -6.646695
     63          7           0        6.395636    0.111851   -5.501524
     64          1           0        7.357704    0.233940   -5.811184
     65          1           0        6.272177    0.729916   -4.699819
     66          1           0        5.975346   -1.297170   -4.678649
     67          8           0        5.155783   -0.172790   -2.745716
 ---------------------------------------------------------------------

 SCF Done:  E(RB3LYP) =  -1396.64226014     A.U. after    1 cycles

 Alpha  occ. eigenvalues --  -19.26389 -19.25133 -19.23992 -19.21314 -19.21066
 Alpha  occ. eigenvalues --  -14.60374 -14.49770 -14.48054 -14.44962 -14.41504
 Alpha  occ. eigenvalues --  -10.43746 -10.41716 -10.40805 -10.39047 -10.38222
 Alpha  occ. eigenvalues --  -10.35814 -10.33651 -10.31470 -10.30052 -10.29343
 Alpha  occ. eigenvalues --  -10.28981 -10.28588 -10.26966 -10.26527 -10.26259
 Alpha  occ. eigenvalues --  -10.26063 -10.25946 -10.25767 -10.25275  -1.19180
 Alpha  occ. eigenvalues --   -1.16536  -1.16026  -1.14296  -1.12950  -1.07963
 Alpha  occ. eigenvalues --   -1.06522  -1.04432  -1.01422  -0.96948  -0.92341
 Alpha  occ. eigenvalues --   -0.90231  -0.89341  -0.87378  -0.85230  -0.83240
 Alpha  occ. eigenvalues --   -0.80981  -0.77647  -0.77182  -0.76955  -0.75880
 Alpha  occ. eigenvalues --   -0.74982  -0.73422  -0.72470  -0.70810  -0.70096
 Alpha  occ. eigenvalues --   -0.68840  -0.67575  -0.66709  -0.66045  -0.65685
 Alpha  occ. eigenvalues --   -0.64551  -0.63973  -0.62277  -0.60788  -0.60019
 Alpha  occ. eigenvalues --   -0.59111  -0.58628  -0.57641  -0.57196  -0.56770
 Alpha  occ. eigenvalues --   -0.55794  -0.55379  -0.55202  -0.54376  -0.54132
 Alpha  occ. eigenvalues --   -0.53717  -0.53206  -0.52912  -0.51671  -0.51584
 Alpha  occ. eigenvalues --   -0.51500  -0.50227  -0.49772  -0.49248  -0.48844
 Alpha  occ. eigenvalues --   -0.48254  -0.48086  -0.47834  -0.47480  -0.46977
 Alpha  occ. eigenvalues --   -0.46930  -0.45655  -0.45448  -0.44546  -0.44107
 Alpha  occ. eigenvalues --   -0.43671  -0.43044  -0.42693  -0.42580  -0.41998
 Alpha  occ. eigenvalues --   -0.41884  -0.40909  -0.40729  -0.40248  -0.39855
 Alpha  occ. eigenvalues --   -0.39635  -0.38717  -0.37879  -0.37666  -0.35438
 Alpha  occ. eigenvalues --   -0.34742  -0.34586  -0.33533
 Alpha virt. eigenvalues --   -0.14806  -0.10747  -0.09934  -0.07299  -0.06649
 Alpha virt. eigenvalues --   -0.05953  -0.04719  -0.02075  -0.01865  -0.00490
 Alpha virt. eigenvalues --    0.00068   0.00488   0.01055   0.01667   0.01966

 Mulliken charges:
               1
     1  N   -0.758525
     2  H    0.413390
     3  H    0.423551
     4  H    0.460073
     5  C   -0.265092
     6  H    0.216748
     7  H    0.244829
     8  C    0.590898
     9  O   -0.480066
    10  N   -0.559403
    11  H    0.341531
    12  C   -0.070880
    13  H    0.210495
    14  C    0.654315
    15  C   -0.292596
    16  H    0.170004
    17  H    0.146648
    18  O   -0.617445
    19  C   -0.102762
    20  H    0.148685
    21  C   -0.455564
    22  H    0.155285
    23  H    0.175841
    24  H    0.138900
    25  C   -0.448528
    26  H    0.152918
    27  H    0.146370
    28  H    0.166098
    29  N   -0.588287
    30  H    0.381169
    31  C   -0.066728
    32  H    0.170945
    33  C    0.631756
    34  C   -0.072176
    35  H    0.156731
    36  O   -0.546233
    37  C   -0.468525
    38  H    0.147184
    39  H    0.169216
    40  H    0.169830
    41  C   -0.463563
    42  H    0.126862
    43  H    0.167680
    44  H    0.156998
    45  N   -0.611089
    46  H    0.358048
    47  C   -0.043721
    48  H    0.197699
    49  C    0.599670
    50  C   -0.266903
    51  H    0.169512
    52  H    0.162941
    53  O   -0.590817
    54  C   -0.296634
    55  H    0.141922
    56  H    0.148905
    57  C   -0.271737
    58  H    0.168777
    59  H    0.150425
    60  C   -0.149183
    61  H    0.162308
    62  H    0.147212
    63  N   -0.784521
    64  H    0.335999
    65  H    0.346520
    66  H    0.454396
    67  O   -0.508304
 Sum of Mulliken charges =   1.00000

 Dipole moment (field-independent basis, Debye):
    X=             -1.4863    Y=             13.4833    Z=              0.5381  Tot=             13.5756
 Quadrupole moment (field-independent basis, Debye-Ang):
   XX=           -119.3681   YY=           -127.4833   ZZ=           -104.5613
   XY=            -16.8921   XZ=            -38.1808   YZ=             26.9623

 Normal termination of Gaussian 16 at Fri May 27 01:48:54 2022.
