 Gaussian 16, Revision C.01,
 Gaussian 16:  ES64L-G16RevC.01  3-Jul-2019

 -------------------------------------------------------------------
 # B3LYP/6-31G* guess=read geom=check nosymm integral(ultrafinegrid)
 -------------------------------------------------------------------

 ------------------------------------------------------
 Candidate Structure: Conf:599 Charge calc in gas phase
 ------------------------------------------------------
 Structure from the checkpoint file:  "conf-599.chk"
 Charge =  1 Multiplicity = 1

                          Input orientation:
 ---------------------------------------------------------------------
 Center     Atomic      Atomic             Coordinates (Angstroms)
 Number     Number       Type             X           Y           Z
 ---------------------------------------------------------------------
      1          7           0       -5.720007    1.303175    4.130350
      2          1           0       -6.447037    2.023171    4.143687
      3          1           0       -5.896616    0.604510    3.324894
      4          1           0       -5.730933    0.815616    5.030085
      5          6           0       -4.362851    1.819741    3.739938
      6          1           0       -3.646423    1.619669    4.538390
      7          1           0       -4.414356    2.895497    3.563905
      8          6           0       -4.037764    1.027406    2.441394
      9          8           0       -4.909948    0.230579    2.051734
     10          7           0       -2.872483    1.268753    1.874358
     11          1           0       -2.176156    1.912386    2.266740
     12          6           0       -2.362156    0.612299    0.662424
     13          1           0       -2.584978   -0.456311    0.730157
     14          6           0       -0.836354    0.863889    0.745562
     15          6           0       -3.017189    1.222158   -0.602520
     16          1           0       -4.101635    1.215055   -0.431855
     17          1           0       -2.708519    2.273803   -0.665023
     18          8           0       -0.419173    1.782026    1.461373
     19          6           0       -2.734313    0.515054   -1.945611
     20          1           0       -1.653107    0.517963   -2.133732
     21          6           0       -3.220661   -0.943066   -1.958471
     22          1           0       -4.296767   -1.001540   -1.750922
     23          1           0       -3.043172   -1.395815   -2.939182
     24          1           0       -2.706837   -1.572925   -1.221633
     25          6           0       -3.397881    1.312765   -3.079751
     26          1           0       -4.488589    1.338147   -2.959959
     27          1           0       -3.038203    2.347957   -3.107417
     28          1           0       -3.181085    0.856628   -4.051331
     29          7           0       -0.059432    0.040849    0.027437
     30          1           0       -0.466593   -0.614035   -0.636158
     31          6           0        1.379465    0.226314   -0.168660
     32          1           0        1.627376    1.250392    0.127857
     33          6           0        1.592220    0.013083   -1.683597
     34          6           0        2.215842   -0.776238    0.684840
     35          1           0        1.988229   -1.781792    0.303149
     36          8           0        0.834441   -0.738449   -2.304956
     37          6           0        3.726334   -0.530125    0.540522
     38          1           0        3.995763    0.479923    0.876670
     39          1           0        4.279696   -1.238067    1.166033
     40          1           0        4.084175   -0.652269   -0.485160
     41          6           0        1.809785   -0.716493    2.164972
     42          1           0        1.975606    0.283950    2.581080
     43          1           0        2.407994   -1.427955    2.744315
     44          1           0        0.756020   -0.973280    2.309131
     45          7           0        2.615753    0.678242   -2.253548
     46          1           0        3.282332    1.195031   -1.687329
     47          6           0        3.060188    0.424663   -3.619189
     48          1           0        2.955314   -0.645759   -3.830352
     49          6           0        4.535962    0.811040   -3.695409
     50          6           0        2.240804    1.180917   -4.699706
     51          1           0        2.606625    0.831982   -5.670568
     52          1           0        1.207881    0.826657   -4.610456
     53          8           0        5.042262    0.582622   -4.899053
     54          6           0        2.226455    2.723076   -4.646041
     55          1           0        1.792953    3.039000   -3.687815
     56          1           0        1.518833    3.059953   -5.415974
     57          6           0        3.557564    3.491360   -4.827724
     58          1           0        3.328396    4.560163   -4.737096
     59          1           0        4.225636    3.266727   -3.990835
     60          6           0        4.319118    3.251414   -6.154442
     61          1           0        3.889639    2.408333   -6.704452
     62          1           0        4.232233    4.132673   -6.804422
     63          7           0        5.743409    2.905440   -5.901239
     64          1           0        6.254737    2.855756   -6.782357
     65          1           0        6.192097    3.635298   -5.348086
     66          1           0        5.636338    1.373940   -5.171829
     67          8           0        5.118982    1.351595   -2.768895
 ---------------------------------------------------------------------

 SCF Done:  E(RB3LYP) =  -1396.64350927     A.U. after    1 cycles

 Alpha  occ. eigenvalues --  -19.28183 -19.22422 -19.22071 -19.19760 -19.19585
 Alpha  occ. eigenvalues --  -14.61628 -14.50205 -14.45548 -14.43476 -14.41326
 Alpha  occ. eigenvalues --  -10.44948 -10.42142 -10.39152 -10.37586 -10.36640
 Alpha  occ. eigenvalues --  -10.34847 -10.31552 -10.30078 -10.28616 -10.28393
 Alpha  occ. eigenvalues --  -10.27507 -10.27294 -10.25332 -10.25274 -10.25244
 Alpha  occ. eigenvalues --  -10.25044 -10.24995 -10.24545 -10.24387  -1.20617
 Alpha  occ. eigenvalues --   -1.15198  -1.14856  -1.14015  -1.11382  -1.06862
 Alpha  occ. eigenvalues --   -1.06554  -1.02083  -0.99925  -0.96682  -0.92202
 Alpha  occ. eigenvalues --   -0.89606  -0.88275  -0.86408  -0.84734  -0.82194
 Alpha  occ. eigenvalues --   -0.79147  -0.76706  -0.76005  -0.75897  -0.75626
 Alpha  occ. eigenvalues --   -0.75321  -0.75265  -0.71655  -0.70438  -0.68987
 Alpha  occ. eigenvalues --   -0.67307  -0.67225  -0.65811  -0.65474  -0.64633
 Alpha  occ. eigenvalues --   -0.64012  -0.62993  -0.61636  -0.60938  -0.59376
 Alpha  occ. eigenvalues --   -0.58051  -0.56842  -0.56604  -0.56308  -0.55983
 Alpha  occ. eigenvalues --   -0.54768  -0.54222  -0.53836  -0.53407  -0.53182
 Alpha  occ. eigenvalues --   -0.52538  -0.51772  -0.51420  -0.51126  -0.50869
 Alpha  occ. eigenvalues --   -0.50318  -0.49512  -0.48221  -0.48069  -0.47510
 Alpha  occ. eigenvalues --   -0.46875  -0.46236  -0.46198  -0.46110  -0.45825
 Alpha  occ. eigenvalues --   -0.45087  -0.45009  -0.44696  -0.44136  -0.43378
 Alpha  occ. eigenvalues --   -0.42758  -0.42552  -0.41642  -0.41207  -0.41033
 Alpha  occ. eigenvalues --   -0.40701  -0.40576  -0.40042  -0.39545  -0.39075
 Alpha  occ. eigenvalues --   -0.38645  -0.36378  -0.36244  -0.35226  -0.33966
 Alpha  occ. eigenvalues --   -0.33469  -0.32978  -0.32638
 Alpha virt. eigenvalues --   -0.13230  -0.12974  -0.08015  -0.07401  -0.05836
 Alpha virt. eigenvalues --   -0.05716  -0.05246  -0.02287  -0.01449  -0.00588
 Alpha virt. eigenvalues --    0.00629   0.01069   0.01517   0.02358   0.03006

 Mulliken charges:
               1
     1  N   -0.752072
     2  H    0.421813
     3  H    0.440752
     4  H    0.422093
     5  C   -0.276457
     6  H    0.247772
     7  H    0.247577
     8  C    0.642087
     9  O   -0.534544
    10  N   -0.603110
    11  H    0.376897
    12  C   -0.071561
    13  H    0.192664
    14  C    0.626712
    15  C   -0.258332
    16  H    0.157513
    17  H    0.152323
    18  O   -0.548636
    19  C   -0.102958
    20  H    0.153847
    21  C   -0.453651
    22  H    0.150479
    23  H    0.172278
    24  H    0.135972
    25  C   -0.447854
    26  H    0.145760
    27  H    0.147294
    28  H    0.162936
    29  N   -0.610809
    30  H    0.370685
    31  C   -0.065388
    32  H    0.178176
    33  C    0.625067
    34  C   -0.074253
    35  H    0.145811
    36  O   -0.548399
    37  C   -0.470601
    38  H    0.150617
    39  H    0.164576
    40  H    0.165829
    41  C   -0.444976
    42  H    0.158441
    43  H    0.157734
    44  H    0.135596
    45  N   -0.609992
    46  H    0.359492
    47  C   -0.036690
    48  H    0.194864
    49  C    0.598354
    50  C   -0.277330
    51  H    0.166912
    52  H    0.165863
    53  O   -0.604647
    54  C   -0.278024
    55  H    0.139332
    56  H    0.145758
    57  C   -0.304045
    58  H    0.148584
    59  H    0.171938
    60  C   -0.140656
    61  H    0.168700
    62  H    0.151353
    63  N   -0.776468
    64  H    0.333179
    65  H    0.333295
    66  H    0.456779
    67  O   -0.492246
 Sum of Mulliken charges =   1.00000

 Dipole moment (field-independent basis, Debye):
    X=            -15.2557    Y=              9.7545    Z=              8.8860  Tot=             20.1705
 Quadrupole moment (field-independent basis, Debye-Ang):
   XX=            -45.3631   YY=           -149.4149   ZZ=            -61.7439
   XY=            -14.8801   XZ=           -113.1007   YZ=             -6.3405

 Normal termination of Gaussian 16 at Fri May 27 01:48:46 2022.
