 Gaussian 16, Revision C.01,
 Gaussian 16:  ES64L-G16RevC.01  3-Jul-2019

 -------------------------------------------------------------------
 # B3LYP/6-31G* guess=read geom=check nosymm integral(ultrafinegrid)
 -------------------------------------------------------------------

 ------------------------------------------------------
 Candidate Structure: Conf:156 Charge calc in gas phase
 ------------------------------------------------------
 Structure from the checkpoint file:  "conf-156.chk"
 Charge =  1 Multiplicity = 1

                          Input orientation:
 ---------------------------------------------------------------------
 Center     Atomic      Atomic             Coordinates (Angstroms)
 Number     Number       Type             X           Y           Z
 ---------------------------------------------------------------------
      1          7           0       -5.885566    2.085833    3.215204
      2          1           0       -6.272045    1.424628    3.894303
      3          1           0       -6.335598    2.994066    3.357283
      4          1           0       -6.062295    1.733940    2.212273
      5          6           0       -4.382815    2.148163    3.222218
      6          1           0       -3.989446    1.498720    4.006074
      7          1           0       -4.057423    3.173126    3.408103
      8          6           0       -3.993245    1.658064    1.798733
      9          8           0       -4.932715    1.364032    1.039147
     10          7           0       -2.703702    1.597902    1.528282
     11          1           0       -1.972598    1.819286    2.214254
     12          6           0       -2.115555    1.142864    0.261412
     13          1           0       -2.644994    0.241077   -0.060261
     14          6           0       -0.653513    0.814299    0.656628
     15          6           0       -2.226782    2.250930   -0.815703
     16          1           0       -3.273719    2.580433   -0.825418
     17          1           0       -1.623624    3.104455   -0.481040
     18          8           0       -0.198330    1.292783    1.700691
     19          6           0       -1.828040    1.867847   -2.256605
     20          1           0       -0.780142    1.539142   -2.259681
     21          6           0       -2.696135    0.733124   -2.824979
     22          1           0       -3.758988    1.004580   -2.807924
     23          1           0       -2.425324    0.526005   -3.866033
     24          1           0       -2.588816   -0.208346   -2.271473
     25          6           0       -1.920385    3.115123   -3.150392
     26          1           0       -2.949204    3.494039   -3.194345
     27          1           0       -1.279443    3.922980   -2.779881
     28          1           0       -1.609452    2.884459   -4.175138
     29          7           0        0.033182    0.014403   -0.174141
     30          1           0       -0.372655   -0.301500   -1.047497
     31          6           0        1.456152   -0.295800   -0.003505
     32          1           0        1.858892    0.434738    0.702086
     33          6           0        2.103442   -0.129103   -1.383697
     34          6           0        1.701427   -1.734978    0.551459
     35          1           0        1.477790   -2.435096   -0.266944
     36          8           0        1.428950   -0.531353   -2.386782
     37          6           0        3.168243   -1.915538    0.978991
     38          1           0        3.393731   -1.289789    1.851343
     39          1           0        3.345139   -2.957022    1.267634
     40          1           0        3.893749   -1.653695    0.204132
     41          6           0        0.765691   -2.055203    1.726553
     42          1           0        0.898742   -1.335391    2.542270
     43          1           0        0.991638   -3.052806    2.117834
     44          1           0       -0.288293   -2.045582    1.429650
     45          7           0        3.305332    0.396460   -1.419460
     46          1           0        3.906112    0.497952   -0.554915
     47          6           0        4.285117    0.412766   -2.507885
     48          1           0        4.181485   -0.488964   -3.123173
     49          6           0        5.697836    0.280441   -1.763602
     50          6           0        4.247497    1.682440   -3.362562
     51          1           0        4.174195    2.542651   -2.686009
     52          1           0        5.226649    1.748355   -3.850370
     53          8           0        6.666070    0.187368   -2.521853
     54          6           0        3.131167    1.769262   -4.418897
     55          1           0        3.087106    2.798262   -4.793450
     56          1           0        2.155894    1.581552   -3.949508
     57          6           0        3.340864    0.818163   -5.629200
     58          1           0        3.377350    1.396923   -6.559147
     59          1           0        4.318373    0.320469   -5.560759
     60          6           0        2.259701   -0.237444   -5.844303
     61          1           0        1.258122    0.201715   -5.840692
     62          1           0        2.402941   -0.768441   -6.789744
     63          7           0        2.263546   -1.279249   -4.750159
     64          1           0        1.598932   -2.031593   -4.952656
     65          1           0        3.191333   -1.706576   -4.667960
     66          1           0        1.997722   -0.875719   -3.763515
     67          8           0        5.594626    0.294275   -0.502506
 ---------------------------------------------------------------------

 SCF Done:  E(RB3LYP) =  -1396.59654433     A.U. after    1 cycles

 Alpha  occ. eigenvalues --  -19.28818 -19.22871 -19.22333 -19.11140 -19.09706
 Alpha  occ. eigenvalues --  -14.62274 -14.54395 -14.50859 -14.46709 -14.42844
 Alpha  occ. eigenvalues --  -10.45607 -10.42685 -10.40054 -10.37835 -10.35875
 Alpha  occ. eigenvalues --  -10.35482 -10.32011 -10.29775 -10.29223 -10.28862
 Alpha  occ. eigenvalues --  -10.28807 -10.27445 -10.27339 -10.27217 -10.26526
 Alpha  occ. eigenvalues --  -10.26475 -10.24883 -10.24265 -10.23371  -1.21220
 Alpha  occ. eigenvalues --   -1.15872  -1.14906  -1.12578  -1.09191  -1.07559
 Alpha  occ. eigenvalues --   -1.04285  -1.02976  -0.99608  -0.95504  -0.93078
 Alpha  occ. eigenvalues --   -0.90653  -0.89304  -0.88479  -0.85712  -0.84054
 Alpha  occ. eigenvalues --   -0.80402  -0.78206  -0.77496  -0.77098  -0.76200
 Alpha  occ. eigenvalues --   -0.75936  -0.75046  -0.73036  -0.72114  -0.69703
 Alpha  occ. eigenvalues --   -0.69309  -0.68173  -0.67481  -0.66650  -0.65880
 Alpha  occ. eigenvalues --   -0.65226  -0.64561  -0.63746  -0.62265  -0.61970
 Alpha  occ. eigenvalues --   -0.60334  -0.59964  -0.58496  -0.57327  -0.57190
 Alpha  occ. eigenvalues --   -0.55726  -0.55093  -0.54825  -0.54363  -0.53748
 Alpha  occ. eigenvalues --   -0.53429  -0.52915  -0.52392  -0.52025  -0.51388
 Alpha  occ. eigenvalues --   -0.50862  -0.49295  -0.48826  -0.48573  -0.48250
 Alpha  occ. eigenvalues --   -0.47730  -0.47305  -0.46613  -0.46448  -0.45854
 Alpha  occ. eigenvalues --   -0.45671  -0.44627  -0.44317  -0.44048  -0.43797
 Alpha  occ. eigenvalues --   -0.42819  -0.42411  -0.42038  -0.41779  -0.41233
 Alpha  occ. eigenvalues --   -0.40759  -0.40551  -0.40414  -0.40045  -0.39942
 Alpha  occ. eigenvalues --   -0.38217  -0.37617  -0.36676  -0.35152  -0.34086
 Alpha  occ. eigenvalues --   -0.26075  -0.25922  -0.23925
 Alpha virt. eigenvalues --   -0.13850  -0.13517  -0.08887  -0.08026  -0.07281
 Alpha virt. eigenvalues --   -0.06689  -0.06341  -0.03049  -0.02737  -0.02081
 Alpha virt. eigenvalues --   -0.01840  -0.00165   0.00484   0.00909   0.01358

 Mulliken charges:
               1
     1  N   -0.751185
     2  H    0.423462
     3  H    0.423325
     4  H    0.439733
     5  C   -0.277123
     6  H    0.250018
     7  H    0.249911
     8  C    0.641130
     9  O   -0.535228
    10  N   -0.604276
    11  H    0.380572
    12  C   -0.071490
    13  H    0.189173
    14  C    0.633301
    15  C   -0.259226
    16  H    0.160820
    17  H    0.159541
    18  O   -0.540471
    19  C   -0.101394
    20  H    0.143813
    21  C   -0.453761
    22  H    0.159954
    23  H    0.154182
    24  H    0.134300
    25  C   -0.446577
    26  H    0.151193
    27  H    0.157095
    28  H    0.151765
    29  N   -0.614251
    30  H    0.357453
    31  C   -0.042812
    32  H    0.198422
    33  C    0.625099
    34  C   -0.084877
    35  H    0.128648
    36  O   -0.660746
    37  C   -0.470750
    38  H    0.161915
    39  H    0.155811
    40  H    0.185433
    41  C   -0.448271
    42  H    0.162519
    43  H    0.161222
    44  H    0.125505
    45  N   -0.568278
    46  H    0.386621
    47  C   -0.094273
    48  H    0.087453
    49  C    0.604595
    50  C   -0.266033
    51  H    0.151963
    52  H    0.190597
    53  O   -0.558816
    54  C   -0.290271
    55  H    0.158744
    56  H    0.137063
    57  C   -0.285933
    58  H    0.181982
    59  H    0.180537
    60  C   -0.192803
    61  H    0.195650
    62  H    0.194753
    63  N   -0.773369
    64  H    0.390382
    65  H    0.399722
    66  H    0.467312
    67  O   -0.600477
 Sum of Mulliken charges =   1.00000

 Dipole moment (field-independent basis, Debye):
    X=            -27.6690    Y=              4.7062    Z=              0.3187  Tot=             28.0682
 Quadrupole moment (field-independent basis, Debye-Ang):
   XX=           -146.0381   YY=           -140.1116   ZZ=            -53.9509
   XY=            -56.5261   XZ=            -84.6983   YZ=             38.6272

 Normal termination of Gaussian 16 at Fri May 27 01:48:41 2022.
