 Gaussian 16, Revision C.01,
 Gaussian 16:  ES64L-G16RevC.01  3-Jul-2019

 -------------------------------------------------------------------
 # B3LYP/6-31G* guess=read geom=check nosymm integral(ultrafinegrid)
 -------------------------------------------------------------------

 ------------------------------------------------------
 Candidate Structure: Conf:150 Charge calc in gas phase
 ------------------------------------------------------
 Structure from the checkpoint file:  "conf-150.chk"
 Charge =  1 Multiplicity = 1

                          Input orientation:
 ---------------------------------------------------------------------
 Center     Atomic      Atomic             Coordinates (Angstroms)
 Number     Number       Type             X           Y           Z
 ---------------------------------------------------------------------
      1          7           0       -5.710961    1.191354    4.531526
      2          1           0       -5.431167    0.761841    5.417328
      3          1           0       -6.562251    1.736061    4.690214
      4          1           0       -5.879924    0.426573    3.786315
      5          6           0       -4.608099    1.966475    3.865153
      6          1           0       -3.732149    2.002514    4.515014
      7          1           0       -4.946069    2.983483    3.659832
      8          6           0       -4.342720    1.164902    2.558392
      9          8           0       -5.079064    0.180891    2.362632
     10          7           0       -3.372769    1.614598    1.786957
     11          1           0       -2.704854    2.325968    2.119242
     12          6           0       -2.801433    0.931839    0.617671
     13          1           0       -2.972426   -0.142986    0.722008
     14          6           0       -1.285728    1.257877    0.731327
     15          6           0       -3.371919    1.456349   -0.716580
     16          1           0       -3.192829    2.539276   -0.749699
     17          1           0       -2.770017    1.020444   -1.525604
     18          8           0       -0.936607    2.194426    1.463442
     19          6           0       -4.861715    1.165552   -0.986844
     20          1           0       -5.447637    1.556670   -0.142062
     21          6           0       -5.308100    1.916992   -2.250909
     22          1           0       -4.752197    1.567824   -3.130460
     23          1           0       -6.373736    1.755020   -2.447184
     24          1           0       -5.142659    2.996898   -2.158707
     25          6           0       -5.152902   -0.337184   -1.113431
     26          1           0       -4.558158   -0.784894   -1.920164
     27          1           0       -4.939023   -0.879166   -0.186820
     28          1           0       -6.209439   -0.505499   -1.350382
     29          7           0       -0.472994    0.483677    0.011196
     30          1           0       -0.841466   -0.155750   -0.695480
     31          6           0        0.959893    0.705890   -0.178453
     32          1           0        1.164584    1.773219   -0.046491
     33          6           0        1.251437    0.280551   -1.639172
     34          6           0        1.850655   -0.102832    0.812445
     35          1           0        2.884178    0.069149    0.484581
     36          8           0        0.402113   -0.377281   -2.269329
     37          6           0        1.719735    0.412682    2.251781
     38          1           0        0.714691    0.236551    2.653302
     39          1           0        2.434703   -0.105466    2.900754
     40          1           0        1.919521    1.487397    2.316218
     41          6           0        1.580125   -1.612610    0.735354
     42          1           0        0.562611   -1.851344    1.070513
     43          1           0        2.278589   -2.152719    1.383029
     44          1           0        1.700350   -2.001000   -0.281193
     45          7           0        2.456458    0.641936   -2.081628
     46          1           0        3.167605    1.012708   -1.416351
     47          6           0        3.244830   -0.043148   -3.103433
     48          1           0        2.995347   -1.112890   -3.096651
     49          6           0        4.766542    0.101976   -2.620007
     50          6           0        3.101758    0.492750   -4.525555
     51          1           0        3.110237    1.591388   -4.503258
     52          1           0        4.013756    0.165908   -5.040400
     53          8           0        5.607621   -0.322099   -3.426155
     54          6           0        1.867437   -0.010240   -5.283987
     55          1           0        0.943427    0.340928   -4.810061
     56          1           0        1.841355   -1.107728   -5.235029
     57          6           0        1.924623    0.423849   -6.760365
     58          1           0        1.883146    1.520425   -6.828964
     59          1           0        2.891357    0.108184   -7.179311
     60          6           0        0.797510   -0.187880   -7.572373
     61          1           0        0.804161   -1.280074   -7.540134
     62          1           0       -0.190432    0.173426   -7.276905
     63          7           0        0.953121    0.182074   -9.058670
     64          1           0        0.214945   -0.217514   -9.650351
     65          1           0        0.940609    1.201870   -9.179366
     66          1           0        1.858354   -0.150184   -9.413242
     67          8           0        4.890872    0.633902   -1.481551
 ---------------------------------------------------------------------

 SCF Done:  E(RB3LYP) =  -1396.55726873     A.U. after    1 cycles

 Alpha  occ. eigenvalues --  -19.27348 -19.20162 -19.15818 -19.07280 -19.06205
 Alpha  occ. eigenvalues --  -14.62879 -14.60827 -14.48939 -14.43022 -14.37010
 Alpha  occ. eigenvalues --  -10.44012 -10.41204 -10.39369 -10.37119 -10.33485
 Alpha  occ. eigenvalues --  -10.32200 -10.30847 -10.27992 -10.27778 -10.27444
 Alpha  occ. eigenvalues --  -10.25769 -10.25168 -10.25167 -10.24901 -10.23587
 Alpha  occ. eigenvalues --  -10.22809 -10.21787 -10.21455 -10.21388  -1.19702
 Alpha  occ. eigenvalues --   -1.16695  -1.14317  -1.12050  -1.06954  -1.05632
 Alpha  occ. eigenvalues --   -1.00343  -0.99542  -0.94457  -0.92292  -0.91521
 Alpha  occ. eigenvalues --   -0.91276  -0.88837  -0.85480  -0.83774  -0.83307
 Alpha  occ. eigenvalues --   -0.78224  -0.76531  -0.76004  -0.75489  -0.75329
 Alpha  occ. eigenvalues --   -0.74860  -0.74582  -0.74432  -0.72379  -0.70631
 Alpha  occ. eigenvalues --   -0.69487  -0.67276  -0.65773  -0.65378  -0.64247
 Alpha  occ. eigenvalues --   -0.63226  -0.63002  -0.61594  -0.60888  -0.59963
 Alpha  occ. eigenvalues --   -0.59458  -0.58491  -0.57776  -0.56253  -0.54827
 Alpha  occ. eigenvalues --   -0.53643  -0.53184  -0.52852  -0.52447  -0.52286
 Alpha  occ. eigenvalues --   -0.51426  -0.51061  -0.49601  -0.49300  -0.48882
 Alpha  occ. eigenvalues --   -0.48045  -0.47596  -0.46854  -0.46526  -0.46098
 Alpha  occ. eigenvalues --   -0.45895  -0.45560  -0.44380  -0.44041  -0.43378
 Alpha  occ. eigenvalues --   -0.42580  -0.42326  -0.42205  -0.41699  -0.41412
 Alpha  occ. eigenvalues --   -0.40914  -0.40721  -0.39702  -0.38919  -0.38737
 Alpha  occ. eigenvalues --   -0.38433  -0.37572  -0.37367  -0.37248  -0.36528
 Alpha  occ. eigenvalues --   -0.34634  -0.34366  -0.32505  -0.29854  -0.28552
 Alpha  occ. eigenvalues --   -0.22330  -0.22124  -0.20505
 Alpha virt. eigenvalues --   -0.13514  -0.12489  -0.12055  -0.06881  -0.06836
 Alpha virt. eigenvalues --   -0.06655  -0.05635  -0.04796  -0.03991  -0.01697
 Alpha virt. eigenvalues --   -0.01397  -0.00991  -0.00494   0.01072   0.01108

 Mulliken charges:
               1
     1  N   -0.752290
     2  H    0.421552
     3  H    0.419711
     4  H    0.439100
     5  C   -0.278493
     6  H    0.249716
     7  H    0.247061
     8  C    0.635525
     9  O   -0.535059
    10  N   -0.584766
    11  H    0.375000
    12  C   -0.089513
    13  H    0.191759
    14  C    0.631996
    15  C   -0.260324
    16  H    0.151569
    17  H    0.164292
    18  O   -0.555449
    19  C   -0.069855
    20  H    0.117504
    21  C   -0.445281
    22  H    0.144575
    23  H    0.153044
    24  H    0.146001
    25  C   -0.458321
    26  H    0.145980
    27  H    0.159723
    28  H    0.152892
    29  N   -0.601223
    30  H    0.356732
    31  C   -0.068332
    32  H    0.178712
    33  C    0.600797
    34  C   -0.091910
    35  H    0.188474
    36  O   -0.594049
    37  C   -0.439377
    38  H    0.123515
    39  H    0.152044
    40  H    0.155158
    41  C   -0.459759
    42  H    0.124089
    43  H    0.158168
    44  H    0.166618
    45  N   -0.602691
    46  H    0.368218
    47  C   -0.078137
    48  H    0.138349
    49  C    0.586402
    50  C   -0.261249
    51  H    0.129880
    52  H    0.174887
    53  O   -0.578442
    54  C   -0.268322
    55  H    0.167159
    56  H    0.147441
    57  C   -0.291388
    58  H    0.160735
    59  H    0.166650
    60  C   -0.205572
    61  H    0.225869
    62  H    0.220985
    63  N   -0.731002
    64  H    0.422997
    65  H    0.423164
    66  H    0.426284
    67  O   -0.609527
 Sum of Mulliken charges =   1.00000

 Dipole moment (field-independent basis, Debye):
    X=            -30.2170    Y=              6.2108    Z=            -13.2519  Tot=             33.5746
 Quadrupole moment (field-independent basis, Debye-Ang):
   XX=           -145.1101   YY=           -164.1157   ZZ=            212.8562
   XY=            -35.3192   XZ=            -84.1816   YZ=             14.2813

 Normal termination of Gaussian 16 at Fri May 27 01:48:38 2022.
