 Gaussian 16, Revision C.01,
 Gaussian 16:  ES64L-G16RevC.01  3-Jul-2019

 -------------------------------------------------------------------
 # B3LYP/6-31G* guess=read geom=check nosymm integral(ultrafinegrid)
 -------------------------------------------------------------------

 ------------------------------------------------------
 Candidate Structure: Conf:797 Charge calc in gas phase
 ------------------------------------------------------
 Structure from the checkpoint file:  "conf-797.chk"
 Charge =  1 Multiplicity = 1

                          Input orientation:
 ---------------------------------------------------------------------
 Center     Atomic      Atomic             Coordinates (Angstroms)
 Number     Number       Type             X           Y           Z
 ---------------------------------------------------------------------
      1          7           0       -0.974417   -2.919062    0.058921
      2          1           0       -0.693768   -3.808008    0.481285
      3          1           0       -1.409649   -3.076381   -0.862772
      4          1           0       -0.118367   -2.325642   -0.164182
      5          6           0       -1.975245   -2.160780    0.881724
      6          1           0       -1.498405   -1.847386    1.811817
      7          1           0       -2.819256   -2.820006    1.101423
      8          6           0       -2.379659   -0.994517   -0.037827
      9          8           0       -2.367160   -1.215413   -1.252923
     10          7           0       -2.609855    0.202049    0.521571
     11          1           0       -2.512787    0.302370    1.525872
     12          6           0       -2.528125    1.450069   -0.274869
     13          1           0       -2.852498    1.178170   -1.282073
     14          6           0       -1.019130    1.861624   -0.302867
     15          6           0       -3.426826    2.538624    0.315954
     16          1           0       -4.398107    2.082644    0.550032
     17          1           0       -2.983445    2.880233    1.259210
     18          8           0       -0.627617    2.920827    0.161650
     19          6           0       -3.652416    3.760943   -0.601892
     20          1           0       -2.667887    4.144559   -0.895842
     21          6           0       -4.442926    3.403126   -1.870061
     22          1           0       -5.435351    3.007498   -1.618056
     23          1           0       -4.590966    4.292247   -2.492279
     24          1           0       -3.934356    2.657905   -2.493884
     25          6           0       -4.369193    4.866573    0.187456
     26          1           0       -5.356230    4.531436    0.531719
     27          1           0       -3.789243    5.169759    1.066425
     28          1           0       -4.520245    5.754250   -0.436005
     29          7           0       -0.201181    0.887945   -0.806711
     30          1           0       -0.636617    0.115639   -1.295888
     31          6           0        1.259988    0.884157   -0.755024
     32          1           0        1.652766    1.654542   -1.431945
     33          6           0        1.713303   -0.494618   -1.256732
     34          6           0        1.837548    1.193035    0.668230
     35          1           0        1.399514    2.159194    0.932020
     36          8           0        1.092384   -1.546290   -0.976523
     37          6           0        1.419216    0.172256    1.734437
     38          1           0        1.858434   -0.815401    1.551145
     39          1           0        1.754496    0.506159    2.721630
     40          1           0        0.328581    0.063893    1.778896
     41          6           0        3.363046    1.366588    0.629234
     42          1           0        3.887402    0.428240    0.415266
     43          1           0        3.719797    1.726595    1.599467
     44          1           0        3.667999    2.105087   -0.121724
     45          7           0        2.820884   -0.515327   -1.998647
     46          1           0        3.344566    0.337856   -2.183008
     47          6           0        3.490094   -1.729919   -2.459013
     48          1           0        3.455040   -2.477326   -1.661750
     49          6           0        4.929436   -1.331268   -2.775757
     50          6           0        2.842675   -2.326805   -3.750461
     51          1           0        3.030475   -3.405373   -3.746016
     52          1           0        1.761023   -2.199056   -3.641673
     53          8           0        5.690510   -2.362682   -3.079100
     54          6           0        3.332877   -1.724142   -5.097179
     55          1           0        3.698715   -0.702838   -4.931512
     56          1           0        2.467592   -1.610620   -5.758484
     57          6           0        4.408600   -2.581843   -5.830436
     58          1           0        4.762750   -3.380744   -5.171496
     59          1           0        3.935336   -3.081420   -6.684591
     60          6           0        5.642189   -1.846130   -6.380570
     61          1           0        6.199613   -2.550395   -7.005949
     62          1           0        5.336470   -1.016264   -7.032449
     63          7           0        6.578281   -1.368885   -5.321880
     64          1           0        7.533347   -1.360545   -5.674529
     65          1           0        6.366020   -0.409313   -5.049217
     66          1           0        6.311598   -2.053534   -3.860061
     67          8           0        5.248865   -0.153325   -2.877283
 ---------------------------------------------------------------------

 SCF Done:  E(RB3LYP) =  -1396.64901243     A.U. after    1 cycles

 Alpha  occ. eigenvalues --  -19.26809 -19.25323 -19.25292 -19.22804 -19.22286
 Alpha  occ. eigenvalues --  -14.59299 -14.50712 -14.47901 -14.46440 -14.43004
 Alpha  occ. eigenvalues --  -10.44355 -10.41622 -10.40927 -10.40611 -10.39417
 Alpha  occ. eigenvalues --  -10.34598 -10.34547 -10.33747 -10.30250 -10.29353
 Alpha  occ. eigenvalues --  -10.28698 -10.27847 -10.27710 -10.27470 -10.26687
 Alpha  occ. eigenvalues --  -10.26653 -10.26598 -10.24675 -10.24017  -1.19416
 Alpha  occ. eigenvalues --   -1.18007  -1.16258  -1.14155  -1.13459  -1.09472
 Alpha  occ. eigenvalues --   -1.06859  -1.04288  -1.02887  -0.98356  -0.91757
 Alpha  occ. eigenvalues --   -0.90528  -0.89092  -0.88600  -0.85071  -0.84124
 Alpha  occ. eigenvalues --   -0.81468  -0.78716  -0.78187  -0.75561  -0.74997
 Alpha  occ. eigenvalues --   -0.73855  -0.73307  -0.73011  -0.71880  -0.70922
 Alpha  occ. eigenvalues --   -0.70092  -0.68614  -0.66904  -0.65602  -0.65181
 Alpha  occ. eigenvalues --   -0.64949  -0.63945  -0.62425  -0.60790  -0.60268
 Alpha  occ. eigenvalues --   -0.60066  -0.59483  -0.59013  -0.58623  -0.57449
 Alpha  occ. eigenvalues --   -0.56868  -0.55683  -0.55324  -0.54951  -0.54588
 Alpha  occ. eigenvalues --   -0.54120  -0.53724  -0.52820  -0.52519  -0.51602
 Alpha  occ. eigenvalues --   -0.51366  -0.51149  -0.50390  -0.50111  -0.49505
 Alpha  occ. eigenvalues --   -0.49085  -0.48703  -0.47871  -0.47400  -0.47213
 Alpha  occ. eigenvalues --   -0.46472  -0.46159  -0.45536  -0.45350  -0.44381
 Alpha  occ. eigenvalues --   -0.44002  -0.43773  -0.43552  -0.42334  -0.42011
 Alpha  occ. eigenvalues --   -0.41682  -0.41568  -0.41396  -0.40265  -0.40145
 Alpha  occ. eigenvalues --   -0.39421  -0.39313  -0.38896  -0.37807  -0.36601
 Alpha  occ. eigenvalues --   -0.35696  -0.35260  -0.34869
 Alpha virt. eigenvalues --   -0.14457  -0.10712  -0.09711  -0.08347  -0.07756
 Alpha virt. eigenvalues --   -0.06510  -0.03415  -0.02567  -0.01615  -0.01020
 Alpha virt. eigenvalues --   -0.00717   0.00209   0.00376   0.01821   0.02011

 Mulliken charges:
               1
     1  N   -0.754750
     2  H    0.408102
     3  H    0.420060
     4  H    0.457227
     5  C   -0.279935
     6  H    0.223883
     7  H    0.244266
     8  C    0.634250
     9  O   -0.522588
    10  N   -0.579523
    11  H    0.351238
    12  C   -0.101004
    13  H    0.209074
    14  C    0.629395
    15  C   -0.266980
    16  H    0.147010
    17  H    0.155516
    18  O   -0.490867
    19  C   -0.085665
    20  H    0.158617
    21  C   -0.455367
    22  H    0.148254
    23  H    0.164059
    24  H    0.136414
    25  C   -0.449333
    26  H    0.144521
    27  H    0.153897
    28  H    0.158478
    29  N   -0.666900
    30  H    0.359908
    31  C    0.009582
    32  H    0.174317
    33  C    0.627971
    34  C   -0.104228
    35  H    0.202228
    36  O   -0.619228
    37  C   -0.457357
    38  H    0.143522
    39  H    0.174616
    40  H    0.108403
    41  C   -0.469098
    42  H    0.150784
    43  H    0.173157
    44  H    0.160489
    45  N   -0.591312
    46  H    0.372964
    47  C   -0.047709
    48  H    0.184377
    49  C    0.604825
    50  C   -0.268348
    51  H    0.167392
    52  H    0.155611
    53  O   -0.593518
    54  C   -0.297923
    55  H    0.148965
    56  H    0.157181
    57  C   -0.274775
    58  H    0.166592
    59  H    0.155122
    60  C   -0.150385
    61  H    0.166512
    62  H    0.156300
    63  N   -0.789738
    64  H    0.342431
    65  H    0.351776
    66  H    0.458860
    67  O   -0.501615
 Sum of Mulliken charges =   1.00000

 Dipole moment (field-independent basis, Debye):
    X=              1.2494    Y=             -8.8031    Z=             -4.6666  Tot=             10.0416
 Quadrupole moment (field-independent basis, Debye-Ang):
   XX=           -117.4930   YY=           -142.6639   ZZ=           -119.2691
   XY=             -3.5082   XZ=            -50.6801   YZ=              4.2110

 Normal termination of Gaussian 16 at Fri May 27 01:48:51 2022.
