 Gaussian 16, Revision C.01,
 Gaussian 16:  ES64L-G16RevC.01  3-Jul-2019

 -------------------------------------------------------------------
 # B3LYP/6-31G* guess=read geom=check nosymm integral(ultrafinegrid)
 -------------------------------------------------------------------

 ------------------------------------------------------
 Candidate Structure: Conf:876 Charge calc in gas phase
 ------------------------------------------------------
 Structure from the checkpoint file:  "conf-876.chk"
 Charge =  1 Multiplicity = 1

                          Input orientation:
 ---------------------------------------------------------------------
 Center     Atomic      Atomic             Coordinates (Angstroms)
 Number     Number       Type             X           Y           Z
 ---------------------------------------------------------------------
      1          7           0       -5.534287   -0.938740    4.414125
      2          1           0       -5.415561   -1.744654    5.033551
      3          1           0       -6.323757   -0.383202    4.753594
      4          1           0       -5.714518   -1.269412    3.400753
      5          6           0       -4.275380   -0.141722    4.211728
      6          1           0       -3.472354   -0.555707    4.823761
      7          1           0       -4.446617    0.897400    4.497684
      8          6           0       -3.996527   -0.293206    2.688844
      9          8           0       -4.819232   -0.968914    2.045089
     10          7           0       -2.918917    0.303677    2.220290
     11          1           0       -2.253879    0.815769    2.811558
     12          6           0       -2.461339    0.266061    0.824431
     13          1           0       -2.557068   -0.759817    0.457311
     14          6           0       -0.971301    0.673684    0.934811
     15          6           0       -3.299469    1.232692   -0.049851
     16          1           0       -4.354882    1.004959    0.148470
     17          1           0       -3.117423    2.253420    0.310838
     18          8           0       -0.580622    1.255513    1.955327
     19          6           0       -3.070520    1.170971   -1.575573
     20          1           0       -2.018610    1.400682   -1.788920
     21          6           0       -3.390797   -0.211948   -2.165222
     22          1           0       -4.428331   -0.499710   -1.952687
     23          1           0       -3.261547   -0.202832   -3.252211
     24          1           0       -2.740107   -1.004782   -1.776263
     25          6           0       -3.922650    2.255834   -2.253670
     26          1           0       -4.993021    2.078378   -2.088305
     27          1           0       -3.683602    3.254232   -1.869321
     28          1           0       -3.750725    2.263102   -3.335085
     29          7           0       -0.191892    0.363718   -0.106801
     30          1           0       -0.564751   -0.052563   -0.958522
     31          6           0        1.201555    0.782780   -0.239120
     32          1           0        1.300628    1.783853    0.195269
     33          6           0        1.444365    0.838221   -1.763846
     34          6           0        2.160381   -0.179675    0.529706
     35          1           0        1.716227   -0.249379    1.531079
     36          8           0        0.668573    0.262792   -2.534501
     37          6           0        2.199052   -1.585661   -0.084091
     38          1           0        2.662074   -1.579346   -1.077659
     39          1           0        2.786993   -2.258300    0.549512
     40          1           0        1.195839   -2.013605   -0.185177
     41          6           0        3.571349    0.403163    0.700338
     42          1           0        4.127477    0.441013   -0.242471
     43          1           0        4.150122   -0.222368    1.388228
     44          1           0        3.543035    1.414505    1.124721
     45          7           0        2.521908    1.531495   -2.174935
     46          1           0        3.181997    1.925370   -1.511798
     47          6           0        2.983031    1.538964   -3.558686
     48          1           0        2.840010    0.540392   -3.984723
     49          6           0        4.463305    1.894718   -3.531417
     50          6           0        2.217303    2.550848   -4.454342
     51          1           0        2.431717    2.295476   -5.497637
     52          1           0        1.153599    2.346105   -4.293808
     53          8           0        5.011818    1.863709   -4.732258
     54          6           0        2.493362    4.056918   -4.223243
     55          1           0        2.607063    4.257552   -3.148906
     56          1           0        1.579718    4.585526   -4.518031
     57          6           0        3.673633    4.699067   -5.016025
     58          1           0        3.897984    4.076792   -5.890754
     59          1           0        3.319268    5.654940   -5.416773
     60          6           0        4.992842    4.975677   -4.243375
     61          1           0        5.207839    6.052528   -4.253177
     62          1           0        4.899760    4.676483   -3.196926
     63          7           0        6.146127    4.211846   -4.793758
     64          1           0        6.972558    4.372681   -4.218826
     65          1           0        5.702444    2.637545   -4.771965
     66          1           0        6.373373    4.544426   -5.731057
     67          8           0        5.016316    2.280485   -2.509240
 ---------------------------------------------------------------------

 SCF Done:  E(RB3LYP) =  -1396.64415466     A.U. after    1 cycles

 Alpha  occ. eigenvalues --  -19.28096 -19.22214 -19.21939 -19.19613 -19.19587
 Alpha  occ. eigenvalues --  -14.61542 -14.50089 -14.45261 -14.43282 -14.41392
 Alpha  occ. eigenvalues --  -10.44853 -10.42057 -10.38970 -10.37338 -10.36628
 Alpha  occ. eigenvalues --  -10.34730 -10.31485 -10.29894 -10.28536 -10.28075
 Alpha  occ. eigenvalues --  -10.27515 -10.27107 -10.25251 -10.25096 -10.25015
 Alpha  occ. eigenvalues --  -10.24964 -10.24943 -10.24407 -10.24321  -1.20527
 Alpha  occ. eigenvalues --   -1.15105  -1.14782  -1.13867  -1.11387  -1.06756
 Alpha  occ. eigenvalues --   -1.06248  -1.01890  -0.99812  -0.96666  -0.92114
 Alpha  occ. eigenvalues --   -0.89531  -0.88142  -0.86051  -0.84645  -0.81971
 Alpha  occ. eigenvalues --   -0.79024  -0.76629  -0.75941  -0.75795  -0.75547
 Alpha  occ. eigenvalues --   -0.75366  -0.75179  -0.71530  -0.69763  -0.68862
 Alpha  occ. eigenvalues --   -0.67997  -0.66810  -0.65839  -0.65171  -0.64010
 Alpha  occ. eigenvalues --   -0.63900  -0.62935  -0.61554  -0.60912  -0.59130
 Alpha  occ. eigenvalues --   -0.57675  -0.56921  -0.56633  -0.56085  -0.55539
 Alpha  occ. eigenvalues --   -0.54361  -0.54163  -0.53964  -0.53574  -0.52974
 Alpha  occ. eigenvalues --   -0.52523  -0.51797  -0.51603  -0.50972  -0.50586
 Alpha  occ. eigenvalues --   -0.50102  -0.49257  -0.48436  -0.47740  -0.47558
 Alpha  occ. eigenvalues --   -0.46681  -0.46632  -0.46357  -0.46139  -0.45525
 Alpha  occ. eigenvalues --   -0.44970  -0.44644  -0.44198  -0.43284  -0.43159
 Alpha  occ. eigenvalues --   -0.42667  -0.42434  -0.41460  -0.41150  -0.40879
 Alpha  occ. eigenvalues --   -0.40727  -0.40607  -0.39635  -0.39554  -0.38993
 Alpha  occ. eigenvalues --   -0.38842  -0.36309  -0.36125  -0.34937  -0.33778
 Alpha  occ. eigenvalues --   -0.33615  -0.32950  -0.32391
 Alpha virt. eigenvalues --   -0.13139  -0.12904  -0.07903  -0.07317  -0.05752
 Alpha virt. eigenvalues --   -0.05548  -0.04919  -0.02199  -0.01335  -0.00360
 Alpha virt. eigenvalues --    0.00513   0.01267   0.01587   0.02596   0.03211

 Mulliken charges:
               1
     1  N   -0.752154
     2  H    0.421865
     3  H    0.421674
     4  H    0.440703
     5  C   -0.276395
     6  H    0.247463
     7  H    0.247534
     8  C    0.641994
     9  O   -0.534941
    10  N   -0.603470
    11  H    0.376825
    12  C   -0.069558
    13  H    0.192520
    14  C    0.628457
    15  C   -0.258840
    16  H    0.158202
    17  H    0.152257
    18  O   -0.553070
    19  C   -0.098201
    20  H    0.148034
    21  C   -0.453915
    22  H    0.150350
    23  H    0.171600
    24  H    0.138800
    25  C   -0.447844
    26  H    0.146164
    27  H    0.148253
    28  H    0.162606
    29  N   -0.622275
    30  H    0.377483
    31  C   -0.060394
    32  H    0.177382
    33  C    0.629527
    34  C   -0.072513
    35  H    0.154214
    36  O   -0.553859
    37  C   -0.456654
    38  H    0.162051
    39  H    0.157786
    40  H    0.143010
    41  C   -0.476611
    42  H    0.167672
    43  H    0.162935
    44  H    0.150485
    45  N   -0.618424
    46  H    0.363334
    47  C   -0.041504
    48  H    0.191993
    49  C    0.607490
    50  C   -0.265843
    51  H    0.165298
    52  H    0.164947
    53  O   -0.604892
    54  C   -0.286822
    55  H    0.141675
    56  H    0.148982
    57  C   -0.282836
    58  H    0.159723
    59  H    0.151033
    60  C   -0.159354
    61  H    0.150119
    62  H    0.182736
    63  N   -0.775512
    64  H    0.339405
    65  H    0.460031
    66  H    0.331252
    67  O   -0.509978
 Sum of Mulliken charges =   1.00000

 Dipole moment (field-independent basis, Debye):
    X=            -13.9315    Y=              3.6187    Z=             11.6209  Tot=             18.4994
 Quadrupole moment (field-independent basis, Debye-Ang):
   XX=            -40.8205   YY=           -139.6957   ZZ=            -70.0282
   XY=             39.7582   XZ=           -114.3328   YZ=            -45.8094

 Normal termination of Gaussian 16 at Fri May 27 02:06:07 2022.
