 Gaussian 16, Revision C.01,
 Gaussian 16:  ES64L-G16RevC.01  3-Jul-2019

 -------------------------------------------------------------------
 # B3LYP/6-31G* guess=read geom=check nosymm integral(ultrafinegrid)
 -------------------------------------------------------------------

 ------------------------------------------------------
 Candidate Structure: Conf:472 Charge calc in gas phase
 ------------------------------------------------------
 Structure from the checkpoint file:  "conf-472.chk"
 Charge =  1 Multiplicity = 1

                          Input orientation:
 ---------------------------------------------------------------------
 Center     Atomic      Atomic             Coordinates (Angstroms)
 Number     Number       Type             X           Y           Z
 ---------------------------------------------------------------------
      1          7           0       -1.710316    0.760681    4.576934
      2          1           0       -1.425829    1.362494    5.355322
      3          1           0       -1.550402   -0.223965    4.824803
      4          1           0       -1.132169    0.941231    3.703050
      5          6           0       -3.163157    0.917020    4.181291
      6          1           0       -3.358202    1.979486    4.026792
      7          1           0       -3.791990    0.523195    4.980610
      8          6           0       -3.213402    0.042794    2.916806
      9          8           0       -2.946290   -1.144028    3.042929
     10          7           0       -3.336515    0.695525    1.732083
     11          1           0       -3.425160    1.704076    1.778406
     12          6           0       -2.530022    0.213638    0.610626
     13          1           0       -2.765033   -0.842335    0.459336
     14          6           0       -1.030559    0.317021    1.029592
     15          6           0       -2.834132    1.022914   -0.663914
     16          1           0       -2.590866    2.078684   -0.470236
     17          1           0       -2.145080    0.699942   -1.454318
     18          8           0       -0.677791    0.910549    2.071907
     19          6           0       -4.283383    0.910461   -1.183529
     20          1           0       -4.961213    1.218798   -0.374286
     21          6           0       -4.480902    1.877775   -2.360791
     22          1           0       -3.829679    1.611868   -3.202698
     23          1           0       -5.515119    1.846654   -2.719042
     24          1           0       -4.255983    2.912679   -2.076822
     25          6           0       -4.648286   -0.525621   -1.587376
     26          1           0       -3.976927   -0.896588   -2.372407
     27          1           0       -4.604307   -1.224381   -0.744118
     28          1           0       -5.668879   -0.563587   -1.982248
     29          7           0       -0.172113   -0.265873    0.195182
     30          1           0       -0.487175   -0.596498   -0.717902
     31          6           0        1.285262   -0.175778    0.259447
     32          1           0        1.546372    0.734515    0.808942
     33          6           0        1.735029   -0.059967   -1.217045
     34          6           0        1.945079   -1.399828    0.960947
     35          1           0        3.028394   -1.228474    0.891481
     36          8           0        0.951476   -0.355798   -2.124310
     37          6           0        1.578704   -1.462985    2.450562
     38          1           0        0.509225   -1.664209    2.584899
     39          1           0        2.131830   -2.272562    2.938519
     40          1           0        1.821434   -0.526327    2.965339
     41          6           0        1.624780   -2.725314    0.254787
     42          1           0        0.554061   -2.953948    0.311570
     43          1           0        2.163141   -3.547478    0.737043
     44          1           0        1.910788   -2.712631   -0.801643
     45          7           0        3.001020    0.344465   -1.414058
     46          1           0        3.638104    0.502268   -0.637621
     47          6           0        3.655628    0.336437   -2.718790
     48          1           0        3.374631   -0.577115   -3.253409
     49          6           0        5.155734    0.356777   -2.454358
     50          6           0        3.269160    1.549675   -3.608191
     51          1           0        3.574624    1.314685   -4.633326
     52          1           0        2.174843    1.585943   -3.608687
     53          8           0        5.863987    0.261663   -3.562498
     54          6           0        3.833873    2.934105   -3.204085
     55          1           0        3.843041    3.031010   -2.109627
     56          1           0        3.106763    3.676511   -3.551853
     57          6           0        5.222732    3.339087   -3.789244
     58          1           0        5.428303    2.730886   -4.678353
     59          1           0        5.139421    4.369701   -4.150479
     60          6           0        6.451176    3.274676   -2.840178
     61          1           0        6.899706    4.272660   -2.748349
     62          1           0        6.150574    2.963428   -1.837102
     63          7           0        7.471316    2.289519   -3.293738
     64          1           0        8.226143    2.233701   -2.610657
     65          1           0        6.701489    0.869244   -3.446335
     66          1           0        7.893242    2.597755   -4.170030
     67          8           0        5.607601    0.566667   -1.335358
 ---------------------------------------------------------------------

 SCF Done:  E(RB3LYP) =  -1396.64643934     A.U. after    2 cycles

 Alpha  occ. eigenvalues --  -19.26221 -19.25212 -19.23028 -19.21019 -19.20486
 Alpha  occ. eigenvalues --  -14.60299 -14.49666 -14.47624 -14.44599 -14.42238
 Alpha  occ. eigenvalues --  -10.43653 -10.41609 -10.40710 -10.38244 -10.38032
 Alpha  occ. eigenvalues --  -10.35636 -10.33374 -10.30937 -10.29909 -10.29156
 Alpha  occ. eigenvalues --  -10.28902 -10.28504 -10.26733 -10.25995 -10.25874
 Alpha  occ. eigenvalues --  -10.25815 -10.25770 -10.25721 -10.25620  -1.19078
 Alpha  occ. eigenvalues --   -1.15997  -1.15656  -1.14222  -1.12817  -1.07159
 Alpha  occ. eigenvalues --   -1.06443  -1.04214  -1.01135  -0.97505  -0.92258
 Alpha  occ. eigenvalues --   -0.90070  -0.89136  -0.87103  -0.85179  -0.83088
 Alpha  occ. eigenvalues --   -0.80510  -0.77221  -0.77030  -0.76721  -0.75864
 Alpha  occ. eigenvalues --   -0.74868  -0.73403  -0.72448  -0.70826  -0.70198
 Alpha  occ. eigenvalues --   -0.68395  -0.67440  -0.66721  -0.65906  -0.64892
 Alpha  occ. eigenvalues --   -0.64506  -0.63789  -0.62406  -0.60490  -0.59887
 Alpha  occ. eigenvalues --   -0.58146  -0.57769  -0.57747  -0.57117  -0.56365
 Alpha  occ. eigenvalues --   -0.55905  -0.54998  -0.54831  -0.54392  -0.54173
 Alpha  occ. eigenvalues --   -0.53474  -0.53026  -0.52480  -0.52313  -0.51168
 Alpha  occ. eigenvalues --   -0.51094  -0.50236  -0.49715  -0.49280  -0.48957
 Alpha  occ. eigenvalues --   -0.48104  -0.47725  -0.47506  -0.47168  -0.46792
 Alpha  occ. eigenvalues --   -0.46509  -0.45546  -0.45220  -0.44031  -0.43888
 Alpha  occ. eigenvalues --   -0.43302  -0.42741  -0.42634  -0.42478  -0.41936
 Alpha  occ. eigenvalues --   -0.41828  -0.40741  -0.40487  -0.40408  -0.39781
 Alpha  occ. eigenvalues --   -0.39687  -0.38296  -0.37538  -0.37137  -0.35022
 Alpha  occ. eigenvalues --   -0.34647  -0.34208  -0.33468
 Alpha virt. eigenvalues --   -0.14513  -0.10679  -0.09694  -0.06911  -0.05937
 Alpha virt. eigenvalues --   -0.05842  -0.04603  -0.02192  -0.01358  -0.00608
 Alpha virt. eigenvalues --   -0.00099   0.00370   0.00763   0.01873   0.02259

 Mulliken charges:
               1
     1  N   -0.755597
     2  H    0.413249
     3  H    0.423218
     4  H    0.459330
     5  C   -0.266247
     6  H    0.215978
     7  H    0.244499
     8  C    0.591205
     9  O   -0.481139
    10  N   -0.549686
    11  H    0.339650
    12  C   -0.086309
    13  H    0.215683
    14  C    0.657618
    15  C   -0.301294
    16  H    0.143250
    17  H    0.175154
    18  O   -0.615776
    19  C   -0.072812
    20  H    0.132731
    21  C   -0.448092
    22  H    0.156869
    23  H    0.164384
    24  H    0.144657
    25  C   -0.459534
    26  H    0.154695
    27  H    0.149918
    28  H    0.168390
    29  N   -0.586722
    30  H    0.375660
    31  C   -0.072178
    32  H    0.175677
    33  C    0.635324
    34  C   -0.079057
    35  H    0.151897
    36  O   -0.550969
    37  C   -0.450699
    38  H    0.141701
    39  H    0.165981
    40  H    0.137606
    41  C   -0.465956
    42  H    0.150933
    43  H    0.166464
    44  H    0.171942
    45  N   -0.618541
    46  H    0.357610
    47  C   -0.039144
    48  H    0.192558
    49  C    0.606983
    50  C   -0.268281
    51  H    0.168166
    52  H    0.167544
    53  O   -0.603818
    54  C   -0.287332
    55  H    0.139858
    56  H    0.150464
    57  C   -0.283804
    58  H    0.160923
    59  H    0.153057
    60  C   -0.158823
    61  H    0.151774
    62  H    0.181737
    63  N   -0.776802
    64  H    0.340551
    65  H    0.461543
    66  H    0.333526
    67  O   -0.511347
 Sum of Mulliken charges =   1.00000

 Dipole moment (field-independent basis, Debye):
    X=             -1.5618    Y=              8.5593    Z=             10.1872  Tot=             13.3970
 Quadrupole moment (field-independent basis, Debye-Ang):
   XX=            -91.6821   YY=           -154.5497   ZZ=            -89.9573
   XY=             11.2765   XZ=            -49.9181   YZ=              1.5200

 Normal termination of Gaussian 16 at Fri May 27 01:48:58 2022.
