 Gaussian 16, Revision C.01,
 Gaussian 16:  ES64L-G16RevC.01  3-Jul-2019

 -------------------------------------------------------------------
 # B3LYP/6-31G* guess=read geom=check nosymm integral(ultrafinegrid)
 -------------------------------------------------------------------

 ------------------------------------------------------
 Candidate Structure: Conf:961 Charge calc in gas phase
 ------------------------------------------------------
 Structure from the checkpoint file:  "conf-961.chk"
 Charge =  1 Multiplicity = 1

                          Input orientation:
 ---------------------------------------------------------------------
 Center     Atomic      Atomic             Coordinates (Angstroms)
 Number     Number       Type             X           Y           Z
 ---------------------------------------------------------------------
      1          7           0       -5.326834   -0.376662    4.303159
      2          1           0       -6.034984    0.247730    4.697905
      3          1           0       -5.560308   -0.607398    3.273551
      4          1           0       -5.304042   -1.234007    4.861520
      5          6           0       -3.979264    0.268039    4.131131
      6          1           0       -3.228154   -0.287610    4.694977
      7          1           0       -4.013356    1.296651    4.494001
      8          6           0       -3.739959    0.194712    2.595838
      9          8           0       -4.648850   -0.323401    1.922601
     10          7           0       -2.600712    0.684622    2.149544
     11          1           0       -1.870067    1.064981    2.762679
     12          6           0       -2.165046    0.693056    0.746286
     13          1           0       -2.391948   -0.283201    0.308229
     14          6           0       -0.634605    0.903784    0.858831
     15          6           0       -2.883757    1.818250   -0.039932
     16          1           0       -3.957775    1.707377    0.158192
     17          1           0       -2.574282    2.778673    0.392301
     18          8           0       -0.166442    1.355521    1.911911
     19          6           0       -2.674617    1.844715   -1.569351
     20          1           0       -1.603531    1.958776   -1.781051
     21          6           0       -3.167614    0.560176   -2.254754
     22          1           0       -4.231177    0.386724   -2.047102
     23          1           0       -3.046569    0.635385   -3.340209
     24          1           0       -2.617364   -0.333663   -1.936081
     25          6           0       -3.390301    3.074373   -2.151215
     26          1           0       -4.473138    3.018337   -1.981543
     27          1           0       -3.026226    4.003747   -1.698149
     28          1           0       -3.227172    3.142053   -3.231985
     29          7           0        0.093112    0.578954   -0.215353
     30          1           0       -0.332801    0.268597   -1.086553
     31          6           0        1.529213    0.824089   -0.331102
     32          1           0        1.757246    1.766596    0.178442
     33          6           0        1.779431    0.964527   -1.847531
     34          6           0        2.357017   -0.311377    0.350013
     35          1           0        1.909747   -0.399660    1.348554
     36          8           0        0.949677    0.532899   -2.656384
     37          6           0        2.210125   -1.659357   -0.368708
     38          1           0        2.668101   -1.637779   -1.364402
     39          1           0        2.707099   -2.448657    0.205325
     40          1           0        1.159517   -1.945015   -0.489766
     41          6           0        3.832434    0.069008    0.545856
     42          1           0        4.388023    0.111003   -0.397017
     43          1           0        4.326599   -0.678736    1.175291
     44          1           0        3.936749    1.038176    1.049213
     45          7           0        2.923268    1.573141   -2.211508
     46          1           0        3.647478    1.778440   -1.528544
     47          6           0        3.398724    1.577625   -3.591325
     48          1           0        3.288757    0.558600   -3.989503
     49          6           0        4.915889    1.872896   -3.506046
     50          6           0        2.609769    2.537942   -4.515886
     51          1           0        1.635809    2.728327   -4.058716
     52          1           0        3.126242    3.503645   -4.558580
     53          8           0        5.575517    2.165222   -4.615027
     54          6           0        2.403754    1.941416   -5.923808
     55          1           0        1.504844    1.313971   -5.908703
     56          1           0        3.230440    1.259916   -6.158808
     57          6           0        2.293874    2.969393   -7.059077
     58          1           0        2.145318    2.427911   -8.003346
     59          1           0        1.406283    3.601959   -6.929102
     60          6           0        3.521878    3.883581   -7.187205
     61          1           0        3.477249    4.424918   -8.142929
     62          1           0        3.519845    4.641888   -6.396879
     63          7           0        4.776306    3.113674   -7.035999
     64          1           0        5.579991    3.734110   -7.134538
     65          1           0        5.061121    2.393061   -5.457311
     66          1           0        4.859363    2.427729   -7.787475
     67          8           0        5.488387    1.802660   -2.433126
 ---------------------------------------------------------------------

 SCF Done:  E(RB3LYP) =  -1396.64448786     A.U. after    2 cycles

 Alpha  occ. eigenvalues --  -19.28148 -19.22985 -19.21990 -19.19793 -19.18849
 Alpha  occ. eigenvalues --  -14.61597 -14.50136 -14.45367 -14.43271 -14.41618
 Alpha  occ. eigenvalues --  -10.44906 -10.42093 -10.39038 -10.37584 -10.36672
 Alpha  occ. eigenvalues --  -10.34833 -10.31465 -10.30670 -10.28775 -10.28667
 Alpha  occ. eigenvalues --  -10.27730 -10.27019 -10.25735 -10.25584 -10.25506
 Alpha  occ. eigenvalues --  -10.25287 -10.25164 -10.24305 -10.24078  -1.20572
 Alpha  occ. eigenvalues --   -1.15161  -1.14601  -1.13938  -1.11503  -1.06813
 Alpha  occ. eigenvalues --   -1.06467  -1.01957  -0.99876  -0.97303  -0.92196
 Alpha  occ. eigenvalues --   -0.89642  -0.88212  -0.86795  -0.84743  -0.82384
 Alpha  occ. eigenvalues --   -0.79163  -0.76794  -0.76145  -0.75892  -0.75593
 Alpha  occ. eigenvalues --   -0.75241  -0.75222  -0.71626  -0.70643  -0.68974
 Alpha  occ. eigenvalues --   -0.67998  -0.67203  -0.65358  -0.65078  -0.64473
 Alpha  occ. eigenvalues --   -0.64213  -0.64001  -0.61957  -0.61592  -0.59303
 Alpha  occ. eigenvalues --   -0.58857  -0.58143  -0.56894  -0.56229  -0.55437
 Alpha  occ. eigenvalues --   -0.54607  -0.54301  -0.54015  -0.53507  -0.52918
 Alpha  occ. eigenvalues --   -0.52637  -0.51797  -0.51437  -0.50919  -0.50628
 Alpha  occ. eigenvalues --   -0.50224  -0.49462  -0.48949  -0.47873  -0.47609
 Alpha  occ. eigenvalues --   -0.47497  -0.46631  -0.46340  -0.45689  -0.45186
 Alpha  occ. eigenvalues --   -0.45161  -0.44783  -0.44470  -0.43879  -0.43360
 Alpha  occ. eigenvalues --   -0.42731  -0.42278  -0.41374  -0.41319  -0.41005
 Alpha  occ. eigenvalues --   -0.40678  -0.40610  -0.40534  -0.39860  -0.39605
 Alpha  occ. eigenvalues --   -0.39097  -0.36225  -0.36092  -0.35077  -0.34554
 Alpha  occ. eigenvalues --   -0.33571  -0.33094  -0.32243
 Alpha virt. eigenvalues --   -0.13186  -0.12947  -0.07965  -0.07367  -0.05804
 Alpha virt. eigenvalues --   -0.05630  -0.04318  -0.02250  -0.01403  -0.00649
 Alpha virt. eigenvalues --   -0.00502   0.01192   0.01784   0.02468   0.03164

 Mulliken charges:
               1
     1  N   -0.752051
     2  H    0.421803
     3  H    0.440462
     4  H    0.422021
     5  C   -0.276525
     6  H    0.247878
     7  H    0.247851
     8  C    0.641831
     9  O   -0.535250
    10  N   -0.603652
    11  H    0.377487
    12  C   -0.069420
    13  H    0.191979
    14  C    0.629499
    15  C   -0.258888
    16  H    0.158509
    17  H    0.153221
    18  O   -0.551793
    19  C   -0.097659
    20  H    0.146719
    21  C   -0.453741
    22  H    0.151246
    23  H    0.168952
    24  H    0.139034
    25  C   -0.447609
    26  H    0.146820
    27  H    0.149566
    28  H    0.160203
    29  N   -0.622364
    30  H    0.375414
    31  C   -0.060357
    32  H    0.180367
    33  C    0.627137
    34  C   -0.074123
    35  H    0.153704
    36  O   -0.558999
    37  C   -0.455699
    38  H    0.160237
    39  H    0.158432
    40  H    0.141001
    41  C   -0.480130
    42  H    0.174819
    43  H    0.162360
    44  H    0.152279
    45  N   -0.627259
    46  H    0.371090
    47  C   -0.051156
    48  H    0.191175
    49  C    0.589327
    50  C   -0.284364
    51  H    0.171494
    52  H    0.149289
    53  O   -0.610983
    54  C   -0.275912
    55  H    0.163760
    56  H    0.139252
    57  C   -0.279998
    58  H    0.147115
    59  H    0.151546
    60  C   -0.140809
    61  H    0.151723
    62  H    0.160675
    63  N   -0.773468
    64  H    0.339891
    65  H    0.481321
    66  H    0.328831
    67  O   -0.475111
 Sum of Mulliken charges =   1.00000

 Dipole moment (field-independent basis, Debye):
    X=            -16.0346    Y=              3.3743    Z=              7.2935  Tot=             17.9357
 Quadrupole moment (field-independent basis, Debye-Ang):
   XX=            -85.8231   YY=           -154.5724   ZZ=            -25.7979
   XY=              9.2086   XZ=           -114.7182   YZ=            -37.6119

 Normal termination of Gaussian 16 at Fri May 27 02:06:05 2022.
