 Gaussian 16, Revision C.01,
 Gaussian 16:  ES64L-G16RevC.01  3-Jul-2019

 -------------------------------------------------------------------
 # B3LYP/6-31G* guess=read geom=check nosymm integral(ultrafinegrid)
 -------------------------------------------------------------------

 ------------------------------------------------------
 Candidate Structure: Conf:617 Charge calc in gas phase
 ------------------------------------------------------
 Structure from the checkpoint file:  "conf-617.chk"
 Charge =  1 Multiplicity = 1

                          Input orientation:
 ---------------------------------------------------------------------
 Center     Atomic      Atomic             Coordinates (Angstroms)
 Number     Number       Type             X           Y           Z
 ---------------------------------------------------------------------
      1          7           0       -5.428614    0.666792    4.865995
      2          1           0       -5.225585    0.082108    5.681158
      3          1           0       -6.194898    1.301234    5.106168
      4          1           0       -5.702473    0.049625    4.025081
      5          6           0       -4.218834    1.363706    4.306823
      6          1           0       -3.347742    1.149234    4.928424
      7          1           0       -4.390393    2.441117    4.287461
      8          6           0       -4.084370    0.766499    2.876636
      9          8           0       -4.943774   -0.069383    2.549144
     10          7           0       -3.078860    1.214923    2.147753
     11          1           0       -2.325467    1.779079    2.559862
     12          6           0       -2.663002    0.701093    0.835647
     13          1           0       -2.969425   -0.345937    0.758033
     14          6           0       -1.116798    0.816595    0.879805
     15          6           0       -3.234096    1.531078   -0.335660
     16          1           0       -2.920867    2.572827   -0.185824
     17          1           0       -2.738171    1.190123   -1.254330
     18          8           0       -0.589471    1.534262    1.738993
     19          6           0       -4.760732    1.468683   -0.543837
     20          1           0       -5.249667    1.751952    0.399821
     21          6           0       -5.170965    2.497428   -1.609553
     22          1           0       -4.708200    2.266514   -2.577162
     23          1           0       -6.256670    2.497070   -1.754551
     24          1           0       -4.868939    3.513253   -1.328782
     25          6           0       -5.242441    0.061932   -0.928442
     26          1           0       -4.755265   -0.280487   -1.850408
     27          1           0       -5.047791   -0.673447   -0.141079
     28          1           0       -6.322883    0.062881   -1.109534
     29          7           0       -0.452093    0.131577   -0.056363
     30          1           0       -0.927339   -0.405803   -0.780065
     31          6           0        0.994222    0.204237   -0.254027
     32          1           0        1.310008    1.242596   -0.103809
     33          6           0        1.205293   -0.210322   -1.725508
     34          6           0        1.757565   -0.691882    0.771998
     35          1           0        1.340829   -0.394868    1.742947
     36          8           0        0.328532   -0.844532   -2.322628
     37          6           0        1.486113   -2.187913    0.563692
     38          1           0        1.911320   -2.547870   -0.380252
     39          1           0        1.940640   -2.769427    1.372910
     40          1           0        0.413537   -2.410278    0.552844
     41          6           0        3.262968   -0.388583    0.812558
     42          1           0        3.784962   -0.712811   -0.094015
     43          1           0        3.724326   -0.916362    1.654067
     44          1           0        3.455894    0.681981    0.954709
     45          7           0        2.370346    0.159006   -2.289539
     46          1           0        3.125775    0.541166   -1.727053
     47          6           0        2.803968   -0.351011   -3.586412
     48          1           0        2.624487   -1.435803   -3.599923
     49          6           0        4.337488   -0.142349   -3.621825
     50          6           0        2.043134    0.272311   -4.782888
     51          1           0        1.093270    0.667301   -4.414675
     52          1           0        2.609170    1.130377   -5.163038
     53          8           0        4.979582   -0.295481   -4.768365
     54          6           0        1.767702   -0.763621   -5.892642
     55          1           0        0.837907   -1.292727   -5.652920
     56          1           0        2.550897   -1.531439   -5.881652
     57          6           0        1.680300   -0.189706   -7.314189
     58          1           0        1.478335   -1.015956   -8.009490
     59          1           0        0.830462    0.498868   -7.406073
     60          6           0        2.949996    0.550190   -7.761743
     61          1           0        2.907487    0.728029   -8.845722
     62          1           0        3.008966    1.534276   -7.284534
     63          7           0        4.166426   -0.191151   -7.361710
     64          1           0        4.998324    0.308839   -7.675583
     65          1           0        4.454763   -0.338843   -5.633618
     66          1           0        4.193236   -1.098502   -7.828774
     67          8           0        4.936770    0.126609   -2.595906
 ---------------------------------------------------------------------

 SCF Done:  E(RB3LYP) =  -1396.64458345     A.U. after    2 cycles

 Alpha  occ. eigenvalues --  -19.28350 -19.22937 -19.22085 -19.19713 -19.18802
 Alpha  occ. eigenvalues --  -14.61790 -14.50231 -14.45374 -14.43212 -14.41568
 Alpha  occ. eigenvalues --  -10.45114 -10.42213 -10.39085 -10.37538 -10.36609
 Alpha  occ. eigenvalues --  -10.34910 -10.31475 -10.30613 -10.28783 -10.28716
 Alpha  occ. eigenvalues --  -10.28048 -10.26998 -10.25663 -10.25513 -10.25370
 Alpha  occ. eigenvalues --  -10.25366 -10.25217 -10.24294 -10.24077  -1.20740
 Alpha  occ. eigenvalues --   -1.15343  -1.14554  -1.13997  -1.11469  -1.06946
 Alpha  occ. eigenvalues --   -1.06419  -1.01990  -0.99825  -0.97251  -0.92385
 Alpha  occ. eigenvalues --   -0.89709  -0.88296  -0.86765  -0.84976  -0.82330
 Alpha  occ. eigenvalues --   -0.79082  -0.76656  -0.76224  -0.75863  -0.75745
 Alpha  occ. eigenvalues --   -0.75440  -0.75211  -0.71752  -0.70598  -0.69011
 Alpha  occ. eigenvalues --   -0.68075  -0.67425  -0.65087  -0.65015  -0.64413
 Alpha  occ. eigenvalues --   -0.64140  -0.64097  -0.62386  -0.61839  -0.59480
 Alpha  occ. eigenvalues --   -0.58496  -0.58085  -0.57230  -0.56228  -0.55815
 Alpha  occ. eigenvalues --   -0.54671  -0.54218  -0.53650  -0.53591  -0.52861
 Alpha  occ. eigenvalues --   -0.52640  -0.52211  -0.51504  -0.50829  -0.50423
 Alpha  occ. eigenvalues --   -0.49668  -0.49390  -0.48909  -0.47911  -0.47880
 Alpha  occ. eigenvalues --   -0.47544  -0.47416  -0.46459  -0.45717  -0.45160
 Alpha  occ. eigenvalues --   -0.45131  -0.44722  -0.44481  -0.43819  -0.43276
 Alpha  occ. eigenvalues --   -0.42431  -0.42168  -0.41578  -0.41313  -0.41283
 Alpha  occ. eigenvalues --   -0.40712  -0.40579  -0.40518  -0.39794  -0.39649
 Alpha  occ. eigenvalues --   -0.39541  -0.36189  -0.36046  -0.35081  -0.34510
 Alpha  occ. eigenvalues --   -0.33523  -0.33049  -0.32191
 Alpha virt. eigenvalues --   -0.13363  -0.13067  -0.07894  -0.07507  -0.05897
 Alpha virt. eigenvalues --   -0.05576  -0.04268  -0.02426  -0.01962  -0.00537
 Alpha virt. eigenvalues --   -0.00021   0.01200   0.01781   0.01981   0.03300

 Mulliken charges:
               1
     1  N   -0.751456
     2  H    0.422692
     3  H    0.422387
     4  H    0.440383
     5  C   -0.278702
     6  H    0.249045
     7  H    0.248992
     8  C    0.637341
     9  O   -0.529929
    10  N   -0.585937
    11  H    0.374403
    12  C   -0.087976
    13  H    0.193621
    14  C    0.635834
    15  C   -0.258475
    16  H    0.153277
    17  H    0.162025
    18  O   -0.552274
    19  C   -0.071368
    20  H    0.115401
    21  C   -0.447184
    22  H    0.154454
    23  H    0.156967
    24  H    0.146586
    25  C   -0.459519
    26  H    0.150703
    27  H    0.155905
    28  H    0.157949
    29  N   -0.619004
    30  H    0.364748
    31  C   -0.053960
    32  H    0.178718
    33  C    0.623828
    34  C   -0.075928
    35  H    0.154096
    36  O   -0.556647
    37  C   -0.455139
    38  H    0.160829
    39  H    0.157138
    40  H    0.140809
    41  C   -0.479115
    42  H    0.174395
    43  H    0.161717
    44  H    0.152159
    45  N   -0.627738
    46  H    0.370438
    47  C   -0.051218
    48  H    0.191062
    49  C    0.589197
    50  C   -0.284256
    51  H    0.172174
    52  H    0.149005
    53  O   -0.611171
    54  C   -0.276197
    55  H    0.164229
    56  H    0.138984
    57  C   -0.279927
    58  H    0.147031
    59  H    0.152033
    60  C   -0.140881
    61  H    0.151612
    62  H    0.160647
    63  N   -0.773483
    64  H    0.339736
    65  H    0.481589
    66  H    0.328792
    67  O   -0.475447
 Sum of Mulliken charges =   1.00000

 Dipole moment (field-independent basis, Debye):
    X=            -17.7442    Y=              3.9880    Z=              8.6235  Tot=             20.1278
 Quadrupole moment (field-independent basis, Debye-Ang):
   XX=            -80.6885   YY=           -166.4531   ZZ=             -2.5074
   XY=            -25.8292   XZ=           -118.8518   YZ=             14.6482

 Normal termination of Gaussian 16 at Fri May 27 01:48:53 2022.
