 Gaussian 16, Revision C.01,
 Gaussian 16:  ES64L-G16RevC.01  3-Jul-2019

 -------------------------------------------------------------------
 # B3LYP/6-31G* guess=read geom=check nosymm integral(ultrafinegrid)
 -------------------------------------------------------------------

 ------------------------------------------------------
 Candidate Structure: Conf:102 Charge calc in gas phase
 ------------------------------------------------------
 Structure from the checkpoint file:  "conf-102.chk"
 Charge =  1 Multiplicity = 1

                          Input orientation:
 ---------------------------------------------------------------------
 Center     Atomic      Atomic             Coordinates (Angstroms)
 Number     Number       Type             X           Y           Z
 ---------------------------------------------------------------------
      1          7           0       -4.366208    1.647959    5.406981
      2          1           0       -3.936631    1.425029    6.300505
      3          1           0       -5.190694    2.215679    5.580974
      4          1           0       -4.506934    0.347272    4.254774
      5          6           0       -3.434027    2.269921    4.466529
      6          1           0       -2.439762    2.424230    4.898665
      7          1           0       -3.789724    3.241603    4.109067
      8          6           0       -3.318091    1.312362    3.273517
      9          8           0       -4.037556    0.237351    3.352111
     10          7           0       -2.552608    1.557109    2.257554
     11          1           0       -1.892168    2.352557    2.270002
     12          6           0       -2.257595    0.701419    1.092381
     13          1           0       -2.325554   -0.345504    1.399203
     14          6           0       -0.793327    1.093644    0.752518
     15          6           0       -3.184108    1.000571   -0.108327
     16          1           0       -3.104762    2.073523   -0.326719
     17          1           0       -2.760324    0.479434   -0.977075
     18          8           0       -0.345057    2.153273    1.205770
     19          6           0       -4.666169    0.599371    0.037196
     20          1           0       -5.068758    1.073655    0.944413
     21          6           0       -5.457482    1.147452   -1.161296
     22          1           0       -5.096243    0.713468   -2.101771
     23          1           0       -6.520502    0.901138   -1.070017
     24          1           0       -5.370018    2.237239   -1.239371
     25          6           0       -4.851068   -0.920162    0.163173
     26          1           0       -4.454665   -1.436136   -0.720352
     27          1           0       -4.356740   -1.333693    1.049160
     28          1           0       -5.914004   -1.172020    0.240828
     29          7           0       -0.132510    0.240957   -0.035290
     30          1           0       -0.606297   -0.549491   -0.469453
     31          6           0        1.173485    0.510724   -0.644475
     32          1           0        1.352687    1.588959   -0.587449
     33          6           0        1.007678    0.041853   -2.107073
     34          6           0        2.326681   -0.247390    0.081674
     35          1           0        2.155095   -1.319861   -0.088483
     36          8           0        0.237544   -0.893103   -2.355372
     37          6           0        3.701733    0.128169   -0.494151
     38          1           0        3.905235    1.198672   -0.360783
     39          1           0        4.487449   -0.419510    0.036105
     40          1           0        3.803971   -0.102187   -1.557663
     41          6           0        2.298580    0.013997    1.595011
     42          1           0        2.415406    1.081330    1.815255
     43          1           0        3.120915   -0.522819    2.079574
     44          1           0        1.365091   -0.328118    2.052582
     45          7           0        1.721963    0.702768   -3.035852
     46          1           0        2.440252    1.366424   -2.753767
     47          6           0        1.885001    0.243174   -4.411989
     48          1           0        1.735143   -0.840167   -4.419655
     49          6           0        3.343536    0.543553   -4.804476
     50          6           0        0.891233    0.916999   -5.401963
     51          1           0        0.666612    1.910404   -4.998102
     52          1           0        1.390324    1.086437   -6.362839
     53          8           0        3.744141   -0.001974   -5.942389
     54          6           0       -0.415486    0.131319   -5.630586
     55          1           0       -1.213047    0.848774   -5.861657
     56          1           0       -0.706671   -0.365303   -4.696994
     57          6           0       -0.399421   -0.896825   -6.778380
     58          1           0       -1.410781   -1.315126   -6.858205
     59          1           0       -0.219287   -0.378847   -7.732715
     60          6           0        0.569658   -2.084572   -6.674384
     61          1           0        0.608640   -2.457198   -5.644195
     62          1           0        0.185193   -2.907206   -7.293813
     63          7           0        1.955509   -1.737029   -7.086211
     64          1           0        2.527232   -2.583260   -7.074823
     65          1           0        1.941451   -1.437288   -8.062725
     66          1           0        3.027836   -0.606096   -6.331154
     67          8           0        4.054039    1.252081   -4.117089
 ---------------------------------------------------------------------

 SCF Done:  E(RB3LYP) =  -1396.64768967     A.U. after    2 cycles

 Alpha  occ. eigenvalues --  -19.36075 -19.24043 -19.23412 -19.20780 -19.19420
 Alpha  occ. eigenvalues --  -14.54335 -14.50784 -14.47232 -14.44456 -14.42649
 Alpha  occ. eigenvalues --  -10.48420 -10.41092 -10.40295 -10.37820 -10.37765
 Alpha  occ. eigenvalues --  -10.37551 -10.32748 -10.31099 -10.30850 -10.29779
 Alpha  occ. eigenvalues --  -10.29608 -10.28133 -10.27021 -10.26685 -10.26389
 Alpha  occ. eigenvalues --  -10.26243 -10.25573 -10.25337 -10.24850  -1.26955
 Alpha  occ. eigenvalues --   -1.16267  -1.15165  -1.12558  -1.11248  -1.07216
 Alpha  occ. eigenvalues --   -1.06685  -1.03814  -1.00978  -0.98089  -0.93912
 Alpha  occ. eigenvalues --   -0.89751  -0.89157  -0.87345  -0.85722  -0.83208
 Alpha  occ. eigenvalues --   -0.80528  -0.79952  -0.77969  -0.77099  -0.76080
 Alpha  occ. eigenvalues --   -0.75931  -0.71216  -0.70142  -0.69687  -0.68760
 Alpha  occ. eigenvalues --   -0.68569  -0.67673  -0.67320  -0.66387  -0.65889
 Alpha  occ. eigenvalues --   -0.65730  -0.64599  -0.62695  -0.62212  -0.60207
 Alpha  occ. eigenvalues --   -0.60126  -0.58059  -0.57767  -0.57415  -0.56375
 Alpha  occ. eigenvalues --   -0.55694  -0.55447  -0.54887  -0.54621  -0.54122
 Alpha  occ. eigenvalues --   -0.53563  -0.52986  -0.52872  -0.51503  -0.51344
 Alpha  occ. eigenvalues --   -0.51103  -0.50073  -0.49859  -0.49577  -0.48977
 Alpha  occ. eigenvalues --   -0.48791  -0.47888  -0.47344  -0.47097  -0.46900
 Alpha  occ. eigenvalues --   -0.46604  -0.45853  -0.45637  -0.45243  -0.44435
 Alpha  occ. eigenvalues --   -0.44276  -0.43893  -0.43361  -0.42917  -0.42646
 Alpha  occ. eigenvalues --   -0.42437  -0.41733  -0.41392  -0.41046  -0.40819
 Alpha  occ. eigenvalues --   -0.40280  -0.38260  -0.36782  -0.36604  -0.35014
 Alpha  occ. eigenvalues --   -0.34701  -0.33917  -0.32928
 Alpha virt. eigenvalues --   -0.17054  -0.09585  -0.08553  -0.06690  -0.04680
 Alpha virt. eigenvalues --   -0.04053  -0.03328  -0.02667  -0.01315  -0.01153
 Alpha virt. eigenvalues --   -0.00445   0.00072   0.00618   0.01265   0.02507

 Mulliken charges:
               1
     1  N   -0.783913
     2  H    0.371280
     3  H    0.371035
     4  H    0.470580
     5  C   -0.239742
     6  H    0.234652
     7  H    0.234085
     8  C    0.628926
     9  O   -0.529577
    10  N   -0.556805
    11  H    0.396057
    12  C   -0.102154
    13  H    0.201921
    14  C    0.641511
    15  C   -0.264771
    16  H    0.162019
    17  H    0.173597
    18  O   -0.543824
    19  C   -0.078141
    20  H    0.116626
    21  C   -0.448265
    22  H    0.157555
    23  H    0.163572
    24  H    0.151191
    25  C   -0.458957
    26  H    0.157208
    27  H    0.146150
    28  H    0.166838
    29  N   -0.605795
    30  H    0.362366
    31  C   -0.063460
    32  H    0.182349
    33  C    0.619247
    34  C   -0.076262
    35  H    0.145334
    36  O   -0.553524
    37  C   -0.472351
    38  H    0.154836
    39  H    0.166205
    40  H    0.169795
    41  C   -0.446104
    42  H    0.161210
    43  H    0.162380
    44  H    0.131578
    45  N   -0.603509
    46  H    0.363775
    47  C   -0.081288
    48  H    0.185757
    49  C    0.602946
    50  C   -0.267844
    51  H    0.158135
    52  H    0.157532
    53  O   -0.606970
    54  C   -0.283211
    55  H    0.142772
    56  H    0.168814
    57  C   -0.267567
    58  H    0.152972
    59  H    0.140651
    60  C   -0.148175
    61  H    0.167489
    62  H    0.150346
    63  N   -0.777555
    64  H    0.337231
    65  H    0.333213
    66  H    0.474677
    67  O   -0.476648
 Sum of Mulliken charges =   1.00000

 Dipole moment (field-independent basis, Debye):
    X=            -14.9725    Y=              2.8406    Z=              7.1568  Tot=             16.8364
 Quadrupole moment (field-independent basis, Debye-Ang):
   XX=           -128.2589   YY=           -156.9460   ZZ=            -38.8783
   XY=            -36.5119   XZ=            -50.4334   YZ=             48.7107

 Normal termination of Gaussian 16 at Fri May 27 01:48:51 2022.
