 Gaussian 16, Revision C.01,
 Gaussian 16:  ES64L-G16RevC.01  3-Jul-2019

 -------------------------------------------------------------------
 # B3LYP/6-31G* guess=read geom=check nosymm integral(ultrafinegrid)
 -------------------------------------------------------------------

 ------------------------------------------------------
 Candidate Structure: Conf:234 Charge calc in gas phase
 ------------------------------------------------------
 Structure from the checkpoint file:  "conf-234.chk"
 Charge =  1 Multiplicity = 1

                          Input orientation:
 ---------------------------------------------------------------------
 Center     Atomic      Atomic             Coordinates (Angstroms)
 Number     Number       Type             X           Y           Z
 ---------------------------------------------------------------------
      1          7           0       -5.925437    2.150203    2.903345
      2          1           0       -6.008741    1.824163    3.869975
      3          1           0       -6.660020    2.841672    2.731133
      4          1           0       -6.024538    1.320447    2.222030
      5          6           0       -4.545951    2.630889    2.545620
      6          1           0       -3.900848    2.592457    3.425136
      7          1           0       -4.596918    3.658247    2.181484
      8          6           0       -4.091805    1.638800    1.436759
      9          8           0       -4.911372    0.760832    1.117931
     10          7           0       -2.885870    1.833446    0.935010
     11          1           0       -2.220134    2.481267    1.372582
     12          6           0       -2.188375    0.949016   -0.008060
     13          1           0       -2.571782   -0.067233    0.118412
     14          6           0       -0.707514    1.035049    0.441479
     15          6           0       -2.328838    1.413906   -1.475424
     16          1           0       -1.969090    2.450109   -1.528390
     17          1           0       -1.633862    0.816728   -2.081268
     18          8           0       -0.352274    1.964146    1.174047
     19          6           0       -3.737772    1.317557   -2.094701
     20          1           0       -4.436810    1.870897   -1.450427
     21          6           0       -3.734337    1.997565   -3.473029
     22          1           0       -3.048412    1.487337   -4.160644
     23          1           0       -4.732695    1.972165   -3.922947
     24          1           0       -3.421607    3.046231   -3.405927
     25          6           0       -4.232399   -0.132545   -2.202247
     26          1           0       -3.546235   -0.736334   -2.809808
     27          1           0       -4.337227   -0.609518   -1.222259
     28          1           0       -5.215230   -0.167472   -2.684936
     29          7           0        0.095465    0.068746   -0.029546
     30          1           0       -0.235124   -0.549364   -0.769666
     31          6           0        1.554917    0.115158    0.031111
     32          1           0        1.852017    1.154492    0.206567
     33          6           0        2.033538   -0.342697   -1.365172
     34          6           0        2.153231   -0.772059    1.161909
     35          1           0        3.244556   -0.688950    1.061077
     36          8           0        1.253515   -0.904878   -2.141756
     37          6           0        1.772235   -0.238812    2.549574
     38          1           0        0.693184   -0.320907    2.722333
     39          1           0        2.279797   -0.819054    3.327786
     40          1           0        2.050122    0.813282    2.670702
     41          6           0        1.772931   -2.251547    1.007134
     42          1           0        0.690442   -2.391732    1.111845
     43          1           0        2.260555   -2.849451    1.783925
     44          1           0        2.072027   -2.658354    0.035374
     45          7           0        3.326265   -0.098415   -1.646757
     46          1           0        3.971664    0.217778   -0.926080
     47          6           0        3.999419   -0.658973   -2.813213
     48          1           0        3.762342   -1.731822   -2.861070
     49          6           0        5.513118   -0.537051   -2.510691
     50          6           0        3.565261   -0.011994   -4.152921
     51          1           0        2.597733    0.472150   -4.001149
     52          1           0        4.272117    0.783463   -4.414922
     53          8           0        6.380092   -0.781577   -3.479862
     54          6           0        3.441947   -1.054411   -5.283960
     55          1           0        2.435272   -1.487373   -5.252109
     56          1           0        4.124862   -1.890298   -5.089157
     57          6           0        3.728729   -0.523207   -6.695837
     58          1           0        3.602022   -1.349330   -7.408883
     59          1           0        2.994630    0.240698   -6.982887
     60          6           0        5.134388    0.074875   -6.858994
     61          1           0        5.348929    0.218402   -7.927569
     62          1           0        5.187185    1.064646   -6.392860
     63          7           0        6.152021   -0.765748   -6.190218
     64          1           0        7.079447   -0.363000   -6.325544
     65          1           0        6.052222   -0.846949   -4.435753
     66          1           0        6.182938   -1.689730   -6.623120
     67          8           0        5.886313   -0.249356   -1.387821
 ---------------------------------------------------------------------

 SCF Done:  E(RB3LYP) =  -1396.64445536     A.U. after    2 cycles

 Alpha  occ. eigenvalues --  -19.28388 -19.22934 -19.22245 -19.19805 -19.18801
 Alpha  occ. eigenvalues --  -14.61832 -14.50306 -14.45353 -14.43190 -14.41588
 Alpha  occ. eigenvalues --  -10.45161 -10.42258 -10.39179 -10.37519 -10.36611
 Alpha  occ. eigenvalues --  -10.34917 -10.31419 -10.30645 -10.28754 -10.28746
 Alpha  occ. eigenvalues --  -10.28038 -10.27221 -10.25696 -10.25556 -10.25358
 Alpha  occ. eigenvalues --  -10.25350 -10.25246 -10.24349 -10.24316  -1.20784
 Alpha  occ. eigenvalues --   -1.15390  -1.14560  -1.14119  -1.11476  -1.07007
 Alpha  occ. eigenvalues --   -1.06456  -1.02071  -0.99861  -0.97271  -0.92414
 Alpha  occ. eigenvalues --   -0.89736  -0.88440  -0.86822  -0.84987  -0.82421
 Alpha  occ. eigenvalues --   -0.79059  -0.76655  -0.76222  -0.75822  -0.75782
 Alpha  occ. eigenvalues --   -0.75477  -0.75354  -0.71879  -0.70631  -0.69076
 Alpha  occ. eigenvalues --   -0.67566  -0.67428  -0.65227  -0.65078  -0.64460
 Alpha  occ. eigenvalues --   -0.64221  -0.63836  -0.62644  -0.61950  -0.59672
 Alpha  occ. eigenvalues --   -0.58466  -0.58101  -0.57292  -0.56487  -0.55470
 Alpha  occ. eigenvalues --   -0.54839  -0.54220  -0.53825  -0.53567  -0.53280
 Alpha  occ. eigenvalues --   -0.52620  -0.52116  -0.51221  -0.50886  -0.50456
 Alpha  occ. eigenvalues --   -0.49696  -0.49450  -0.48977  -0.48105  -0.47854
 Alpha  occ. eigenvalues --   -0.47696  -0.47325  -0.46440  -0.45541  -0.45200
 Alpha  occ. eigenvalues --   -0.45106  -0.44890  -0.44560  -0.43878  -0.43319
 Alpha  occ. eigenvalues --   -0.42482  -0.42223  -0.41607  -0.41497  -0.41245
 Alpha  occ. eigenvalues --   -0.40887  -0.40731  -0.40483  -0.39812  -0.39656
 Alpha  occ. eigenvalues --   -0.39547  -0.36298  -0.36075  -0.35324  -0.34523
 Alpha  occ. eigenvalues --   -0.33545  -0.33093  -0.32252
 Alpha virt. eigenvalues --   -0.13406  -0.13096  -0.07951  -0.07540  -0.05952
 Alpha virt. eigenvalues --   -0.05641  -0.04206  -0.02459  -0.01980  -0.00572
 Alpha virt. eigenvalues --   -0.00077   0.01007   0.01556   0.01984   0.03174

 Mulliken charges:
               1
     1  N   -0.751383
     2  H    0.422852
     3  H    0.422475
     4  H    0.440446
     5  C   -0.278780
     6  H    0.249182
     7  H    0.249004
     8  C    0.637885
     9  O   -0.529590
    10  N   -0.586033
    11  H    0.373965
    12  C   -0.089018
    13  H    0.194791
    14  C    0.627989
    15  C   -0.263895
    16  H    0.152579
    17  H    0.168251
    18  O   -0.545774
    19  C   -0.071140
    20  H    0.115135
    21  C   -0.447377
    22  H    0.155487
    23  H    0.156726
    24  H    0.145940
    25  C   -0.459921
    26  H    0.152111
    27  H    0.155201
    28  H    0.157892
    29  N   -0.600379
    30  H    0.363232
    31  C   -0.073352
    32  H    0.184729
    33  C    0.628605
    34  C   -0.083184
    35  H    0.151943
    36  O   -0.559046
    37  C   -0.442338
    38  H    0.138660
    39  H    0.157515
    40  H    0.158693
    41  C   -0.461640
    42  H    0.142859
    43  H    0.163034
    44  H    0.163066
    45  N   -0.627250
    46  H    0.366445
    47  C   -0.049261
    48  H    0.189383
    49  C    0.590693
    50  C   -0.285330
    51  H    0.172533
    52  H    0.149905
    53  O   -0.610982
    54  C   -0.275172
    55  H    0.163825
    56  H    0.138979
    57  C   -0.280497
    58  H    0.146868
    59  H    0.151660
    60  C   -0.140686
    61  H    0.151596
    62  H    0.160837
    63  N   -0.773299
    64  H    0.339935
    65  H    0.479995
    66  H    0.328484
    67  O   -0.476056
 Sum of Mulliken charges =   1.00000

 Dipole moment (field-independent basis, Debye):
    X=            -16.8786    Y=              8.3918    Z=              2.0453  Tot=             18.9603
 Quadrupole moment (field-independent basis, Debye-Ang):
   XX=            -43.9334   YY=           -147.8415   ZZ=            -75.0297
   XY=            -59.2939   XZ=           -106.4590   YZ=             27.9978

 Normal termination of Gaussian 16 at Fri May 27 01:48:48 2022.
