 Gaussian 16, Revision C.01,
 Gaussian 16:  ES64L-G16RevC.01  3-Jul-2019

 -------------------------------------------------------------------
 # B3LYP/6-31G* guess=read geom=check nosymm integral(ultrafinegrid)
 -------------------------------------------------------------------

 ------------------------------------------------------
 Candidate Structure: Conf:879 Charge calc in gas phase
 ------------------------------------------------------
 Structure from the checkpoint file:  "conf-879.chk"
 Charge =  1 Multiplicity = 1

                          Input orientation:
 ---------------------------------------------------------------------
 Center     Atomic      Atomic             Coordinates (Angstroms)
 Number     Number       Type             X           Y           Z
 ---------------------------------------------------------------------
      1          7           0       -1.086571   -1.157028   -3.034286
      2          1           0       -0.630748   -0.631042   -3.779429
      3          1           0        0.538243   -0.536227   -1.973916
      4          1           0       -1.139305   -2.122546   -3.355325
      5          6           0       -2.448348   -0.616263   -2.831220
      6          1           0       -3.062527   -1.378905   -2.343211
      7          1           0       -2.949755   -0.314782   -3.759170
      8          6           0       -2.263403    0.605672   -1.941358
      9          8           0       -1.732325    1.627608   -2.392423
     10          7           0       -2.571814    0.457873   -0.629943
     11          1           0       -3.052669   -0.380044   -0.328374
     12          6           0       -2.093609    1.394493    0.388413
     13          1           0       -2.423801    2.401200    0.121584
     14          6           0       -0.545380    1.433309    0.376582
     15          6           0       -2.672048    1.010649    1.764102
     16          1           0       -3.767387    1.044975    1.682886
     17          1           0       -2.404533   -0.034322    1.979876
     18          8           0        0.073259    2.504231    0.374927
     19          6           0       -2.223553    1.892069    2.948759
     20          1           0       -1.129483    1.823188    3.030417
     21          6           0       -2.591667    3.371073    2.755575
     22          1           0       -3.669875    3.494192    2.590541
     23          1           0       -2.326804    3.948886    3.646922
     24          1           0       -2.056343    3.819380    1.911157
     25          6           0       -2.827835    1.341177    4.249378
     26          1           0       -3.923342    1.398274    4.231798
     27          1           0       -2.548140    0.294045    4.413575
     28          1           0       -2.479535    1.918053    5.112058
     29          7           0        0.058728    0.224813    0.376596
     30          1           0       -0.535137   -0.594086    0.367165
     31          6           0        1.511705   -0.001485    0.322188
     32          1           0        1.992386    0.679241    1.028800
     33          6           0        2.053643    0.367348   -1.057712
     34          6           0        1.815837   -1.471499    0.721763
     35          1           0        1.262909   -2.121688    0.023755
     36          8           0        1.389623   -0.073425   -2.149836
     37          6           0        3.310583   -1.796246    0.583567
     38          1           0        3.912354   -1.160607    1.243761
     39          1           0        3.491151   -2.836772    0.870474
     40          1           0        3.676296   -1.662294   -0.437818
     41          6           0        1.337873   -1.766308    2.153504
     42          1           0        1.874591   -1.140610    2.876363
     43          1           0        1.535019   -2.812327    2.408122
     44          1           0        0.265495   -1.590605    2.294859
     45          7           0        3.116737    1.061259   -1.136579
     46          1           0        4.973153    0.971247   -0.580804
     47          6           0        3.664795    1.451361   -2.432448
     48          1           0        3.278849    0.852893   -3.265013
     49          6           0        5.196220    1.268329   -2.419258
     50          6           0        3.361175    2.947609   -2.680645
     51          1           0        3.765729    3.510662   -1.829378
     52          1           0        3.914037    3.263320   -3.571303
     53          8           0        5.725290    1.000916   -1.212830
     54          6           0        1.861369    3.247335   -2.828775
     55          1           0        1.303432    2.600843   -2.143825
     56          1           0        1.524091    2.998331   -3.844010
     57          6           0        1.531797    4.709222   -2.502591
     58          1           0        1.894422    4.949773   -1.493963
     59          1           0        2.058535    5.386908   -3.186061
     60          6           0        0.050674    5.062894   -2.591105
     61          1           0       -0.124006    6.095885   -2.281159
     62          1           0       -0.347016    4.932685   -3.601016
     63          7           0       -0.801618    4.188171   -1.685789
     64          1           0       -1.078291    3.278311   -2.112190
     65          1           0       -0.335033    3.898580   -0.799061
     66          1           0       -1.671735    4.666765   -1.438071
     67          8           0        5.861494    1.390660   -3.417824
 ---------------------------------------------------------------------

 SCF Done:  E(RB3LYP) =  -1396.64160413     A.U. after    1 cycles

 Alpha  occ. eigenvalues --  -19.28488 -19.27201 -19.26040 -19.24580 -19.18813
 Alpha  occ. eigenvalues --  -14.56983 -14.51295 -14.49879 -14.46794 -14.41777
 Alpha  occ. eigenvalues --  -10.43782 -10.42832 -10.38799 -10.37607 -10.37412
 Alpha  occ. eigenvalues --  -10.37375 -10.35897 -10.35057 -10.31873 -10.31096
 Alpha  occ. eigenvalues --  -10.31019 -10.30815 -10.30211 -10.28993 -10.27975
 Alpha  occ. eigenvalues --  -10.27888 -10.27737 -10.27035 -10.26930  -1.18815
 Alpha  occ. eigenvalues --   -1.17618  -1.16966  -1.15451  -1.11878  -1.07873
 Alpha  occ. eigenvalues --   -1.07317  -1.05690  -1.02565  -1.01010  -0.93597
 Alpha  occ. eigenvalues --   -0.92147  -0.91473  -0.87994  -0.87081  -0.83530
 Alpha  occ. eigenvalues --   -0.82644  -0.80686  -0.78781  -0.78438  -0.77103
 Alpha  occ. eigenvalues --   -0.75013  -0.73823  -0.72246  -0.70925  -0.70658
 Alpha  occ. eigenvalues --   -0.69713  -0.68996  -0.68603  -0.66969  -0.66561
 Alpha  occ. eigenvalues --   -0.65611  -0.64739  -0.64286  -0.62527  -0.62337
 Alpha  occ. eigenvalues --   -0.61374  -0.60359  -0.59952  -0.58845  -0.58421
 Alpha  occ. eigenvalues --   -0.58104  -0.56443  -0.56160  -0.55704  -0.55009
 Alpha  occ. eigenvalues --   -0.54598  -0.54244  -0.53680  -0.53155  -0.52704
 Alpha  occ. eigenvalues --   -0.52468  -0.52223  -0.51577  -0.50438  -0.50176
 Alpha  occ. eigenvalues --   -0.49957  -0.49199  -0.49068  -0.48408  -0.48236
 Alpha  occ. eigenvalues --   -0.47848  -0.47762  -0.47281  -0.46365  -0.45613
 Alpha  occ. eigenvalues --   -0.44853  -0.44315  -0.44099  -0.43866  -0.43651
 Alpha  occ. eigenvalues --   -0.43579  -0.43471  -0.43293  -0.42327  -0.42215
 Alpha  occ. eigenvalues --   -0.41546  -0.39870  -0.38811  -0.38744  -0.37419
 Alpha  occ. eigenvalues --   -0.37019  -0.35722  -0.32143
 Alpha virt. eigenvalues --   -0.13464  -0.12084  -0.09042  -0.08949  -0.07414
 Alpha virt. eigenvalues --   -0.04765  -0.04132  -0.03600  -0.03017  -0.01337
 Alpha virt. eigenvalues --   -0.01240  -0.00550   0.00056   0.00195   0.00619

 Mulliken charges:
               1
     1  N   -0.755645
     2  H    0.352250
     3  H    0.440376
     4  H    0.345898
     5  C   -0.235859
     6  H    0.170131
     7  H    0.193300
     8  C    0.640085
     9  O   -0.550419
    10  N   -0.609333
    11  H    0.350489
    12  C   -0.035578
    13  H    0.159945
    14  C    0.659839
    15  C   -0.303996
    16  H    0.168361
    17  H    0.140834
    18  O   -0.568805
    19  C   -0.084955
    20  H    0.149917
    21  C   -0.452498
    22  H    0.150929
    23  H    0.173705
    24  H    0.128196
    25  C   -0.449132
    26  H    0.155290
    27  H    0.150563
    28  H    0.169181
    29  N   -0.612638
    30  H    0.334947
    31  C   -0.016777
    32  H    0.195484
    33  C    0.550272
    34  C   -0.126139
    35  H    0.127753
    36  O   -0.646068
    37  C   -0.455712
    38  H    0.163594
    39  H    0.170349
    40  H    0.171789
    41  C   -0.448339
    42  H    0.167570
    43  H    0.176537
    44  H    0.129603
    45  N   -0.494718
    46  H    0.427787
    47  C   -0.098869
    48  H    0.178895
    49  C    0.605149
    50  C   -0.262164
    51  H    0.154639
    52  H    0.186718
    53  O   -0.573377
    54  C   -0.282063
    55  H    0.147590
    56  H    0.150856
    57  C   -0.291928
    58  H    0.171928
    59  H    0.188940
    60  C   -0.181526
    61  H    0.203285
    62  H    0.205547
    63  N   -0.805645
    64  H    0.451613
    65  H    0.440145
    66  H    0.394681
    67  O   -0.452777
 Sum of Mulliken charges =   1.00000

 Dipole moment (field-independent basis, Debye):
    X=            -12.3027    Y=              7.3445    Z=             -2.9858  Tot=             14.6360
 Quadrupole moment (field-independent basis, Debye-Ang):
   XX=           -190.8174   YY=           -106.2085   ZZ=           -150.3534
   XY=            -13.5193   XZ=             25.0488   YZ=            -13.8575

 Normal termination of Gaussian 16 at Fri May 27 02:05:56 2022.
