 Gaussian 16, Revision C.01,
 Gaussian 16:  ES64L-G16RevC.01  3-Jul-2019

 -------------------------------------------------------------------
 # B3LYP/6-31G* guess=read geom=check nosymm integral(ultrafinegrid)
 -------------------------------------------------------------------

 -----------------------------------------------------
 Candidate Structure: Conf:34 Charge calc in gas phase
 -----------------------------------------------------
 Structure from the checkpoint file:  "conf-34.chk"
 Charge =  1 Multiplicity = 1

                          Input orientation:
 ---------------------------------------------------------------------
 Center     Atomic      Atomic             Coordinates (Angstroms)
 Number     Number       Type             X           Y           Z
 ---------------------------------------------------------------------
      1          7           0       -5.402183   -0.016131    3.746621
      2          1           0       -5.463796   -0.881326    4.290181
      3          1           0       -6.130761    0.623639    4.074559
      4          1           0       -5.534597   -0.226538    2.698815
      5          6           0       -4.026182    0.591091    3.733278
      6          1           0       -3.356952    0.003822    4.364534
      7          1           0       -4.071445    1.613915    4.110857
      8          6           0       -3.619524    0.538241    2.233082
      9          8           0       -4.457211    0.056169    1.452698
     10          7           0       -2.426659    1.018706    1.930807
     11          1           0       -1.749152    1.274992    2.655297
     12          6           0       -1.787918    0.973155    0.608484
     13          1           0       -2.212154    0.133856    0.049957
     14          6           0       -0.292563    0.741098    0.931889
     15          6           0       -1.950881    2.302263   -0.165601
     16          1           0       -1.553203    3.101941    0.472954
     17          1           0       -1.301642    2.272017   -1.049943
     18          8           0        0.136767    1.055849    2.043487
     19          6           0       -3.376372    2.664199   -0.627705
     20          1           0       -4.044753    2.644405    0.246086
     21          6           0       -3.366244    4.097528   -1.184300
     22          1           0       -2.655593    4.188425   -2.014373
     23          1           0       -4.359094    4.381609   -1.550182
     24          1           0       -3.069603    4.822242   -0.417129
     25          6           0       -3.920812    1.673306   -1.667099
     26          1           0       -3.272413    1.640203   -2.552015
     27          1           0       -4.012332    0.657884   -1.266258
     28          1           0       -4.918214    1.977970   -2.002550
     29          7           0        0.463460    0.259168   -0.076095
     30          1           0        0.000839   -0.035218   -0.927602
     31          6           0        1.925107    0.099996   -0.003764
     32          1           0        2.225451    0.674347    0.880109
     33          6           0        2.575538    0.764938   -1.249804
     34          6           0        2.387530   -1.372334    0.187349
     35          1           0        2.397122   -1.850637   -0.801042
     36          8           0        3.635573    0.369593   -1.719254
     37          6           0        3.819882   -1.408427    0.747384
     38          1           0        3.854432   -0.960560    1.749460
     39          1           0        4.162559   -2.445176    0.836186
     40          1           0        4.511288   -0.871987    0.096525
     41          6           0        1.441238   -2.158598    1.107090
     42          1           0        1.353529   -1.678077    2.089159
     43          1           0        1.833773   -3.168956    1.263208
     44          1           0        0.434565   -2.258763    0.686016
     45          7           0        1.880307    1.810748   -1.764825
     46          1           0        1.023257    2.125546   -1.331011
     47          6           0        2.326499    2.607775   -2.896760
     48          1           0        3.361747    2.927359   -2.744705
     49          6           0        1.425245    3.831833   -2.981538
     50          6           0        2.239572    1.812852   -4.241468
     51          1           0        3.062778    1.093705   -4.222882
     52          1           0        1.309119    1.230818   -4.220021
     53          8           0        2.025578    4.843437   -3.582272
     54          6           0        2.289359    2.665784   -5.529509
     55          1           0        2.737073    2.060221   -6.325547
     56          1           0        2.964796    3.513123   -5.376549
     57          6           0        0.898210    3.166039   -6.015649
     58          1           0        0.525526    2.468873   -6.775252
     59          1           0        0.167759    3.117838   -5.197745
     60          6           0        0.857864    4.590803   -6.608084
     61          1           0        1.835906    4.860243   -7.020468
     62          1           0        0.139022    4.631934   -7.437459
     63          7           0        0.514964    5.611101   -5.578481
     64          1           0        0.634762    6.549300   -5.959317
     65          1           0       -0.470295    5.525863   -5.327934
     66          1           0        1.364732    5.341792   -4.203784
     67          8           0        0.255115    3.810086   -2.615279
 ---------------------------------------------------------------------

 SCF Done:  E(RB3LYP) =  -1396.63508508     A.U. after    3 cycles

 Alpha  occ. eigenvalues --  -19.28777 -19.22993 -19.22820 -19.20297 -19.18279
 Alpha  occ. eigenvalues --  -14.62216 -14.50905 -14.47073 -14.42882 -14.42341
 Alpha  occ. eigenvalues --  -10.45611 -10.42646 -10.40077 -10.38000 -10.35921
 Alpha  occ. eigenvalues --  -10.35593 -10.31456 -10.30002 -10.29136 -10.28809
 Alpha  occ. eigenvalues --  -10.28201 -10.26450 -10.25720 -10.25462 -10.25363
 Alpha  occ. eigenvalues --  -10.25136 -10.24746 -10.24548 -10.22760  -1.21189
 Alpha  occ. eigenvalues --   -1.15818  -1.15206  -1.14924  -1.10375  -1.07576
 Alpha  occ. eigenvalues --   -1.06806  -1.03391  -0.99173  -0.97639  -0.92811
 Alpha  occ. eigenvalues --   -0.89980  -0.87935  -0.86471  -0.85231  -0.82339
 Alpha  occ. eigenvalues --   -0.78996  -0.76929  -0.76325  -0.76132  -0.76061
 Alpha  occ. eigenvalues --   -0.75828  -0.74588  -0.72353  -0.69704  -0.69660
 Alpha  occ. eigenvalues --   -0.68373  -0.67423  -0.65937  -0.65402  -0.64958
 Alpha  occ. eigenvalues --   -0.63920  -0.63635  -0.62383  -0.61639  -0.59899
 Alpha  occ. eigenvalues --   -0.58193  -0.57972  -0.57616  -0.56960  -0.56214
 Alpha  occ. eigenvalues --   -0.55073  -0.54685  -0.53935  -0.53507  -0.53341
 Alpha  occ. eigenvalues --   -0.52477  -0.51961  -0.51684  -0.51278  -0.50192
 Alpha  occ. eigenvalues --   -0.49844  -0.49426  -0.48522  -0.48341  -0.48154
 Alpha  occ. eigenvalues --   -0.47826  -0.47531  -0.46474  -0.45818  -0.45264
 Alpha  occ. eigenvalues --   -0.44756  -0.44419  -0.43844  -0.43671  -0.43429
 Alpha  occ. eigenvalues --   -0.42516  -0.42379  -0.41778  -0.41663  -0.41284
 Alpha  occ. eigenvalues --   -0.40449  -0.40178  -0.39955  -0.39873  -0.39805
 Alpha  occ. eigenvalues --   -0.39655  -0.36920  -0.36420  -0.36312  -0.34553
 Alpha  occ. eigenvalues --   -0.33834  -0.31939  -0.31500
 Alpha virt. eigenvalues --   -0.13775  -0.13438  -0.08656  -0.07947  -0.06362
 Alpha virt. eigenvalues --   -0.06093  -0.04759  -0.02896  -0.02721  -0.01835
 Alpha virt. eigenvalues --   -0.00365   0.00493   0.01313   0.01836   0.02664

 Mulliken charges:
               1
     1  N   -0.750977
     2  H    0.423707
     3  H    0.423470
     4  H    0.440627
     5  C   -0.279090
     6  H    0.250107
     7  H    0.250166
     8  C    0.639851
     9  O   -0.529401
    10  N   -0.583483
    11  H    0.374653
    12  C   -0.093435
    13  H    0.186733
    14  C    0.632509
    15  C   -0.271173
    16  H    0.157764
    17  H    0.180070
    18  O   -0.534217
    19  C   -0.071624
    20  H    0.111397
    21  C   -0.453289
    22  H    0.173633
    23  H    0.150155
    24  H    0.146414
    25  C   -0.460451
    26  H    0.149557
    27  H    0.151308
    28  H    0.158128
    29  N   -0.630686
    30  H    0.342838
    31  C   -0.055073
    32  H    0.206509
    33  C    0.606220
    34  C   -0.072337
    35  H    0.143686
    36  O   -0.511336
    37  C   -0.463641
    38  H    0.139257
    39  H    0.150919
    40  H    0.197210
    41  C   -0.451151
    42  H    0.151766
    43  H    0.161198
    44  H    0.119860
    45  N   -0.642148
    46  H    0.354471
    47  C    0.014037
    48  H    0.189896
    49  C    0.570128
    50  C   -0.283148
    51  H    0.188351
    52  H    0.132974
    53  O   -0.596135
    54  C   -0.284313
    55  H    0.151995
    56  H    0.170777
    57  C   -0.289730
    58  H    0.153231
    59  H    0.150621
    60  C   -0.145918
    61  H    0.170848
    62  H    0.151271
    63  N   -0.776689
    64  H    0.337266
    65  H    0.334612
    66  H    0.458852
    67  O   -0.519594
 Sum of Mulliken charges =   1.00000

 Dipole moment (field-independent basis, Debye):
    X=            -20.0956    Y=              5.2961    Z=              7.3279  Tot=             22.0358
 Quadrupole moment (field-independent basis, Debye-Ang):
   XX=            -86.0055   YY=           -140.8819   ZZ=            -64.0553
   XY=             -7.1295   XZ=            -76.4619   YZ=            -36.5565

 Normal termination of Gaussian 16 at Fri May 27 01:49:31 2022.
