 Gaussian 16, Revision C.01,
 Gaussian 16:  ES64L-G16RevC.01  3-Jul-2019

 -------------------------------------------------------------------
 # B3LYP/6-31G* guess=read geom=check nosymm integral(ultrafinegrid)
 -------------------------------------------------------------------

 ------------------------------------------------------
 Candidate Structure: Conf:883 Charge calc in gas phase
 ------------------------------------------------------
 Structure from the checkpoint file:  "conf-883.chk"
 Charge =  1 Multiplicity = 1

                          Input orientation:
 ---------------------------------------------------------------------
 Center     Atomic      Atomic             Coordinates (Angstroms)
 Number     Number       Type             X           Y           Z
 ---------------------------------------------------------------------
      1          7           0       -4.905706    0.993435    4.760409
      2          1           0       -4.592561    0.591744    5.648142
      3          1           0       -5.736578    1.563682    4.938785
      4          1           0       -5.133967    0.208220    4.056599
      5          6           0       -3.822893    1.719787    4.010914
      6          1           0       -2.903642    1.722884    4.599256
      7          1           0       -4.132277    2.748852    3.821445
      8          6           0       -3.679122    0.899894    2.696576
      9          8           0       -4.436552   -0.078125    2.576249
     10          7           0       -2.776846    1.329606    1.833815
     11          1           0       -2.084991    2.044650    2.089704
     12          6           0       -2.363591    0.645851    0.600821
     13          1           0       -2.533965   -0.427455    0.723535
     14          6           0       -0.845685    0.951519    0.512297
     15          6           0       -3.096393    1.180807   -0.649873
     16          1           0       -2.916346    2.262886   -0.700566
     17          1           0       -2.605912    0.745878   -1.530962
     18          8           0       -0.372714    1.868450    1.195844
     19          6           0       -4.609868    0.897665   -0.735184
     20          1           0       -5.085368    1.282194    0.179130
     21          6           0       -5.203557    1.663821   -1.928054
     22          1           0       -4.761968    1.323083   -2.872786
     23          1           0       -6.285475    1.505905   -1.993546
     24          1           0       -5.024968    2.742388   -1.845574
     25          6           0       -4.919700   -0.602925   -0.840885
     26          1           0       -4.437193   -1.041305   -1.723770
     27          1           0       -4.591339   -1.158122    0.043754
     28          1           0       -5.998358   -0.765408   -0.942209
     29          7           0       -0.148103    0.193922   -0.339904
     30          1           0       -0.588839   -0.511425   -0.929701
     31          6           0        1.260334    0.404757   -0.666361
     32          1           0        1.441916    1.484194   -0.724410
     33          6           0        1.430598   -0.241234   -2.059360
     34          6           0        2.198195   -0.189156    0.430811
     35          1           0        1.806603    0.226942    1.367927
     36          8           0        0.597471   -1.055712   -2.468252
     37          6           0        2.119638   -1.719833    0.506759
     38          1           0        2.529490   -2.189951   -0.394509
     39          1           0        2.697883   -2.085353    1.362172
     40          1           0        1.088296   -2.068929    0.626016
     41          6           0        3.648189    0.297441    0.289591
     42          1           0        4.146026   -0.124574   -0.589959
     43          1           0        4.229922   -0.008118    1.165727
     44          1           0        3.704096    1.391342    0.225998
     45          7           0        2.518354    0.128394   -2.759795
     46          1           0        3.185908    0.796430   -2.389043
     47          6           0        2.897867   -0.466407   -4.035287
     48          1           0        2.583658   -1.512122   -4.044651
     49          6           0        4.413757   -0.383662   -4.154499
     50          6           0        2.233570    0.281770   -5.237128
     51          1           0        1.189987   -0.048281   -5.266951
     52          1           0        2.218493    1.351504   -4.993109
     53          8           0        4.894958   -1.311248   -4.966632
     54          6           0        2.904357    0.078341   -6.615468
     55          1           0        2.137751    0.197427   -7.389701
     56          1           0        3.261802   -0.952523   -6.696401
     57          6           0        4.060603    1.078137   -6.909221
     58          1           0        3.656865    1.909863   -7.498410
     59          1           0        4.418713    1.533188   -5.977260
     60          6           0        5.281238    0.508155   -7.661723
     61          1           0        4.979289   -0.327414   -8.302564
     62          1           0        5.703275    1.279682   -8.320027
     63          7           0        6.323913   -0.001384   -6.729901
     64          1           0        7.065193   -0.467610   -7.251883
     65          1           0        6.761025    0.782116   -6.243633
     66          1           0        5.659264   -0.907607   -5.535719
     67          8           0        5.055989    0.514322   -3.629356
 ---------------------------------------------------------------------

 SCF Done:  E(RB3LYP) =  -1396.64552182     A.U. after    1 cycles

 Alpha  occ. eigenvalues --  -19.28259 -19.21980 -19.21937 -19.19366 -19.19154
 Alpha  occ. eigenvalues --  -14.61696 -14.50144 -14.45210 -14.43379 -14.41379
 Alpha  occ. eigenvalues --  -10.45022 -10.42138 -10.38965 -10.36991 -10.36523
 Alpha  occ. eigenvalues --  -10.34769 -10.31449 -10.29688 -10.28617 -10.28402
 Alpha  occ. eigenvalues --  -10.27876 -10.27021 -10.25303 -10.25183 -10.25165
 Alpha  occ. eigenvalues --  -10.24794 -10.24398 -10.24370 -10.24221  -1.20657
 Alpha  occ. eigenvalues --   -1.15248  -1.14290  -1.13872  -1.11237  -1.06850
 Alpha  occ. eigenvalues --   -1.05917  -1.01869  -0.99815  -0.96746  -0.92270
 Alpha  occ. eigenvalues --   -0.89583  -0.88193  -0.86083  -0.84865  -0.81851
 Alpha  occ. eigenvalues --   -0.78912  -0.76495  -0.76058  -0.75814  -0.75661
 Alpha  occ. eigenvalues --   -0.75346  -0.75288  -0.71602  -0.69250  -0.68870
 Alpha  occ. eigenvalues --   -0.68109  -0.67120  -0.65502  -0.64937  -0.64191
 Alpha  occ. eigenvalues --   -0.64002  -0.63212  -0.61874  -0.61280  -0.59108
 Alpha  occ. eigenvalues --   -0.57526  -0.57123  -0.57030  -0.55979  -0.55705
 Alpha  occ. eigenvalues --   -0.54407  -0.54045  -0.53586  -0.53455  -0.52624
 Alpha  occ. eigenvalues --   -0.52208  -0.51809  -0.51406  -0.51129  -0.50382
 Alpha  occ. eigenvalues --   -0.49442  -0.49126  -0.48099  -0.47908  -0.47707
 Alpha  occ. eigenvalues --   -0.47466  -0.47330  -0.46273  -0.46214  -0.45594
 Alpha  occ. eigenvalues --   -0.44984  -0.44564  -0.43981  -0.43182  -0.42713
 Alpha  occ. eigenvalues --   -0.42266  -0.42059  -0.41490  -0.41298  -0.41118
 Alpha  occ. eigenvalues --   -0.40706  -0.40624  -0.39861  -0.39535  -0.39437
 Alpha  occ. eigenvalues --   -0.39207  -0.36069  -0.35649  -0.34857  -0.33733
 Alpha  occ. eigenvalues --   -0.33691  -0.32762  -0.31796
 Alpha virt. eigenvalues --   -0.13269  -0.12995  -0.07791  -0.07406  -0.05818
 Alpha virt. eigenvalues --   -0.05442  -0.04469  -0.02328  -0.01863   0.00184
 Alpha virt. eigenvalues --    0.00707   0.01290   0.01601   0.02038   0.03404

 Mulliken charges:
               1
     1  N   -0.751583
     2  H    0.422454
     3  H    0.422223
     4  H    0.440583
     5  C   -0.278575
     6  H    0.248640
     7  H    0.248689
     8  C    0.637663
     9  O   -0.529800
    10  N   -0.585883
    11  H    0.373871
    12  C   -0.088029
    13  H    0.194227
    14  C    0.634576
    15  C   -0.259107
    16  H    0.152450
    17  H    0.164205
    18  O   -0.553411
    19  C   -0.071350
    20  H    0.114493
    21  C   -0.447338
    22  H    0.155934
    23  H    0.156739
    24  H    0.145859
    25  C   -0.459767
    26  H    0.152485
    27  H    0.155500
    28  H    0.157687
    29  N   -0.618622
    30  H    0.366836
    31  C   -0.054429
    32  H    0.174992
    33  C    0.625501
    34  C   -0.073190
    35  H    0.154498
    36  O   -0.550765
    37  C   -0.456449
    38  H    0.164100
    39  H    0.156162
    40  H    0.142559
    41  C   -0.474145
    42  H    0.165238
    43  H    0.162638
    44  H    0.150442
    45  N   -0.617447
    46  H    0.356575
    47  C   -0.017423
    48  H    0.192869
    49  C    0.579908
    50  C   -0.279693
    51  H    0.167816
    52  H    0.146343
    53  O   -0.600169
    54  C   -0.283427
    55  H    0.147584
    56  H    0.171180
    57  C   -0.291349
    58  H    0.152490
    59  H    0.160183
    60  C   -0.144289
    61  H    0.166335
    62  H    0.151063
    63  N   -0.777375
    64  H    0.335821
    65  H    0.340421
    66  H    0.459093
    67  O   -0.505310
 Sum of Mulliken charges =   1.00000

 Dipole moment (field-independent basis, Debye):
    X=            -11.8959    Y=              6.6219    Z=              9.1179  Tot=             16.3859
 Quadrupole moment (field-independent basis, Debye-Ang):
   XX=            -54.0474   YY=           -169.6175   ZZ=            -23.1873
   XY=            -23.8148   XZ=           -125.0496   YZ=             12.7738

 Normal termination of Gaussian 16 at Fri May 27 02:05:53 2022.
