 Gaussian 16, Revision C.01,
 Gaussian 16:  ES64L-G16RevC.01  3-Jul-2019

 ----------------------------------------------------------------------
 # B3LYP/6-31G* empiricaldispersion=gd3 guess=read geom=check nosymm in
 tegral(ultrafinegrid)
 ----------------------------------------------------------------------

 ------------------------------------------------------
 Candidate Structure: Conf:112 Charge calc in gas phase
 ------------------------------------------------------
 Structure from the checkpoint file:  "conf-112.chk"
 Charge =  1 Multiplicity = 1

                          Input orientation:
 ---------------------------------------------------------------------
 Center     Atomic      Atomic             Coordinates (Angstroms)
 Number     Number       Type             X           Y           Z
 ---------------------------------------------------------------------
      1          7           0       -6.048690   -4.003462   -4.509342
      2          1           0       -6.955610   -3.677454   -4.869913
      3          1           0       -6.075223   -5.019350   -4.350801
      4          1           0       -5.213478   -3.700302   -5.188046
      5          6           0       -5.585090   -3.229951   -3.259348
      6          1           0       -6.409406   -2.622994   -2.887745
      7          6           0       -4.436316   -2.382588   -3.858162
      8          6           0       -5.056867   -4.219914   -2.184808
      9          1           0       -5.860669   -4.954951   -2.027549
     10          8           0       -4.056013   -2.691489   -5.031406
     11          6           0       -4.795980   -3.533458   -0.815742
     12          1           0       -3.919297   -2.881008   -0.870664
     13          1           0       -4.542359   -4.338346   -0.115724
     14          6           0       -3.775720   -4.940134   -2.667035
     15          1           0       -2.936472   -4.237449   -2.692087
     16          1           0       -3.523102   -5.739008   -1.964377
     17          1           0       -3.877241   -5.385870   -3.663230
     18          6           0       -6.002070   -2.745370   -0.260899
     19          1           0       -5.797675   -2.427211    0.765330
     20          1           0       -6.200476   -1.836279   -0.842789
     21          1           0       -6.909575   -3.360442   -0.254335
     22          7           0       -3.889813   -1.462758   -3.092077
     23          1           0       -4.137136   -1.298378   -2.102318
     24          6           0       -2.586225   -0.828295   -3.375876
     25          1           0       -2.013028   -1.469676   -4.048111
     26          6           0       -1.942048   -0.769548   -1.969387
     27          6           0       -2.781411    0.575785   -4.000872
     28          1           0       -3.422746    1.159363   -3.332296
     29          1           0       -3.302162    0.443274   -4.956261
     30          8           0       -2.695157   -0.867456   -0.956772
     31          6           0       -1.448324    1.267270   -4.202441
     32          6           0       -1.067874    2.329642   -3.375854
     33          1           0       -1.751566    2.687695   -2.613428
     34          6           0       -0.550914    0.801578   -5.174253
     35          1           0       -0.840859   -0.018269   -5.824849
     36          6           0        0.183367    2.925475   -3.528626
     37          1           0        0.463738    3.743660   -2.876082
     38          6           0        0.706430    1.391251   -5.315661
     39          1           0        1.397444    1.019686   -6.062446
     40          6           0        1.076030    2.459122   -4.495203
     41          1           0        2.051048    2.920647   -4.591946
     42          7           0       -0.618711   -0.667519   -1.934718
     43          1           0       -0.026787   -0.457581   -2.753385
     44          6           0        0.169099   -0.646148   -0.691030
     45          1           0       -0.388663   -0.129205    0.094054
     46          6           0        1.466349    0.082974   -1.109355
     47          6           0        0.550111   -2.097334   -0.224885
     48          1           0        1.340405   -2.449766   -0.900503
     49          8           0        1.775632    0.106823   -2.329349
     50          6           0        1.075526   -2.092429    1.230037
     51          1           0        0.291225   -1.714406    1.899794
     52          1           0        1.307180   -3.121077    1.530444
     53          1           0        1.977500   -1.491636    1.370587
     54          6           0       -0.652071   -3.064342   -0.326301
     55          1           0       -1.499069   -2.671684    0.241834
     56          1           0       -0.963874   -3.193858   -1.368003
     57          1           0       -0.365741   -4.045129    0.068709
     58          7           0        2.225502    0.579474   -0.125124
     59          1           0        2.004442    0.467928    0.871294
     60          6           0        3.669273    0.832737   -0.298137
     61          1           0        4.023124    0.234951   -1.143264
     62          6           0        4.313483    0.356171    1.028858
     63          6           0        4.006382    2.316271   -0.538355
     64          1           0        3.806004    2.881024    0.378588
     65          1           0        5.074572    2.399203   -0.763523
     66          8           0        3.540180    0.063447    2.005249
     67          6           0        3.218863    2.910194   -1.722226
     68          1           0        2.319476    3.429905   -1.375199
     69          1           0        2.878765    2.099600   -2.378621
     70          6           0        4.099522    3.847724   -2.552198
     71          7           0        3.395189    4.706920   -3.368779
     72          1           0        2.400560    4.857700   -3.263061
     73          1           0        3.923056    5.347211   -3.953674
     74          8           0        5.336009    3.809688   -2.543662
     75          7           0        5.629086    0.336941    1.004221
     76          1           0        6.286026    0.491425    0.154508
     77          6           0        6.591756    0.038582    2.068125
     78          1           0        6.699241    0.900569    2.740990
     79          6           0        7.976261   -0.114727    1.242745
     80          6           0        6.384545   -1.234571    2.885844
     81          1           0        7.398644   -1.501461    3.212024
     82          1           0        6.007921   -2.026735    2.226645
     83          8           0        8.940391   -0.604086    1.876182
     84          6           0        5.441592   -1.044403    4.088329
     85          1           0        5.830718   -0.227492    4.712581
     86          1           0        4.459020   -0.755951    3.701758
     87          6           0        5.380950   -2.337597    4.938346
     88          1           0        6.404106   -2.615389    5.228447
     89          1           0        4.954833   -3.149115    4.333799
     90          6           0        4.530520   -2.095798    6.177898
     91          1           0        4.928499   -1.289493    6.797444
     92          1           0        3.482151   -1.911342    5.935784
     93          7           0        4.546931   -3.379073    7.095196
     94          1           0        3.986417   -3.251731    7.954287
     95          1           0        5.526204   -3.589539    7.354793
     96          1           0        4.176945   -4.182866    6.560210
     97          8           0        7.859749    0.280396    0.024053
 ---------------------------------------------------------------------

 SCF Done:  E(RB3LYP) =  -2122.36381150     A.U. after   13 cycles

 Alpha  occ. eigenvalues --  -19.26933 -19.21242 -19.17924 -19.14891 -19.14475
 Alpha  occ. eigenvalues --  -19.07588 -19.06568 -14.62039 -14.57931 -14.49202
 Alpha  occ. eigenvalues --  -14.44451 -14.41214 -14.39561 -14.36567 -10.43348
 Alpha  occ. eigenvalues --  -10.39873 -10.38745 -10.38301 -10.35101 -10.34146
 Alpha  occ. eigenvalues --  -10.33765 -10.32355 -10.31596 -10.30717 -10.29997
 Alpha  occ. eigenvalues --  -10.29962 -10.29596 -10.28538 -10.28371 -10.27051
 Alpha  occ. eigenvalues --  -10.26919 -10.26823 -10.25680 -10.25645 -10.25470
 Alpha  occ. eigenvalues --  -10.25462 -10.25262 -10.24804 -10.24629 -10.24135
 Alpha  occ. eigenvalues --  -10.23738 -10.22627 -10.22547 -10.21940 -10.21022
 Alpha  occ. eigenvalues --   -1.18250  -1.14955  -1.12331  -1.11062  -1.08904
 Alpha  occ. eigenvalues --   -1.05562  -1.05418  -1.04831  -1.00681  -0.99596
 Alpha  occ. eigenvalues --   -0.97273  -0.94608  -0.93628  -0.93594  -0.92630
 Alpha  occ. eigenvalues --   -0.91185  -0.90861  -0.88918  -0.87071  -0.85640
 Alpha  occ. eigenvalues --   -0.83949  -0.83293  -0.82181  -0.81477  -0.81019
 Alpha  occ. eigenvalues --   -0.78945  -0.77276  -0.75665  -0.75547  -0.75009
 Alpha  occ. eigenvalues --   -0.74799  -0.74147  -0.73555  -0.72936  -0.72110
 Alpha  occ. eigenvalues --   -0.70845  -0.69196  -0.68156  -0.67232  -0.67131
 Alpha  occ. eigenvalues --   -0.66935  -0.65600  -0.65121  -0.64974  -0.63959
 Alpha  occ. eigenvalues --   -0.63159  -0.61952  -0.61776  -0.61307  -0.60615
 Alpha  occ. eigenvalues --   -0.59580  -0.59300  -0.58249  -0.57675  -0.57582
 Alpha  occ. eigenvalues --   -0.57131  -0.56039  -0.55772  -0.54980  -0.54786
 Alpha  occ. eigenvalues --   -0.54271  -0.53666  -0.52978  -0.52735  -0.52536
 Alpha  occ. eigenvalues --   -0.52385  -0.52243  -0.51932  -0.51410  -0.51184
 Alpha  occ. eigenvalues --   -0.50840  -0.50433  -0.49672  -0.49262  -0.49169
 Alpha  occ. eigenvalues --   -0.48832  -0.48604  -0.48462  -0.48129  -0.47971
 Alpha  occ. eigenvalues --   -0.47383  -0.46746  -0.46363  -0.45980  -0.45732
 Alpha  occ. eigenvalues --   -0.45695  -0.45482  -0.45125  -0.44937  -0.44784
 Alpha  occ. eigenvalues --   -0.44436  -0.44393  -0.43287  -0.43149  -0.42916
 Alpha  occ. eigenvalues --   -0.42577  -0.42069  -0.41747  -0.41490  -0.40835
 Alpha  occ. eigenvalues --   -0.40706  -0.40508  -0.40355  -0.39962  -0.39270
 Alpha  occ. eigenvalues --   -0.38808  -0.38702  -0.38170  -0.37914  -0.37432
 Alpha  occ. eigenvalues --   -0.36393  -0.35639  -0.35591  -0.34023  -0.33968
 Alpha  occ. eigenvalues --   -0.31989  -0.31542  -0.31146  -0.30588  -0.30157
 Alpha  occ. eigenvalues --   -0.29027  -0.28052  -0.27497  -0.22337  -0.22232
 Alpha  occ. eigenvalues --   -0.20540
 Alpha virt. eigenvalues --   -0.13131  -0.12275  -0.10162  -0.07715  -0.07161
 Alpha virt. eigenvalues --   -0.06757  -0.06294  -0.06053  -0.05734  -0.04781
 Alpha virt. eigenvalues --   -0.04417  -0.04145  -0.01707  -0.01175  -0.00577

 Mulliken charges:
               1
     1  N   -0.780721
     2  H    0.408195
     3  H    0.404687
     4  H    0.445531
     5  C   -0.098045
     6  H    0.213914
     7  C    0.643876
     8  C   -0.115036
     9  H    0.153185
    10  O   -0.570403
    11  C   -0.300180
    12  H    0.196239
    13  H    0.166146
    14  C   -0.478327
    15  H    0.187938
    16  H    0.187286
    17  H    0.143162
    18  C   -0.466805
    19  H    0.186508
    20  H    0.141913
    21  H    0.154341
    22  N   -0.594941
    23  H    0.392420
    24  C   -0.079802
    25  H    0.200433
    26  C    0.636611
    27  C   -0.341773
    28  H    0.161990
    29  H    0.176392
    30  O   -0.579621
    31  C    0.142048
    32  C   -0.179796
    33  H    0.131008
    34  C   -0.202915
    35  H    0.131654
    36  C   -0.127739
    37  H    0.124644
    38  C   -0.113889
    39  H    0.151830
    40  C   -0.119116
    41  H    0.165327
    42  N   -0.614430
    43  H    0.392674
    44  C   -0.043134
    45  H    0.172881
    46  C    0.616223
    47  C   -0.075321
    48  H    0.152493
    49  O   -0.560087
    50  C   -0.488184
    51  H    0.133967
    52  H    0.133945
    53  H    0.201837
    54  C   -0.458877
    55  H    0.168593
    56  H    0.131247
    57  H    0.142335
    58  N   -0.598269
    59  H    0.356674
    60  C   -0.080573
    61  H    0.190931
    62  C    0.612841
    63  C   -0.268711
    64  H    0.141391
    65  H    0.220227
    66  O   -0.611992
    67  C   -0.396494
    68  H    0.133000
    69  H    0.224843
    70  C    0.585568
    71  N   -0.758089
    72  H    0.338351
    73  H    0.346265
    74  O   -0.488935
    75  N   -0.622716
    76  H    0.397708
    77  C   -0.061959
    78  H    0.141884
    79  C    0.597310
    80  C   -0.267773
    81  H    0.181336
    82  H    0.127167
    83  O   -0.578457
    84  C   -0.294499
    85  H    0.134228
    86  H    0.204420
    87  C   -0.291974
    88  H    0.163914
    89  H    0.158798
    90  C   -0.202723
    91  H    0.225285
    92  H    0.225230
    93  N   -0.740339
    94  H    0.420617
    95  H    0.424816
    96  H    0.420692
    97  O   -0.614326
 Sum of Mulliken charges =   1.00000

 Dipole moment (field-independent basis, Debye):
    X=            -27.5187    Y=            -23.4298    Z=             10.8907  Tot=             37.7471
 Quadrupole moment (field-independent basis, Debye-Ang):
   XX=           -278.6228   YY=           -149.9932   ZZ=            -19.5151
   XY=             23.2076   XZ=            184.9009   YZ=            -49.0990

 Normal termination of Gaussian 16 at Fri Jul  8 17:32:18 2022.
