 Gaussian 16, Revision C.01,
 Gaussian 16:  ES64L-G16RevC.01  3-Jul-2019

 ----------------------------------------------------------------------
 # B3LYP/6-31G** empiricaldispersion=gd3bj guess=read geom=check nosymm
  integral(ultrafinegrid)
 ----------------------------------------------------------------------

 ------------------------------------------------------
 Candidate Structure: Conf:112 Charge calc in gas phase
 ------------------------------------------------------
 Structure from the checkpoint file:  "conf-112.chk"
 Charge =  1 Multiplicity = 1

                          Input orientation:
 ---------------------------------------------------------------------
 Center     Atomic      Atomic             Coordinates (Angstroms)
 Number     Number       Type             X           Y           Z
 ---------------------------------------------------------------------
      1          7           0       -2.963702   -0.913306    4.154987
      2          1           0       -3.478769   -1.694472    3.756239
      3          1           0       -1.985307   -1.198832    4.184219
      4          6           0       -3.048419    0.222362    3.260853
      5          1           0       -4.079428    0.602694    3.264352
      6          6           0       -2.681536   -0.108989    1.800652
      7          6           0       -2.128946    1.364414    3.766992
      8          1           0       -2.418201    2.322995    3.325527
      9          1           0       -2.275570    1.434760    4.849402
     10          8           0       -2.190718   -1.189733    1.466912
     11          6           0       -0.658340    1.058534    3.495041
     12          7           0        0.095239    2.062839    2.992655
     13          1           0        1.094715    1.899022    2.834823
     14          1           0       -0.275601    2.993760    2.895068
     15          8           0       -0.202977   -0.071821    3.689140
     16          7           0       -2.873567    0.892578    0.899229
     17          1           0       -3.417129    1.700216    1.169300
     18          6           0       -2.619465    0.694319   -0.526261
     19          1           0       -2.839292   -0.356835   -0.744542
     20          6           0       -1.123980    0.942825   -0.793921
     21          6           0       -3.504356    1.616080   -1.375300
     22          1           0       -3.144251    2.643103   -1.269190
     23          1           0       -3.355572    1.347429   -2.425836
     24          8           0       -0.729046    1.923697   -1.441267
     25          6           0       -4.960173    1.515314   -0.986789
     26          6           0       -5.697609    0.357008   -1.262308
     27          1           0       -5.229496   -0.461048   -1.803872
     28          6           0       -5.582217    2.557144   -0.289805
     29          1           0       -5.026705    3.469849   -0.086226
     30          6           0       -7.022605    0.242304   -0.848032
     31          1           0       -7.581552   -0.661236   -1.070568
     32          6           0       -6.909908    2.445825    0.128158
     33          1           0       -7.378301    3.265362    0.664192
     34          6           0       -7.632200    1.286419   -0.148576
     35          1           0       -8.664435    1.196453    0.173931
     36          7           0       -0.291173    0.033795   -0.240483
     37          1           0       -0.729704   -0.686170    0.339441
     38          6           0        1.126698    0.331807   -0.021606
     39          1           0        1.202890    1.403292    0.200726
     40          6           0        1.975679    0.079709   -1.281627
     41          6           0        1.681872   -0.464930    1.159070
     42          1           0        1.911214   -1.485475    0.847134
     43          1           0        0.949833   -0.494845    1.972682
     44          8           0        2.958753   -0.662801   -1.305791
     45          6           0        2.908416    0.242991    1.716580
     46          7           0        4.088901   -0.400267    1.557719
     47          1           0        4.924691    0.084434    1.851549
     48          1           0        4.163585   -1.101918    0.836081
     49          8           0        2.819630    1.334712    2.284036
     50          7           0        1.585062    0.776061   -2.376780
     51          1           0        0.795878    1.423889   -2.278686
     52          6           0        2.325862    0.623177   -3.599237
     53          1           0        2.372568   -0.438699   -3.869494
     54          6           0        3.786729    1.034776   -3.438631
     55          6           0        1.630395    1.399178   -4.739769
     56          1           0        0.562940    1.184004   -4.639855
     57          1           0        1.741560    2.478550   -4.581224
     58          8           0        4.693434    0.619618   -4.154391
     59          6           0        2.084063    0.991777   -6.152683
     60          1           0        2.326133   -0.076818   -6.157524
     61          1           0        1.250019    1.117704   -6.850399
     62          6           0        3.285130    1.785092   -6.693537
     63          1           0        2.984401    2.793138   -6.987157
     64          1           0        4.073121    1.895665   -5.949490
     65          7           0        3.878187    1.155838   -7.881901
     66          1           0        3.455345    1.362948   -8.775593
     67          7           0        5.124425   -0.407261   -6.686718
     68          1           0        5.875625   -1.080582   -6.685092
     69          1           0        4.819463   -0.064482   -5.763381
     70          7           0        5.152707   -0.413878   -9.002642
     71          1           0        5.756403   -1.220578   -9.012430
     72          1           0        5.018811    0.070090   -9.876278
     73          6           0        4.719740    0.113901   -7.840964
     74          8           0        3.995744    1.949378   -2.500007
     75          1           0        4.950725    2.133693   -2.469767
 ---------------------------------------------------------------------

 SCF Done:  E(RB3LYP) =  -1917.63378324     A.U. after    1 cycles

 Alpha  occ. eigenvalues --  -19.31539 -19.26727 -19.20667 -19.20510 -19.18800
 Alpha  occ. eigenvalues --  -19.18270 -19.16685 -14.53191 -14.53119 -14.51661
 Alpha  occ. eigenvalues --  -14.43994 -14.43393 -14.43368 -14.41903 -14.40342
 Alpha  occ. eigenvalues --  -14.35059 -10.49223 -10.44452 -10.36989 -10.36773
 Alpha  occ. eigenvalues --  -10.36685 -10.35607 -10.35090 -10.34834 -10.34411
 Alpha  occ. eigenvalues --  -10.32007 -10.31579 -10.31281 -10.30991 -10.28478
 Alpha  occ. eigenvalues --  -10.26316 -10.26067 -10.25764 -10.25352 -10.25145
 Alpha  occ. eigenvalues --  -10.25011 -10.25000 -10.24945 -10.24741  -1.23135
 Alpha  occ. eigenvalues --   -1.17739  -1.13771  -1.12676  -1.11800  -1.10531
 Alpha  occ. eigenvalues --   -1.09769  -1.08370  -1.07183  -1.05435  -1.01881
 Alpha  occ. eigenvalues --   -1.00493  -0.99594  -0.96871  -0.95283  -0.93535
 Alpha  occ. eigenvalues --   -0.92790  -0.91752  -0.87854  -0.86223  -0.84985
 Alpha  occ. eigenvalues --   -0.82060  -0.81621  -0.80474  -0.79689  -0.79226
 Alpha  occ. eigenvalues --   -0.75831  -0.75148  -0.74657  -0.73058  -0.71868
 Alpha  occ. eigenvalues --   -0.71320  -0.70644  -0.67684  -0.66801  -0.66497
 Alpha  occ. eigenvalues --   -0.65716  -0.65549  -0.65355  -0.64575  -0.63900
 Alpha  occ. eigenvalues --   -0.63186  -0.62824  -0.61818  -0.60627  -0.60428
 Alpha  occ. eigenvalues --   -0.60113  -0.59570  -0.59261  -0.58855  -0.58361
 Alpha  occ. eigenvalues --   -0.57545  -0.57325  -0.56687  -0.56342  -0.55749
 Alpha  occ. eigenvalues --   -0.55335  -0.54293  -0.53759  -0.52423  -0.52248
 Alpha  occ. eigenvalues --   -0.51834  -0.51688  -0.51512  -0.51209  -0.50578
 Alpha  occ. eigenvalues --   -0.50029  -0.49818  -0.49426  -0.48420  -0.48003
 Alpha  occ. eigenvalues --   -0.47830  -0.47738  -0.47256  -0.46983  -0.46476
 Alpha  occ. eigenvalues --   -0.46114  -0.46079  -0.45888  -0.45450  -0.44842
 Alpha  occ. eigenvalues --   -0.43821  -0.43776  -0.43649  -0.43285  -0.43102
 Alpha  occ. eigenvalues --   -0.42786  -0.41985  -0.41713  -0.41655  -0.40776
 Alpha  occ. eigenvalues --   -0.40557  -0.40010  -0.39863  -0.36419  -0.35559
 Alpha  occ. eigenvalues --   -0.34641  -0.33473  -0.33210  -0.32427  -0.32308
 Alpha  occ. eigenvalues --   -0.32130  -0.31610  -0.31127  -0.30586  -0.30427
 Alpha  occ. eigenvalues --   -0.28189
 Alpha virt. eigenvalues --   -0.12882  -0.11629  -0.09508  -0.07122  -0.06904
 Alpha virt. eigenvalues --   -0.06520  -0.06150  -0.05450  -0.04524  -0.04481
 Alpha virt. eigenvalues --   -0.03762  -0.03398  -0.02953  -0.01839  -0.00671

 Mulliken charges:
               1
     1  N   -0.581588
     2  H    0.244400
     3  H    0.278073
     4  C   -0.033496
     5  H    0.118197
     6  C    0.584913
     7  C   -0.247400
     8  H    0.084223
     9  H    0.168581
    10  O   -0.542094
    11  C    0.575846
    12  N   -0.630428
    13  H    0.325508
    14  H    0.264936
    15  O   -0.522452
    16  N   -0.515383
    17  H    0.269552
    18  C   -0.010916
    19  H    0.146008
    20  C    0.625760
    21  C   -0.269032
    22  H    0.128143
    23  H    0.120637
    24  O   -0.568016
    25  C    0.115161
    26  C   -0.114162
    27  H    0.082959
    28  C   -0.148248
    29  H    0.082327
    30  C   -0.083471
    31  H    0.100010
    32  C   -0.082553
    33  H    0.099217
    34  C   -0.084628
    35  H    0.101465
    36  N   -0.545135
    37  H    0.317298
    38  C   -0.026834
    39  H    0.156228
    40  C    0.638934
    41  C   -0.301516
    42  H    0.123263
    43  H    0.194665
    44  O   -0.552687
    45  C    0.577875
    46  N   -0.581611
    47  H    0.277879
    48  H    0.291868
    49  O   -0.527308
    50  N   -0.566507
    51  H    0.316444
    52  C    0.042495
    53  H    0.148538
    54  C    0.635050
    55  C   -0.234053
    56  H    0.150710
    57  H    0.133219
    58  O   -0.528786
    59  C   -0.192778
    60  H    0.118372
    61  H    0.128787
    62  C   -0.100976
    63  H    0.153030
    64  H    0.153759
    65  N   -0.526033
    66  H    0.295820
    67  N   -0.629306
    68  H    0.305059
    69  H    0.364166
    70  N   -0.626243
    71  H    0.315952
    72  H    0.314502
    73  C    0.801234
    74  O   -0.439625
    75  H    0.342205
 Sum of Mulliken charges =   1.00000

 Dipole moment (field-independent basis, Debye):
    X=             14.8618    Y=              4.9865    Z=            -32.9948  Tot=             36.5294
 Quadrupole moment (field-independent basis, Debye-Ang):
   XX=            -94.3540   YY=           -207.3327   ZZ=             26.3848
   XY=             -8.1794   XZ=           -145.5914   YZ=              1.8442

 Normal termination of Gaussian 16 at Thu Sep  8 16:02:45 2022.
