 Gaussian 16, Revision C.01,
 Gaussian 16:  ES64L-G16RevC.01  3-Jul-2019

 ----------------------------------------------------------------------
 # B3LYP/6-31G** empiricaldispersion=gd3bj guess=read geom=check nosymm
  integral(ultrafinegrid)
 ----------------------------------------------------------------------

 ------------------------------------------------------
 Candidate Structure: Conf:123 Charge calc in gas phase
 ------------------------------------------------------
 Structure from the checkpoint file:  "conf-123.chk"
 Charge =  1 Multiplicity = 1

                          Input orientation:
 ---------------------------------------------------------------------
 Center     Atomic      Atomic             Coordinates (Angstroms)
 Number     Number       Type             X           Y           Z
 ---------------------------------------------------------------------
      1          7           0       -6.011853    2.422945    2.388179
      2          1           0       -5.984198    3.146166    1.674199
      3          1           0       -6.505281    1.636596    1.965459
      4          6           0       -4.655577    1.979154    2.685515
      5          1           0       -3.998953    2.854299    2.742450
      6          6           0       -4.112458    1.010882    1.627750
      7          6           0       -4.624199    1.331432    4.079552
      8          1           0       -5.433832    0.599603    4.166117
      9          1           0       -3.678433    0.800489    4.236929
     10          8           0       -4.855536    0.391934    0.863819
     11          6           0       -4.705431    2.429677    5.139486
     12          7           0       -5.546947    2.188241    6.181292
     13          1           0       -5.671045    2.926869    6.858295
     14          1           0       -6.247503    1.466532    6.131583
     15          8           0       -4.006122    3.430684    5.065077
     16          7           0       -2.761398    0.880283    1.594368
     17          1           0       -2.162321    1.499171    2.130165
     18          6           0       -2.079793    0.087124    0.600161
     19          1           0       -2.381628   -0.963273    0.681534
     20          6           0       -0.578283    0.224760    0.854141
     21          6           0       -2.395511    0.542722   -0.867880
     22          1           0       -1.674724    0.070288   -1.543235
     23          1           0       -3.391952    0.170892   -1.105117
     24          8           0       -0.119060    1.165232    1.494303
     25          6           0       -2.365480    2.042914   -1.016005
     26          6           0       -3.564068    2.773727   -1.036397
     27          1           0       -4.503992    2.236396   -0.954450
     28          6           0       -1.155041    2.753428   -1.056073
     29          1           0       -0.216396    2.214365   -0.995104
     30          6           0       -3.552726    4.172174   -1.099332
     31          1           0       -4.491024    4.719032   -1.096224
     32          6           0       -1.141244    4.150689   -1.117013
     33          1           0       -0.193049    4.679709   -1.120206
     34          6           0       -2.341533    4.865433   -1.146152
     35          1           0       -2.331367    5.949655   -1.181159
     36          7           0        0.191179   -0.723878    0.246671
     37          1           0       -0.274093   -1.324558   -0.426989
     38          6           0        1.553732   -0.408459   -0.148104
     39          1           0        1.770811    0.607896    0.190298
     40          6           0        1.575625   -0.453891   -1.691663
     41          6           0        2.588501   -1.348877    0.500146
     42          1           0        2.660905   -2.296733   -0.046629
     43          1           0        2.236404   -1.591051    1.507644
     44          8           0        0.618697   -0.931409   -2.314346
     45          6           0        3.972322   -0.708955    0.585988
     46          7           0        4.858304   -1.340328    1.386287
     47          1           0        5.789819   -0.959016    1.462886
     48          1           0        4.616893   -2.152559    1.930770
     49          8           0        4.263803    0.318409   -0.029243
     50          7           0        2.663639    0.070683   -2.286071
     51          1           0        3.455388    0.331760   -1.687701
     52          6           0        2.826003   -0.002489   -3.724428
     53          1           0        2.221467   -0.843352   -4.082645
     54          6           0        4.284478   -0.304156   -4.039044
     55          6           0        2.343122    1.273157   -4.454514
     56          1           0        3.020039    2.105524   -4.226100
     57          1           0        2.410200    1.088292   -5.531294
     58          8           0        5.156142   -0.442962   -3.214497
     59          6           0        0.913993    1.638243   -4.046780
     60          1           0        0.263633    0.762174   -4.113529
     61          1           0        0.918493    1.939976   -2.994803
     62          6           0        0.324666    2.774399   -4.880708
     63          1           0        0.990641    3.645073   -4.895142
     64          1           0        0.181111    2.442759   -5.913059
     65          7           0       -0.977236    3.165859   -4.323044
     66          1           0       -1.038373    3.210434   -3.306187
     67          7           0       -2.106328    3.531774   -6.325865
     68          1           0       -2.964580    3.477284   -6.850727
     69          1           0       -1.251800    3.688551   -6.833921
     70          7           0       -3.271169    3.424803   -4.331439
     71          1           0       -4.070925    3.875031   -4.748578
     72          1           0       -3.315468    3.235052   -3.333466
     73          6           0       -2.104962    3.377469   -4.990519
     74          8           0        4.483838   -0.394415   -5.370132
     75          1           0        5.427405   -0.590719   -5.502421
 ---------------------------------------------------------------------

 SCF Done:  E(RB3LYP) =  -1917.62657477     A.U. after    2 cycles

 Alpha  occ. eigenvalues --  -19.28680 -19.23009 -19.21497 -19.21125 -19.20746
 Alpha  occ. eigenvalues --  -19.18669 -19.15893 -14.52647 -14.51902 -14.51515
 Alpha  occ. eigenvalues --  -14.44628 -14.44550 -14.44512 -14.43048 -14.40589
 Alpha  occ. eigenvalues --  -14.37199 -10.48493 -10.41093 -10.38378 -10.38197
 Alpha  occ. eigenvalues --  -10.37786 -10.36364 -10.35149 -10.33786 -10.33386
 Alpha  occ. eigenvalues --  -10.32589 -10.32311 -10.30629 -10.30224 -10.30220
 Alpha  occ. eigenvalues --  -10.30151 -10.29925 -10.29889 -10.29815 -10.29547
 Alpha  occ. eigenvalues --  -10.29220 -10.28271 -10.28252 -10.25285  -1.19665
 Alpha  occ. eigenvalues --   -1.17079  -1.13696  -1.12785  -1.12391  -1.10768
 Alpha  occ. eigenvalues --   -1.10415  -1.07842  -1.06386  -1.05090  -1.02083
 Alpha  occ. eigenvalues --   -1.01530  -1.00043  -0.99404  -0.96564  -0.95266
 Alpha  occ. eigenvalues --   -0.94730  -0.91936  -0.89044  -0.87876  -0.86123
 Alpha  occ. eigenvalues --   -0.85540  -0.83506  -0.81261  -0.81055  -0.78344
 Alpha  occ. eigenvalues --   -0.77548  -0.75503  -0.74568  -0.71945  -0.71778
 Alpha  occ. eigenvalues --   -0.71275  -0.70413  -0.70205  -0.68770  -0.67996
 Alpha  occ. eigenvalues --   -0.67402  -0.66208  -0.65818  -0.65094  -0.64827
 Alpha  occ. eigenvalues --   -0.63623  -0.62891  -0.62336  -0.61736  -0.61475
 Alpha  occ. eigenvalues --   -0.60355  -0.59422  -0.58808  -0.58512  -0.57981
 Alpha  occ. eigenvalues --   -0.57252  -0.56871  -0.56724  -0.56451  -0.56023
 Alpha  occ. eigenvalues --   -0.55860  -0.55614  -0.54889  -0.54169  -0.53666
 Alpha  occ. eigenvalues --   -0.52978  -0.52823  -0.52307  -0.52184  -0.51733
 Alpha  occ. eigenvalues --   -0.51421  -0.51166  -0.50417  -0.50186  -0.49964
 Alpha  occ. eigenvalues --   -0.49134  -0.48470  -0.47834  -0.47580  -0.47359
 Alpha  occ. eigenvalues --   -0.47240  -0.46664  -0.46476  -0.46402  -0.45885
 Alpha  occ. eigenvalues --   -0.45555  -0.45286  -0.44598  -0.44431  -0.44226
 Alpha  occ. eigenvalues --   -0.43654  -0.43494  -0.42854  -0.41281  -0.41035
 Alpha  occ. eigenvalues --   -0.40807  -0.40409  -0.36927  -0.36692  -0.35976
 Alpha  occ. eigenvalues --   -0.35772  -0.35565  -0.35408  -0.34944  -0.34852
 Alpha  occ. eigenvalues --   -0.34104  -0.32920  -0.32652  -0.31682  -0.30128
 Alpha  occ. eigenvalues --   -0.29786
 Alpha virt. eigenvalues --   -0.12500  -0.11903  -0.11635  -0.08138  -0.07966
 Alpha virt. eigenvalues --   -0.07552  -0.07264  -0.06390  -0.04912  -0.04617
 Alpha virt. eigenvalues --   -0.02815  -0.01996  -0.01742  -0.01044  -0.00351

 Mulliken charges:
               1
     1  N   -0.579069
     2  H    0.235255
     3  H    0.252854
     4  C   -0.052016
     5  H    0.137577
     6  C    0.578394
     7  C   -0.233874
     8  H    0.105004
     9  H    0.132828
    10  O   -0.549397
    11  C    0.598314
    12  N   -0.605727
    13  H    0.282993
    14  H    0.273956
    15  O   -0.512602
    16  N   -0.542893
    17  H    0.292856
    18  C    0.035861
    19  H    0.143203
    20  C    0.572161
    21  C   -0.284547
    22  H    0.131315
    23  H    0.152607
    24  O   -0.520516
    25  C    0.128708
    26  C   -0.179352
    27  H    0.135194
    28  C   -0.161110
    29  H    0.116807
    30  C   -0.115053
    31  H    0.115720
    32  C   -0.113214
    33  H    0.118294
    34  C   -0.078639
    35  H    0.118530
    36  N   -0.513789
    37  H    0.281529
    38  C   -0.043211
    39  H    0.170293
    40  C    0.586371
    41  C   -0.277065
    42  H    0.150167
    43  H    0.154932
    44  O   -0.553589
    45  C    0.612742
    46  N   -0.599791
    47  H    0.299139
    48  H    0.287481
    49  O   -0.526263
    50  N   -0.532740
    51  H    0.329325
    52  C   -0.012603
    53  H    0.167725
    54  C    0.579715
    55  C   -0.182443
    56  H    0.117900
    57  H    0.131240
    58  O   -0.445253
    59  C   -0.210849
    60  H    0.151270
    61  H    0.116210
    62  C   -0.069513
    63  H    0.148077
    64  H    0.127020
    65  N   -0.533106
    66  H    0.299113
    67  N   -0.616317
    68  H    0.315955
    69  H    0.316332
    70  N   -0.620794
    71  H    0.305765
    72  H    0.315523
    73  C    0.785737
    74  O   -0.482576
    75  H    0.339923
 Sum of Mulliken charges =   1.00000

 Dipole moment (field-independent basis, Debye):
    X=             -3.7792    Y=              8.8836    Z=            -18.4982  Tot=             20.8659
 Quadrupole moment (field-independent basis, Debye-Ang):
   XX=           -154.8763   YY=           -174.1580   ZZ=            -85.6889
   XY=            -45.0406   XZ=             17.7094   YZ=            -85.3898

 Normal termination of Gaussian 16 at Thu Sep  8 16:01:14 2022.
