 Gaussian 16, Revision C.01,
 Gaussian 16:  ES64L-G16RevC.01  3-Jul-2019

 ----------------------------------------------------------------------
 # B3LYP/6-31G** empiricaldispersion=gd3bj guess=read geom=check nosymm
  integral(ultrafinegrid)
 ----------------------------------------------------------------------

 ------------------------------------------------------
 Candidate Structure: Conf:883 Charge calc in gas phase
 ------------------------------------------------------
 Structure from the checkpoint file:  "conf-883.chk"
 Charge =  1 Multiplicity = 1

                          Input orientation:
 ---------------------------------------------------------------------
 Center     Atomic      Atomic             Coordinates (Angstroms)
 Number     Number       Type             X           Y           Z
 ---------------------------------------------------------------------
      1          7           0       -1.699858   -2.291921    3.529722
      2          1           0       -2.329182   -2.886681    2.997084
      3          1           0       -0.754042   -2.589219    3.298123
      4          6           0       -1.869231   -0.914987    3.123647
      5          1           0       -2.836427   -0.550913    3.495917
      6          6           0       -1.849323   -0.712544    1.593528
      7          6           0       -0.772316   -0.037250    3.781648
      8          1           0       -1.055272    1.018965    3.772403
      9          1           0       -0.697525   -0.353696    4.825472
     10          8           0       -1.587429   -1.630572    0.821240
     11          6           0        0.594805   -0.226534    3.143860
     12          7           0        1.145520    0.872081    2.574560
     13          1           0        2.022464    0.762132    2.086619
     14          1           0        0.594745    1.681879    2.337102
     15          8           0        1.173448   -1.321562    3.152291
     16          7           0       -2.091608    0.557186    1.136022
     17          1           0       -2.254061    1.309969    1.788887
     18          6           0       -1.822893    0.883979   -0.260560
     19          1           0       -2.271719    0.088567   -0.859576
     20          6           0       -0.302086    0.866716   -0.463300
     21          6           0       -2.392663    2.240601   -0.673376
     22          1           0       -3.486126    2.194238   -0.615520
     23          1           0       -2.057971    2.998758    0.042019
     24          8           0        0.406685    1.846890   -0.156640
     25          6           0       -1.942522    2.658828   -2.063090
     26          6           0       -1.687561    4.010822   -2.328893
     27          1           0       -1.824689    4.743735   -1.538989
     28          6           0       -1.750483    1.729662   -3.095344
     29          1           0       -1.925700    0.672501   -2.931892
     30          6           0       -1.262264    4.429220   -3.589766
     31          1           0       -1.079856    5.482961   -3.774513
     32          6           0       -1.315307    2.141672   -4.356147
     33          1           0       -1.178892    1.402293   -5.138945
     34          6           0       -1.069841    3.493170   -4.610539
     35          1           0       -0.750441    3.816901   -5.596273
     36          7           0        0.177172   -0.285321   -0.946285
     37          1           0       -0.467578   -1.061178   -1.036137
     38          6           0        1.580912   -0.513582   -1.156013
     39          1           0        2.050534    0.452147   -0.993020
     40          6           0        1.830962   -0.909346   -2.626907
     41          6           0        2.180035   -1.504499   -0.124223
     42          1           0        2.380008   -2.480013   -0.581119
     43          1           0        1.469628   -1.670056    0.688338
     44          8           0        0.898848   -1.087924   -3.404271
     45          6           0        3.497564   -0.958223    0.399706
     46          7           0        3.681673   -1.033893    1.726461
     47          1           0        4.572575   -0.745226    2.107694
     48          1           0        2.939422   -1.369572    2.347549
     49          8           0        4.329085   -0.442676   -0.372034
     50          7           0        3.149662   -0.976531   -2.932398
     51          1           0        3.797484   -0.846788   -2.151056
     52          6           0        3.699428   -1.423229   -4.207899
     53          1           0        3.608555   -2.512207   -4.290711
     54          6           0        5.192423   -1.138634   -4.266188
     55          6           0        3.036614   -0.838011   -5.482867
     56          1           0        3.465100   -1.405486   -6.314510
     57          1           0        1.974561   -1.078629   -5.431710
     58          8           0        5.982003   -1.769937   -4.916724
     59          6           0        3.220833    0.655249   -5.796844
     60          1           0        4.283315    0.919266   -5.871892
     61          1           0        2.814713    0.813562   -6.800665
     62          6           0        2.512876    1.655895   -4.877231
     63          1           0        2.367480    2.600861   -5.413179
     64          1           0        1.528515    1.270512   -4.590982
     65          7           0        3.292626    1.915763   -3.660507
     66          1           0        4.224430    1.515911   -3.609241
     67          7           0        1.557323    2.928755   -2.487691
     68          1           0        1.023563    2.865863   -1.619904
     69          1           0        1.021137    3.075296   -3.333015
     70          7           0        3.484984    2.276973   -1.382068
     71          1           0        3.032392    2.615403   -0.544953
     72          1           0        4.102354    1.480276   -1.241426
     73          6           0        2.765026    2.363393   -2.525139
     74          8           0        5.556455   -0.026488   -3.549269
     75          1           0        6.520371    0.062661   -3.655268
 ---------------------------------------------------------------------

 SCF Done:  E(RB3LYP) =  -1917.66763131     A.U. after    2 cycles

 Alpha  occ. eigenvalues --  -19.32019 -19.25378 -19.24448 -19.24340 -19.23324
 Alpha  occ. eigenvalues --  -19.22734 -19.22658 -14.49736 -14.49163 -14.48620
 Alpha  occ. eigenvalues --  -14.48163 -14.47610 -14.47249 -14.46970 -14.46496
 Alpha  occ. eigenvalues --  -14.39159 -10.45555 -10.43464 -10.41565 -10.41012
 Alpha  occ. eigenvalues --  -10.40620 -10.39840 -10.39096 -10.35168 -10.34948
 Alpha  occ. eigenvalues --  -10.34928 -10.34636 -10.32705 -10.31314 -10.30688
 Alpha  occ. eigenvalues --  -10.30630 -10.30525 -10.30398 -10.29566 -10.29474
 Alpha  occ. eigenvalues --  -10.29451 -10.29361 -10.29301 -10.29274  -1.22211
 Alpha  occ. eigenvalues --   -1.16237  -1.15575  -1.14827  -1.14585  -1.14401
 Alpha  occ. eigenvalues --   -1.14283  -1.13304  -1.05124  -1.04262  -1.03785
 Alpha  occ. eigenvalues --   -1.03615  -1.02369  -1.02141  -1.01850  -0.97720
 Alpha  occ. eigenvalues --   -0.96278  -0.92087  -0.90817  -0.89477  -0.86649
 Alpha  occ. eigenvalues --   -0.86309  -0.84866  -0.83991  -0.81037  -0.80125
 Alpha  occ. eigenvalues --   -0.77358  -0.76232  -0.75184  -0.74453  -0.72065
 Alpha  occ. eigenvalues --   -0.71355  -0.70941  -0.70674  -0.70311  -0.69839
 Alpha  occ. eigenvalues --   -0.69228  -0.68127  -0.67691  -0.67079  -0.66006
 Alpha  occ. eigenvalues --   -0.65685  -0.64406  -0.63653  -0.63044  -0.62716
 Alpha  occ. eigenvalues --   -0.61634  -0.61077  -0.60778  -0.60686  -0.60221
 Alpha  occ. eigenvalues --   -0.59827  -0.59618  -0.58675  -0.58087  -0.57585
 Alpha  occ. eigenvalues --   -0.57390  -0.57084  -0.55838  -0.55590  -0.55568
 Alpha  occ. eigenvalues --   -0.55058  -0.54779  -0.54268  -0.54022  -0.53443
 Alpha  occ. eigenvalues --   -0.52857  -0.52651  -0.52227  -0.51931  -0.51840
 Alpha  occ. eigenvalues --   -0.51663  -0.51214  -0.50634  -0.50539  -0.50057
 Alpha  occ. eigenvalues --   -0.49494  -0.48995  -0.48716  -0.48284  -0.48041
 Alpha  occ. eigenvalues --   -0.47898  -0.47526  -0.46466  -0.45964  -0.45948
 Alpha  occ. eigenvalues --   -0.45085  -0.44828  -0.44533  -0.43967  -0.43467
 Alpha  occ. eigenvalues --   -0.41171  -0.40118  -0.39663  -0.39163  -0.39042
 Alpha  occ. eigenvalues --   -0.38821  -0.38319  -0.38107  -0.36957  -0.36489
 Alpha  occ. eigenvalues --   -0.36098  -0.35918  -0.35724  -0.35300  -0.35096
 Alpha  occ. eigenvalues --   -0.32226
 Alpha virt. eigenvalues --   -0.11970  -0.11375  -0.10963  -0.10725  -0.10189
 Alpha virt. eigenvalues --   -0.09780  -0.09369  -0.08394  -0.08277  -0.05653
 Alpha virt. eigenvalues --   -0.04607  -0.03880  -0.02349  -0.01166  -0.00512

 Mulliken charges:
               1
     1  N   -0.571475
     2  H    0.257212
     3  H    0.268603
     4  C   -0.038592
     5  H    0.136419
     6  C    0.581530
     7  C   -0.251970
     8  H    0.096484
     9  H    0.186029
    10  O   -0.529685
    11  C    0.580448
    12  N   -0.584539
    13  H    0.273412
    14  H    0.283648
    15  O   -0.536451
    16  N   -0.535396
    17  H    0.266960
    18  C   -0.001731
    19  H    0.143273
    20  C    0.627374
    21  C   -0.245320
    22  H    0.151310
    23  H    0.115983
    24  O   -0.624330
    25  C    0.097283
    26  C   -0.131934
    27  H    0.101932
    28  C   -0.112451
    29  H    0.108196
    30  C   -0.088806
    31  H    0.115830
    32  C   -0.102271
    33  H    0.115789
    34  C   -0.131821
    35  H    0.110305
    36  N   -0.464204
    37  H    0.304147
    38  C   -0.036239
    39  H    0.129230
    40  C    0.601210
    41  C   -0.288701
    42  H    0.166910
    43  H    0.168078
    44  O   -0.529570
    45  C    0.571796
    46  N   -0.606168
    47  H    0.293745
    48  H    0.329027
    49  O   -0.559395
    50  N   -0.582453
    51  H    0.310541
    52  C    0.035780
    53  H    0.167833
    54  C    0.566085
    55  C   -0.205205
    56  H    0.142846
    57  H    0.164284
    58  O   -0.424477
    59  C   -0.242115
    60  H    0.119104
    61  H    0.141188
    62  C   -0.063267
    63  H    0.137516
    64  H    0.150482
    65  N   -0.514247
    66  H    0.309246
    67  N   -0.619008
    68  H    0.331497
    69  H    0.305284
    70  N   -0.614035
    71  H    0.296876
    72  H    0.320911
    73  C    0.718503
    74  O   -0.511136
    75  H    0.346852
 Sum of Mulliken charges =   1.00000

 Dipole moment (field-independent basis, Debye):
    X=              7.2531    Y=              8.6634    Z=             -6.2469  Tot=             12.9106
 Quadrupole moment (field-independent basis, Debye-Ang):
   XX=           -175.1105   YY=           -203.6051   ZZ=           -171.4939
   XY=              3.7337   XZ=            -21.5008   YZ=            -14.5630

 Normal termination of Gaussian 16 at Thu Sep  8 16:03:29 2022.
