 Gaussian 16, Revision C.01,
 Gaussian 16:  ES64L-G16RevC.01  3-Jul-2019

 ----------------------------------------------------------------------
 # B3LYP/6-31G** empiricaldispersion=gd3bj guess=read geom=check nosymm
  integral(ultrafinegrid)
 ----------------------------------------------------------------------

 ------------------------------------------------------
 Candidate Structure: Conf:962 Charge calc in gas phase
 ------------------------------------------------------
 Structure from the checkpoint file:  "conf-962.chk"
 Charge =  1 Multiplicity = 1

                          Input orientation:
 ---------------------------------------------------------------------
 Center     Atomic      Atomic             Coordinates (Angstroms)
 Number     Number       Type             X           Y           Z
 ---------------------------------------------------------------------
      1          7           0       -4.356562    1.900545    3.008414
      2          1           0       -5.123903    1.233503    3.023470
      3          1           0       -4.419674    2.460924    3.852433
      4          6           0       -3.068880    1.224791    2.924207
      5          1           0       -2.288214    1.980210    3.081516
      6          6           0       -2.811203    0.727972    1.502926
      7          6           0       -2.793858    0.094071    3.928919
      8          1           0       -3.016068    0.459150    4.938040
      9          1           0       -3.439730   -0.768065    3.734461
     10          8           0       -2.112484   -0.265504    1.280541
     11          6           0       -1.323338   -0.297147    3.907042
     12          7           0       -1.043233   -1.615084    4.036396
     13          1           0       -0.078029   -1.901747    3.965353
     14          1           0       -1.754244   -2.310145    3.874968
     15          8           0       -0.442901    0.566211    3.853729
     16          7           0       -3.316880    1.500961    0.512964
     17          1           0       -3.751022    2.371562    0.802803
     18          6           0       -2.689451    1.429426   -0.794746
     19          1           0       -2.846647    0.423918   -1.199353
     20          6           0       -1.176944    1.644296   -0.596543
     21          6           0       -3.321714    2.449107   -1.771705
     22          1           0       -2.709595    2.459041   -2.679885
     23          1           0       -4.305718    2.062566   -2.054606
     24          8           0       -0.734803    2.538498    0.114044
     25          6           0       -3.475270    3.846831   -1.216808
     26          6           0       -4.690812    4.237607   -0.640522
     27          1           0       -5.525594    3.541241   -0.630301
     28          6           0       -2.416691    4.762664   -1.238372
     29          1           0       -1.464515    4.470883   -1.668173
     30          6           0       -4.845351    5.511029   -0.090890
     31          1           0       -5.795214    5.797150    0.349565
     32          6           0       -2.569813    6.035974   -0.695679
     33          1           0       -1.739611    6.734885   -0.720050
     34          6           0       -3.783622    6.413542   -0.118105
     35          1           0       -3.900701    7.406566    0.304009
     36          7           0       -0.359955    0.759234   -1.238616
     37          1           0       -0.756012   -0.075275   -1.646857
     38          6           0        1.021382    0.676224   -0.811897
     39          1           0        1.413163    1.696680   -0.769590
     40          6           0        1.818319   -0.106156   -1.857620
     41          6           0        1.145273    0.065353    0.615783
     42          1           0        1.247965   -1.024659    0.552027
     43          1           0        0.220094    0.263801    1.156714
     44          8           0        1.244963   -0.595187   -2.853153
     45          6           0        2.335211    0.612085    1.390835
     46          7           0        2.160270    0.740819    2.711742
     47          1           0        2.930131    1.124837    3.241266
     48          1           0        1.244452    0.643483    3.159998
     49          8           0        3.409863    0.895406    0.828608
     50          7           0        3.128121   -0.208922   -1.587942
     51          1           0        3.446477    0.224967   -0.689813
     52          6           0        4.053848   -0.919844   -2.439712
     53          1           0        3.463465   -1.477169   -3.161375
     54          6           0        4.875671   -1.977282   -1.718597
     55          6           0        4.987865    0.068516   -3.187357
     56          1           0        4.334389    0.825585   -3.634206
     57          1           0        5.593348    0.599615   -2.445546
     58          8           0        5.447091   -2.864542   -2.318859
     59          6           0        5.917673   -0.531979   -4.251995
     60          1           0        6.497599    0.284573   -4.698463
     61          1           0        6.637842   -1.212781   -3.790174
     62          6           0        5.214353   -1.322431   -5.364703
     63          1           0        5.932114   -1.642315   -6.122523
     64          1           0        4.766792   -2.226324   -4.951203
     65          7           0        4.168828   -0.529006   -6.044044
     66          1           0        4.498065    0.270610   -6.570569
     67          7           0        2.254795   -1.562832   -5.171602
     68          1           0        1.670466   -1.397305   -4.331354
     69          1           0        2.706862   -2.460422   -5.263755
     70          7           0        2.192711    0.656891   -5.746436
     71          1           0        1.208335    0.648286   -5.520484
     72          1           0        2.659980    1.549896   -5.776637
     73          6           0        2.888938   -0.485071   -5.645087
     74          8           0        4.933070   -1.803461   -0.392360
     75          1           0        5.506829   -2.500717   -0.029203
 ---------------------------------------------------------------------

 SCF Done:  E(RB3LYP) =  -1917.64044005     A.U. after    1 cycles

 Alpha  occ. eigenvalues --  -19.30130 -19.24348 -19.23337 -19.19733 -19.19509
 Alpha  occ. eigenvalues --  -19.18988 -19.18785 -14.52069 -14.52053 -14.49703
 Alpha  occ. eigenvalues --  -14.45342 -14.43581 -14.43474 -14.42226 -14.42057
 Alpha  occ. eigenvalues --  -14.39790 -10.47665 -10.42550 -10.39651 -10.37173
 Alpha  occ. eigenvalues --  -10.36887 -10.35802 -10.35749 -10.35356 -10.34725
 Alpha  occ. eigenvalues --  -10.32336 -10.31015 -10.30857 -10.30719 -10.29693
 Alpha  occ. eigenvalues --  -10.27425 -10.27004 -10.26942 -10.25710 -10.24727
 Alpha  occ. eigenvalues --  -10.24564 -10.24531 -10.24468 -10.24399  -1.21163
 Alpha  occ. eigenvalues --   -1.16491  -1.14391  -1.12072  -1.11665  -1.11128
 Alpha  occ. eigenvalues --   -1.11044  -1.10104  -1.05991  -1.04035  -1.03146
 Alpha  occ. eigenvalues --   -1.00355  -0.99690  -0.98349  -0.97415  -0.96568
 Alpha  occ. eigenvalues --   -0.92195  -0.91380  -0.87940  -0.85951  -0.84652
 Alpha  occ. eigenvalues --   -0.83609  -0.81473  -0.80125  -0.79958  -0.77667
 Alpha  occ. eigenvalues --   -0.76661  -0.74351  -0.73994  -0.73409  -0.71803
 Alpha  occ. eigenvalues --   -0.70755  -0.69012  -0.68528  -0.67010  -0.66571
 Alpha  occ. eigenvalues --   -0.66110  -0.65833  -0.65488  -0.64488  -0.64308
 Alpha  occ. eigenvalues --   -0.64204  -0.63576  -0.61489  -0.61160  -0.60810
 Alpha  occ. eigenvalues --   -0.60143  -0.59296  -0.58373  -0.58337  -0.57586
 Alpha  occ. eigenvalues --   -0.57249  -0.56894  -0.56381  -0.56127  -0.55123
 Alpha  occ. eigenvalues --   -0.54670  -0.54514  -0.53678  -0.53524  -0.53398
 Alpha  occ. eigenvalues --   -0.53053  -0.51778  -0.51723  -0.51326  -0.51257
 Alpha  occ. eigenvalues --   -0.50722  -0.50527  -0.49805  -0.49389  -0.48898
 Alpha  occ. eigenvalues --   -0.48568  -0.48144  -0.47599  -0.47534  -0.47413
 Alpha  occ. eigenvalues --   -0.46788  -0.46687  -0.46191  -0.45926  -0.45423
 Alpha  occ. eigenvalues --   -0.45255  -0.44747  -0.44476  -0.43421  -0.43069
 Alpha  occ. eigenvalues --   -0.42579  -0.42019  -0.41823  -0.41225  -0.40957
 Alpha  occ. eigenvalues --   -0.39644  -0.39403  -0.39158  -0.37195  -0.35783
 Alpha  occ. eigenvalues --   -0.35039  -0.34522  -0.34444  -0.34088  -0.33855
 Alpha  occ. eigenvalues --   -0.33184  -0.33014  -0.32099  -0.31024  -0.30606
 Alpha  occ. eigenvalues --   -0.29801
 Alpha virt. eigenvalues --   -0.13667  -0.09805  -0.08396  -0.07681  -0.06705
 Alpha virt. eigenvalues --   -0.05932  -0.05885  -0.05462  -0.05034  -0.04530
 Alpha virt. eigenvalues --   -0.04479  -0.03270  -0.01847  -0.01033   0.00242

 Mulliken charges:
               1
     1  N   -0.614439
     2  H    0.251306
     3  H    0.260245
     4  C   -0.049975
     5  H    0.178104
     6  C    0.628336
     7  C   -0.251845
     8  H    0.138629
     9  H    0.104748
    10  O   -0.563803
    11  C    0.624814
    12  N   -0.596371
    13  H    0.278010
    14  H    0.283781
    15  O   -0.543886
    16  N   -0.511574
    17  H    0.299858
    18  C    0.013003
    19  H    0.109472
    20  C    0.619633
    21  C   -0.268843
    22  H    0.109009
    23  H    0.124797
    24  O   -0.531045
    25  C    0.104391
    26  C   -0.140109
    27  H    0.088293
    28  C   -0.081960
    29  H    0.078575
    30  C   -0.079649
    31  H    0.096324
    32  C   -0.087021
    33  H    0.093386
    34  C   -0.084444
    35  H    0.096977
    36  N   -0.532274
    37  H    0.270268
    38  C   -0.009640
    39  H    0.170867
    40  C    0.585843
    41  C   -0.291736
    42  H    0.131095
    43  H    0.184736
    44  O   -0.605177
    45  C    0.605541
    46  N   -0.622249
    47  H    0.279998
    48  H    0.334253
    49  O   -0.565157
    50  N   -0.532470
    51  H    0.352235
    52  C   -0.013309
    53  H    0.109747
    54  C    0.603384
    55  C   -0.187997
    56  H    0.093894
    57  H    0.146951
    58  O   -0.466297
    59  C   -0.196079
    60  H    0.117310
    61  H    0.158822
    62  C   -0.096933
    63  H    0.158188
    64  H    0.145091
    65  N   -0.501860
    66  H    0.290876
    67  N   -0.601807
    68  H    0.350629
    69  H    0.303638
    70  N   -0.583137
    71  H    0.325096
    72  H    0.306891
    73  C    0.726206
    74  O   -0.463494
    75  H    0.341327
 Sum of Mulliken charges =   1.00000

 Dipole moment (field-independent basis, Debye):
    X=              7.8323    Y=             -1.7193    Z=            -12.8979  Tot=             15.1874
 Quadrupole moment (field-independent basis, Debye-Ang):
   XX=           -134.5814   YY=           -203.5028   ZZ=            -95.0393
   XY=            -12.4302   XZ=            -78.9930   YZ=             -9.0691

 Normal termination of Gaussian 16 at Thu Sep  8 16:02:38 2022.
