 Gaussian 16, Revision C.01,
 Gaussian 16:  ES64L-G16RevC.01  3-Jul-2019

 ----------------------------------------------------------------------
 # B3LYP/6-31G** empiricaldispersion=gd3bj guess=read geom=check nosymm
  integral(ultrafinegrid)
 ----------------------------------------------------------------------

 ------------------------------------------------------
 Candidate Structure: Conf:156 Charge calc in gas phase
 ------------------------------------------------------
 Structure from the checkpoint file:  "conf-156.chk"
 Charge =  1 Multiplicity = 1

                          Input orientation:
 ---------------------------------------------------------------------
 Center     Atomic      Atomic             Coordinates (Angstroms)
 Number     Number       Type             X           Y           Z
 ---------------------------------------------------------------------
      1          7           0       -5.938168    0.321727    3.075495
      2          1           0       -6.580707    0.860153    2.500503
      3          1           0       -5.925533   -0.616154    2.675797
      4          6           0       -4.595248    0.871485    2.965660
      5          1           0       -4.647925    1.964491    3.013851
      6          6           0       -3.882149    0.460581    1.674377
      7          6           0       -3.760576    0.422393    4.181536
      8          1           0       -3.882944   -0.654819    4.332288
      9          1           0       -2.695433    0.620480    4.017111
     10          8           0       -4.192445   -0.551310    1.046121
     11          6           0       -4.179408    1.250900    5.394931
     12          7           0       -4.538663    0.549168    6.505191
     13          1           0       -4.921108    1.080817    7.274473
     14          1           0       -4.803336   -0.420383    6.432375
     15          8           0       -4.140124    2.472483    5.355290
     16          7           0       -2.869289    1.286822    1.279707
     17          1           0       -2.571481    2.039437    1.888785
     18          6           0       -1.958699    0.925800    0.218377
     19          1           0       -2.233561   -0.084401   -0.094682
     20          6           0       -0.512721    0.952275    0.713790
     21          6           0       -2.007853    1.907888   -0.973647
     22          1           0       -1.957345    2.924807   -0.569971
     23          1           0       -1.085367    1.775465   -1.556164
     24          8           0       -0.096272    1.829106    1.455917
     25          6           0       -3.169851    1.784038   -1.938804
     26          6           0       -4.079836    0.716609   -1.925160
     27          1           0       -4.073498   -0.005082   -1.113700
     28          6           0       -3.272302    2.737205   -2.963334
     29          1           0       -2.586264    3.580168   -2.975876
     30          6           0       -5.035340    0.587955   -2.940290
     31          1           0       -5.730581   -0.244946   -2.912510
     32          6           0       -4.233992    2.616941   -3.967255
     33          1           0       -4.309934    3.380410   -4.736440
     34          6           0       -5.110759    1.526200   -3.970222
     35          1           0       -5.861443    1.428057   -4.747649
     36          7           0        0.284099   -0.017059    0.163172
     37          1           0       -0.135571   -0.632947   -0.519566
     38          6           0        1.701235    0.207156   -0.032185
     39          1           0        1.903360    1.249953    0.233744
     40          6           0        1.987181    0.023227   -1.535477
     41          6           0        2.574814   -0.688551    0.878743
     42          1           0        2.731514   -1.675491    0.427284
     43          1           0        2.019012   -0.846523    1.806409
     44          8           0        1.091295   -0.390596   -2.306838
     45          6           0        3.936092   -0.069822    1.180508
     46          7           0        4.496265   -0.425813    2.353190
     47          1           0        5.399012   -0.039638    2.589987
     48          1           0        4.016338   -0.991023    3.034983
     49          8           0        4.501159    0.701758    0.398078
     50          7           0        3.211144    0.333653   -1.955046
     51          1           0        3.900711    0.597438   -1.231647
     52          6           0        3.552694    0.211136   -3.362805
     53          1           0        3.049747   -0.693512   -3.730682
     54          6           0        5.039683   -0.050564   -3.571088
     55          6           0        3.090860    1.425222   -4.204810
     56          1           0        2.241664    1.882236   -3.688133
     57          1           0        3.891026    2.167252   -4.213089
     58          8           0        5.625817    0.256350   -4.582166
     59          6           0        2.694227    1.053639   -5.652720
     60          1           0        3.200446    1.706910   -6.366654
     61          1           0        3.030278    0.039594   -5.892152
     62          6           0        1.189154    1.168766   -5.914035
     63          1           0        0.879507    2.218406   -5.816336
     64          1           0        0.965488    0.841749   -6.936321
     65          7           0        0.434131    0.353844   -4.956487
     66          1           0        0.940767   -0.086437   -4.186987
     67          7           0       -1.675353    1.127469   -5.583073
     68          1           0       -2.628588    1.340212   -5.314520
     69          1           0       -1.305238    1.554071   -6.415968
     70          7           0       -1.410569   -0.186740   -3.692134
     71          1           0       -2.385062   -0.056670   -3.449171
     72          1           0       -0.768833   -0.475124   -2.960657
     73          6           0       -0.881036    0.447285   -4.746225
     74          8           0        5.601006   -0.692107   -2.530903
     75          1           0        6.539059   -0.829108   -2.751268
 ---------------------------------------------------------------------

 SCF Done:  E(RB3LYP) =  -1917.63308719     A.U. after    1 cycles

 Alpha  occ. eigenvalues --  -19.30132 -19.25847 -19.24326 -19.23128 -19.22185
 Alpha  occ. eigenvalues --  -19.20089 -19.16507 -14.50546 -14.49636 -14.49001
 Alpha  occ. eigenvalues --  -14.47588 -14.46713 -14.46511 -14.44623 -14.41104
 Alpha  occ. eigenvalues --  -14.37791 -10.46251 -10.42670 -10.41716 -10.40651
 Alpha  occ. eigenvalues --  -10.39003 -10.36516 -10.35499 -10.35436 -10.35325
 Alpha  occ. eigenvalues --  -10.34387 -10.33270 -10.31400 -10.30565 -10.30482
 Alpha  occ. eigenvalues --  -10.30298 -10.29957 -10.29640 -10.29379 -10.29308
 Alpha  occ. eigenvalues --  -10.29288 -10.29198 -10.28623 -10.26135  -1.21141
 Alpha  occ. eigenvalues --   -1.17012  -1.15108  -1.14744  -1.14199  -1.12166
 Alpha  occ. eigenvalues --   -1.11801  -1.08468  -1.04979  -1.04476  -1.03582
 Alpha  occ. eigenvalues --   -1.03091  -1.01593  -1.01415  -0.96098  -0.95885
 Alpha  occ. eigenvalues --   -0.95394  -0.92197  -0.90253  -0.88819  -0.86813
 Alpha  occ. eigenvalues --   -0.84773  -0.84215  -0.82126  -0.81020  -0.79172
 Alpha  occ. eigenvalues --   -0.77297  -0.76232  -0.73837  -0.72592  -0.72098
 Alpha  occ. eigenvalues --   -0.71137  -0.70739  -0.70376  -0.69479  -0.68770
 Alpha  occ. eigenvalues --   -0.68168  -0.67969  -0.67058  -0.66209  -0.64647
 Alpha  occ. eigenvalues --   -0.63919  -0.63584  -0.63074  -0.62545  -0.61135
 Alpha  occ. eigenvalues --   -0.60477  -0.60201  -0.59882  -0.59229  -0.58973
 Alpha  occ. eigenvalues --   -0.58312  -0.58174  -0.57978  -0.57408  -0.56752
 Alpha  occ. eigenvalues --   -0.56338  -0.55811  -0.55546  -0.55024  -0.54756
 Alpha  occ. eigenvalues --   -0.54507  -0.53972  -0.53310  -0.52822  -0.52520
 Alpha  occ. eigenvalues --   -0.52214  -0.52143  -0.51713  -0.51278  -0.50833
 Alpha  occ. eigenvalues --   -0.50143  -0.49640  -0.49449  -0.49076  -0.48602
 Alpha  occ. eigenvalues --   -0.48263  -0.47730  -0.47252  -0.46769  -0.46621
 Alpha  occ. eigenvalues --   -0.46416  -0.46089  -0.45620  -0.45281  -0.44764
 Alpha  occ. eigenvalues --   -0.44056  -0.43441  -0.42215  -0.42101  -0.41606
 Alpha  occ. eigenvalues --   -0.41246  -0.40214  -0.39225  -0.38752  -0.38077
 Alpha  occ. eigenvalues --   -0.37579  -0.37463  -0.36636  -0.36198  -0.35780
 Alpha  occ. eigenvalues --   -0.34750  -0.34391  -0.33627  -0.32396  -0.30773
 Alpha  occ. eigenvalues --   -0.30347
 Alpha virt. eigenvalues --   -0.11499  -0.10890  -0.10765  -0.10149  -0.09699
 Alpha virt. eigenvalues --   -0.08839  -0.08100  -0.06120  -0.05346  -0.03552
 Alpha virt. eigenvalues --   -0.02497  -0.02252  -0.01870  -0.01284  -0.00959

 Mulliken charges:
               1
     1  N   -0.583592
     2  H    0.250057
     3  H    0.254090
     4  C   -0.047633
     5  H    0.143022
     6  C    0.572305
     7  C   -0.231348
     8  H    0.104496
     9  H    0.126159
    10  O   -0.534679
    11  C    0.589691
    12  N   -0.601053
    13  H    0.284382
    14  H    0.275268
    15  O   -0.508844
    16  N   -0.508201
    17  H    0.288665
    18  C   -0.037917
    19  H    0.127092
    20  C    0.577735
    21  C   -0.229778
    22  H    0.148534
    23  H    0.103470
    24  O   -0.504012
    25  C    0.103429
    26  C   -0.175867
    27  H    0.146588
    28  C   -0.118466
    29  H    0.098071
    30  C   -0.097396
    31  H    0.121513
    32  C   -0.137981
    33  H    0.111772
    34  C   -0.096803
    35  H    0.116619
    36  N   -0.512487
    37  H    0.269820
    38  C   -0.037299
    39  H    0.180795
    40  C    0.614224
    41  C   -0.274442
    42  H    0.157197
    43  H    0.153031
    44  O   -0.607564
    45  C    0.617559
    46  N   -0.594545
    47  H    0.303355
    48  H    0.293551
    49  O   -0.534830
    50  N   -0.530237
    51  H    0.343001
    52  C   -0.006054
    53  H    0.152369
    54  C    0.579716
    55  C   -0.189888
    56  H    0.111633
    57  H    0.150100
    58  O   -0.443309
    59  C   -0.221194
    60  H    0.148437
    61  H    0.136920
    62  C   -0.071553
    63  H    0.130374
    64  H    0.141798
    65  N   -0.549663
    66  H    0.322750
    67  N   -0.620493
    68  H    0.306978
    69  H    0.308122
    70  N   -0.634222
    71  H    0.301426
    72  H    0.320890
    73  C    0.783656
    74  O   -0.474016
    75  H    0.344704
 Sum of Mulliken charges =   1.00000

 Dipole moment (field-independent basis, Debye):
    X=              1.8323    Y=             -0.4961    Z=            -12.3845  Tot=             12.5292
 Quadrupole moment (field-independent basis, Debye-Ang):
   XX=           -161.0147   YY=           -223.0555   ZZ=           -116.5685
   XY=            -10.5948   XZ=             21.5872   YZ=            -43.2176

 Normal termination of Gaussian 16 at Thu Sep  8 16:00:43 2022.
