 Gaussian 16, Revision C.01,
 Gaussian 16:  ES64L-G16RevC.01  3-Jul-2019

 ----------------------------------------------------------------------
 # B3LYP/6-31G** empiricaldispersion=gd3bj guess=read geom=check nosymm
  integral(ultrafinegrid)
 ----------------------------------------------------------------------

 ------------------------------------------------------
 Candidate Structure: Conf:879 Charge calc in gas phase
 ------------------------------------------------------
 Structure from the checkpoint file:  "conf-879.chk"
 Charge =  1 Multiplicity = 1

                          Input orientation:
 ---------------------------------------------------------------------
 Center     Atomic      Atomic             Coordinates (Angstroms)
 Number     Number       Type             X           Y           Z
 ---------------------------------------------------------------------
      1          7           0       -3.740044   -2.596968    0.689643
      2          1           0       -4.751701   -2.547155    0.763391
      3          1           0       -3.518375   -2.686757   -0.300954
      4          6           0       -3.131665   -1.355447    1.180127
      5          1           0       -3.814100   -0.883903    1.893400
      6          6           0       -2.827408   -0.390506    0.030319
      7          6           0       -1.806142   -1.635287    1.943735
      8          1           0       -1.335388   -0.694885    2.236155
      9          1           0       -2.051989   -2.205805    2.843586
     10          8           0       -2.345455   -0.817950   -1.031121
     11          6           0       -0.804182   -2.413349    1.113058
     12          7           0       -1.143774   -3.695170    0.867645
     13          1           0       -0.558671   -4.268042    0.276326
     14          1           0       -2.103875   -3.974221    1.047488
     15          8           0        0.247000   -1.893796    0.700102
     16          7           0       -3.067340    0.907747    0.272781
     17          1           0       -3.566065    1.154833    1.116811
     18          6           0       -2.862813    1.977718   -0.710580
     19          1           0       -3.030663    1.530946   -1.694828
     20          6           0       -1.398619    2.461499   -0.606456
     21          6           0       -3.848472    3.127048   -0.457723
     22          1           0       -3.498916    3.689401    0.412493
     23          1           0       -3.784093    3.810752   -1.309502
     24          8           0       -1.082888    3.487975   -0.011659
     25          6           0       -5.260089    2.631605   -0.255806
     26          6           0       -5.827444    2.612388    1.024002
     27          1           0       -5.273420    3.034071    1.859821
     28          6           0       -6.002453    2.119310   -1.327326
     29          1           0       -5.579358    2.135283   -2.328476
     30          6           0       -7.105669    2.089588    1.232509
     31          1           0       -7.535156    2.093239    2.229515
     32          6           0       -7.278726    1.598770   -1.123791
     33          1           0       -7.845653    1.214338   -1.965983
     34          6           0       -7.832867    1.578898    0.158458
     35          1           0       -8.829429    1.178824    0.315112
     36          7           0       -0.520467    1.614368   -1.183411
     37          1           0       -0.838865    0.738945   -1.591741
     38          6           0        0.917730    1.763959   -1.097833
     39          1           0        1.221616    2.727074   -1.523111
     40          6           0        1.489591    0.616920   -1.948712
     41          6           0        1.395292    1.698326    0.376863
     42          1           0        1.447664    0.653028    0.704404
     43          1           0        0.635324    2.197713    0.979954
     44          8           0        0.721355   -0.217794   -2.448946
     45          6           0        2.739684    2.374120    0.604282
     46          7           0        2.883050    2.998594    1.794204
     47          1           0        3.749133    3.486166    1.973171
     48          1           0        2.105520    3.150321    2.415974
     49          8           0        3.656693    2.348109   -0.222396
     50          7           0        2.822593    0.539107   -2.080009
     51          1           0        3.399171    1.207761   -1.548673
     52          6           0        3.375100   -0.695978   -2.616644
     53          1           0        2.848688   -1.516344   -2.129401
     54          6           0        4.832834   -0.898079   -2.266076
     55          6           0        3.162714   -0.832577   -4.144626
     56          1           0        2.121604   -0.561517   -4.325120
     57          1           0        3.785540   -0.096750   -4.662468
     58          8           0        5.338485   -2.000796   -2.213051
     59          6           0        3.442123   -2.233804   -4.708447
     60          1           0        3.111161   -2.257675   -5.753395
     61          1           0        4.516424   -2.441565   -4.718680
     62          6           0        2.792819   -3.393442   -3.936487
     63          1           0        2.958505   -4.334786   -4.468193
     64          1           0        3.284613   -3.488223   -2.968403
     65          7           0        1.347088   -3.221773   -3.734594
     66          1           0        0.790787   -3.109480   -4.571294
     67          7           0        1.271859   -3.288221   -1.397128
     68          1           0        0.960385   -2.753122   -0.557313
     69          1           0        2.192161   -3.699164   -1.379259
     70          7           0       -0.584962   -2.617423   -2.610221
     71          1           0       -0.990683   -2.266716   -1.744454
     72          1           0       -0.809252   -1.982713   -3.365481
     73          6           0        0.704518   -3.015865   -2.577209
     74          8           0        5.501317    0.248183   -2.076168
     75          1           0        6.424974    0.024416   -1.867698
 ---------------------------------------------------------------------

 SCF Done:  E(RB3LYP) =  -1917.66233611     A.U. after    2 cycles

 Alpha  occ. eigenvalues --  -19.29476 -19.23889 -19.23669 -19.23656 -19.21866
 Alpha  occ. eigenvalues --  -19.21237 -19.20097 -14.50060 -14.47880 -14.47597
 Alpha  occ. eigenvalues --  -14.47429 -14.46507 -14.44983 -14.44690 -14.43965
 Alpha  occ. eigenvalues --  -14.43441 -10.45174 -10.41864 -10.40823 -10.40081
 Alpha  occ. eigenvalues --  -10.38721 -10.38534 -10.37146 -10.34645 -10.34371
 Alpha  occ. eigenvalues --  -10.33485 -10.33066 -10.32888 -10.30571 -10.29338
 Alpha  occ. eigenvalues --  -10.28908 -10.28788 -10.27663 -10.27565 -10.26762
 Alpha  occ. eigenvalues --  -10.26666 -10.26634 -10.26564 -10.26393  -1.20468
 Alpha  occ. eigenvalues --   -1.15378  -1.14851  -1.14135  -1.13582  -1.12831
 Alpha  occ. eigenvalues --   -1.11889  -1.11366  -1.03984  -1.03456  -1.02300
 Alpha  occ. eigenvalues --   -1.02161  -1.01260  -1.01007  -1.00014  -0.99774
 Alpha  occ. eigenvalues --   -0.93448  -0.90808  -0.88964  -0.87549  -0.86743
 Alpha  occ. eigenvalues --   -0.84961  -0.82316  -0.82052  -0.79956  -0.77938
 Alpha  occ. eigenvalues --   -0.77334  -0.75561  -0.73406  -0.72660  -0.70812
 Alpha  occ. eigenvalues --   -0.70451  -0.69477  -0.69043  -0.68667  -0.68190
 Alpha  occ. eigenvalues --   -0.67513  -0.66189  -0.65901  -0.65659  -0.65120
 Alpha  occ. eigenvalues --   -0.64367  -0.63713  -0.63047  -0.62781  -0.61212
 Alpha  occ. eigenvalues --   -0.60628  -0.59710  -0.59447  -0.58982  -0.58465
 Alpha  occ. eigenvalues --   -0.58031  -0.57657  -0.57302  -0.56806  -0.56415
 Alpha  occ. eigenvalues --   -0.56247  -0.55513  -0.54535  -0.54399  -0.54126
 Alpha  occ. eigenvalues --   -0.54025  -0.53222  -0.52895  -0.52789  -0.52627
 Alpha  occ. eigenvalues --   -0.52331  -0.51422  -0.50989  -0.50548  -0.49801
 Alpha  occ. eigenvalues --   -0.49727  -0.49557  -0.49430  -0.48870  -0.48726
 Alpha  occ. eigenvalues --   -0.48387  -0.48060  -0.47728  -0.46976  -0.46888
 Alpha  occ. eigenvalues --   -0.46469  -0.45547  -0.45042  -0.44625  -0.44488
 Alpha  occ. eigenvalues --   -0.43798  -0.43333  -0.41595  -0.41449  -0.41393
 Alpha  occ. eigenvalues --   -0.40196  -0.39103  -0.38619  -0.38338  -0.38097
 Alpha  occ. eigenvalues --   -0.37698  -0.37334  -0.36446  -0.35989  -0.35777
 Alpha  occ. eigenvalues --   -0.35472  -0.35014  -0.33610  -0.33279  -0.32814
 Alpha  occ. eigenvalues --   -0.32069
 Alpha virt. eigenvalues --   -0.10471  -0.10266  -0.09144  -0.09000  -0.08257
 Alpha virt. eigenvalues --   -0.07964  -0.07530  -0.06795  -0.06014  -0.04897
 Alpha virt. eigenvalues --   -0.03356  -0.02926  -0.01072  -0.00793  -0.00492

 Mulliken charges:
               1
     1  N   -0.614352
     2  H    0.274098
     3  H    0.267241
     4  C   -0.040893
     5  H    0.121135
     6  C    0.628783
     7  C   -0.236970
     8  H    0.140472
     9  H    0.153708
    10  O   -0.573980
    11  C    0.579212
    12  N   -0.582019
    13  H    0.282894
    14  H    0.306017
    15  O   -0.557296
    16  N   -0.512352
    17  H    0.277565
    18  C   -0.021877
    19  H    0.139835
    20  C    0.625584
    21  C   -0.278612
    22  H    0.142213
    23  H    0.141002
    24  O   -0.531983
    25  C    0.113348
    26  C   -0.156261
    27  H    0.089039
    28  C   -0.117440
    29  H    0.087440
    30  C   -0.085325
    31  H    0.101928
    32  C   -0.085961
    33  H    0.102045
    34  C   -0.088058
    35  H    0.103505
    36  N   -0.559722
    37  H    0.302834
    38  C    0.018926
    39  H    0.162255
    40  C    0.597074
    41  C   -0.293552
    42  H    0.161533
    43  H    0.144681
    44  O   -0.584280
    45  C    0.607595
    46  N   -0.596072
    47  H    0.296105
    48  H    0.289468
    49  O   -0.534363
    50  N   -0.564373
    51  H    0.342711
    52  C    0.035782
    53  H    0.113606
    54  C    0.580711
    55  C   -0.186426
    56  H    0.132537
    57  H    0.132066
    58  O   -0.471591
    59  C   -0.207007
    60  H    0.117530
    61  H    0.147233
    62  C   -0.088526
    63  H    0.149326
    64  H    0.139628
    65  N   -0.507488
    66  H    0.288223
    67  N   -0.648783
    68  H    0.353965
    69  H    0.294693
    70  N   -0.599360
    71  H    0.322821
    72  H    0.297058
    73  C    0.743224
    74  O   -0.465574
    75  H    0.341844
 Sum of Mulliken charges =   1.00000

 Dipole moment (field-independent basis, Debye):
    X=             -2.1400    Y=             -7.0087    Z=             -4.1522  Tot=              8.4227
 Quadrupole moment (field-independent basis, Debye-Ang):
   XX=           -151.1466   YY=           -191.9446   ZZ=           -169.0543
   XY=              3.1285   XZ=            -17.6291   YZ=             28.7452

 Normal termination of Gaussian 16 at Thu Sep  8 16:03:13 2022.
