 Gaussian 16, Revision C.01,
 Gaussian 16:  ES64L-G16RevC.01  3-Jul-2019

 ----------------------------------------------------------------------
 # B3LYP/6-31G** empiricaldispersion=gd3bj guess=read geom=check nosymm
  integral(ultrafinegrid)
 ----------------------------------------------------------------------

 ------------------------------------------------------
 Candidate Structure: Conf:772 Charge calc in gas phase
 ------------------------------------------------------
 Structure from the checkpoint file:  "conf-772.chk"
 Charge =  1 Multiplicity = 1

                          Input orientation:
 ---------------------------------------------------------------------
 Center     Atomic      Atomic             Coordinates (Angstroms)
 Number     Number       Type             X           Y           Z
 ---------------------------------------------------------------------
      1          7           0       -2.401212    2.340391    4.505363
      2          1           0       -2.539775    3.217124    4.003910
      3          1           0       -2.672855    2.522876    5.469914
      4          6           0       -3.338158    1.341983    3.984813
      5          1           0       -3.302291    0.491330    4.677600
      6          6           0       -2.856266    0.808036    2.630900
      7          6           0       -4.799489    1.795798    3.873077
      8          1           0       -4.854531    2.708782    3.263780
      9          1           0       -5.376223    1.036486    3.336679
     10          8           0       -3.610758    0.279747    1.815056
     11          6           0       -5.406890    2.085762    5.241421
     12          7           0       -6.766919    2.144947    5.267352
     13          1           0       -7.215335    2.291366    6.159660
     14          1           0       -7.328680    1.844365    4.487530
     15          8           0       -4.728159    2.283884    6.244652
     16          7           0       -1.523631    0.961276    2.422549
     17          1           0       -0.968937    1.388954    3.158324
     18          6           0       -0.907812    0.541131    1.198019
     19          1           0       -1.501513   -0.278099    0.782123
     20          6           0        0.545739    0.145352    1.442936
     21          6           0       -0.827230    1.704718    0.154393
     22          1           0       -0.046225    2.390068    0.502987
     23          1           0       -0.490655    1.295675   -0.803795
     24          8           0        1.191056    0.628686    2.361566
     25          6           0       -2.117273    2.463413    0.001120
     26          6           0       -3.184547    1.938085   -0.744334
     27          1           0       -3.088180    0.952285   -1.188841
     28          6           0       -2.285794    3.708132    0.623629
     29          1           0       -1.482404    4.104852    1.240036
     30          6           0       -4.378271    2.648712   -0.876535
     31          1           0       -5.199284    2.220573   -1.442895
     32          6           0       -3.481468    4.423243    0.491614
     33          1           0       -3.592298    5.385503    0.981402
     34          6           0       -4.527570    3.897259   -0.264174
     35          1           0       -5.456859    4.447274   -0.368194
     36          7           0        1.088076   -0.662459    0.472930
     37          1           0        0.503314   -0.822044   -0.340829
     38          6           0        2.483689   -0.471212    0.113513
     39          1           0        2.924923    0.172568    0.877936
     40          6           0        2.490527    0.268481   -1.244103
     41          6           0        3.271319   -1.794296    0.085112
     42          1           0        3.112525   -2.330360   -0.858744
     43          1           0        2.877215   -2.433954    0.880667
     44          8           0        1.478434    0.293655   -1.957733
     45          6           0        4.769171   -1.583964    0.290547
     46          7           0        5.467846   -2.686978    0.638881
     47          1           0        6.459750   -2.593706    0.801734
     48          1           0        5.023090   -3.567573    0.842328
     49          8           0        5.315795   -0.488230    0.144532
     50          7           0        3.636040    0.898144   -1.561786
     51          1           0        4.459194    0.668783   -0.993996
     52          6           0        3.756590    1.619702   -2.820931
     53          1           0        3.424522    0.956535   -3.634259
     54          6           0        5.218793    1.954544   -3.093528
     55          6           0        2.863388    2.872375   -2.836979
     56          1           0        1.889695    2.526877   -2.480823
     57          1           0        3.264668    3.601904   -2.123279
     58          8           0        5.606763    2.994906   -3.575128
     59          6           0        2.708859    3.514466   -4.218527
     60          1           0        3.631428    4.027917   -4.496561
     61          1           0        2.543137    2.736301   -4.975458
     62          6           0        1.552695    4.514496   -4.292010
     63          1           0        1.620374    5.273039   -3.507549
     64          1           0        1.573023    5.051292   -5.244349
     65          7           0        0.228832    3.875415   -4.195363
     66          1           0       -0.068040    3.341752   -5.000535
     67          7           0       -0.194546    4.322721   -1.946285
     68          1           0       -0.859510    4.316893   -1.179293
     69          1           0        0.786067    4.340021   -1.713275
     70          7           0       -1.841730    3.404997   -3.273672
     71          1           0       -2.389564    3.127873   -2.461424
     72          1           0       -2.228710    3.225863   -4.186689
     73          6           0       -0.588052    3.854601   -3.138630
     74          8           0        6.031320    0.938018   -2.755608
     75          1           0        6.943029    1.218646   -2.946855
 ---------------------------------------------------------------------

 SCF Done:  E(RB3LYP) =  -1917.62750230     A.U. after    2 cycles

 Alpha  occ. eigenvalues --  -19.29254 -19.23770 -19.21843 -19.21370 -19.20561
 Alpha  occ. eigenvalues --  -19.17818 -19.17500 -14.52401 -14.51437 -14.51328
 Alpha  occ. eigenvalues --  -14.45105 -14.45048 -14.44238 -14.42126 -14.41749
 Alpha  occ. eigenvalues --  -14.37881 -10.48223 -10.41939 -10.38906 -10.38367
 Alpha  occ. eigenvalues --  -10.37334 -10.36063 -10.35168 -10.34765 -10.34213
 Alpha  occ. eigenvalues --  -10.32546 -10.31870 -10.30600 -10.30026 -10.29809
 Alpha  occ. eigenvalues --  -10.29755 -10.29713 -10.29664 -10.29502 -10.29491
 Alpha  occ. eigenvalues --  -10.29422 -10.29164 -10.28699 -10.25682  -1.20407
 Alpha  occ. eigenvalues --   -1.16800  -1.13760  -1.12924  -1.12406  -1.11399
 Alpha  occ. eigenvalues --   -1.09761  -1.09240  -1.06218  -1.04595  -1.02384
 Alpha  occ. eigenvalues --   -1.01353  -0.99893  -0.99707  -0.96458  -0.96395
 Alpha  occ. eigenvalues --   -0.95166  -0.91798  -0.88947  -0.87974  -0.86088
 Alpha  occ. eigenvalues --   -0.85187  -0.83099  -0.81968  -0.81218  -0.78398
 Alpha  occ. eigenvalues --   -0.77356  -0.75537  -0.74481  -0.73491  -0.72082
 Alpha  occ. eigenvalues --   -0.71212  -0.69949  -0.69152  -0.68506  -0.68383
 Alpha  occ. eigenvalues --   -0.67190  -0.66148  -0.65168  -0.65031  -0.64812
 Alpha  occ. eigenvalues --   -0.64549  -0.63891  -0.62831  -0.61708  -0.61184
 Alpha  occ. eigenvalues --   -0.60274  -0.60063  -0.58748  -0.58584  -0.58243
 Alpha  occ. eigenvalues --   -0.57930  -0.57451  -0.57028  -0.56440  -0.56241
 Alpha  occ. eigenvalues --   -0.55744  -0.54543  -0.54163  -0.53850  -0.53336
 Alpha  occ. eigenvalues --   -0.53199  -0.53023  -0.52864  -0.52510  -0.52302
 Alpha  occ. eigenvalues --   -0.52012  -0.51260  -0.50736  -0.50437  -0.50218
 Alpha  occ. eigenvalues --   -0.49289  -0.49211  -0.48060  -0.47584  -0.47356
 Alpha  occ. eigenvalues --   -0.47016  -0.46773  -0.46424  -0.46333  -0.46038
 Alpha  occ. eigenvalues --   -0.45939  -0.45342  -0.45069  -0.44489  -0.44336
 Alpha  occ. eigenvalues --   -0.44107  -0.43365  -0.42970  -0.42712  -0.41470
 Alpha  occ. eigenvalues --   -0.41007  -0.40868  -0.37356  -0.36637  -0.36334
 Alpha  occ. eigenvalues --   -0.35788  -0.35708  -0.35573  -0.35446  -0.34877
 Alpha  occ. eigenvalues --   -0.33808  -0.33008  -0.32797  -0.31709  -0.31410
 Alpha  occ. eigenvalues --   -0.29903
 Alpha virt. eigenvalues --   -0.12375  -0.11629  -0.11513  -0.09267  -0.07944
 Alpha virt. eigenvalues --   -0.07488  -0.06992  -0.06375  -0.04813  -0.04428
 Alpha virt. eigenvalues --   -0.03262  -0.02523  -0.01228  -0.00929  -0.00487

 Mulliken charges:
               1
     1  N   -0.623792
     2  H    0.229017
     3  H    0.282952
     4  C   -0.025060
     5  H    0.153397
     6  C    0.604686
     7  C   -0.273980
     8  H    0.121226
     9  H    0.141028
    10  O   -0.556200
    11  C    0.581819
    12  N   -0.607982
    13  H    0.286365
    14  H    0.274323
    15  O   -0.512730
    16  N   -0.530491
    17  H    0.299303
    18  C    0.005899
    19  H    0.140975
    20  C    0.574824
    21  C   -0.249431
    22  H    0.097814
    23  H    0.130390
    24  O   -0.500018
    25  C    0.098352
    26  C   -0.139895
    27  H    0.112324
    28  C   -0.177896
    29  H    0.108748
    30  C   -0.088392
    31  H    0.117220
    32  C   -0.084847
    33  H    0.117016
    34  C   -0.084065
    35  H    0.116560
    36  N   -0.507555
    37  H    0.273313
    38  C   -0.047089
    39  H    0.174004
    40  C    0.597688
    41  C   -0.277991
    42  H    0.149410
    43  H    0.154032
    44  O   -0.563018
    45  C    0.607198
    46  N   -0.598038
    47  H    0.297346
    48  H    0.288931
    49  O   -0.529309
    50  N   -0.553789
    51  H    0.334563
    52  C    0.025030
    53  H    0.152958
    54  C    0.572054
    55  C   -0.195654
    56  H    0.113279
    57  H    0.115109
    58  O   -0.453484
    59  C   -0.183092
    60  H    0.168327
    61  H    0.107325
    62  C   -0.106894
    63  H    0.141336
    64  H    0.157204
    65  N   -0.516149
    66  H    0.294735
    67  N   -0.606625
    68  H    0.309383
    69  H    0.308600
    70  N   -0.624807
    71  H    0.311983
    72  H    0.303746
    73  C    0.791349
    74  O   -0.467486
    75  H    0.342620
 Sum of Mulliken charges =   1.00000

 Dipole moment (field-independent basis, Debye):
    X=             -0.5880    Y=             10.4793    Z=            -12.5164  Tot=             16.3346
 Quadrupole moment (field-independent basis, Debye-Ang):
   XX=           -127.1486   YY=           -150.6240   ZZ=           -182.5970
   XY=            -45.9473   XZ=            -13.9597   YZ=            -42.8661

 Normal termination of Gaussian 16 at Thu Sep  8 16:05:16 2022.
