 Gaussian 16, Revision C.01,
 Gaussian 16:  ES64L-G16RevC.01  3-Jul-2019

 ----------------------------------------------------------------------
 # B3LYP/6-31G** empiricaldispersion=gd3bj guess=read geom=check nosymm
  integral(ultrafinegrid)
 ----------------------------------------------------------------------

 ------------------------------------------------------
 Candidate Structure: Conf:496 Charge calc in gas phase
 ------------------------------------------------------
 Structure from the checkpoint file:  "conf-496.chk"
 Charge =  1 Multiplicity = 1

                          Input orientation:
 ---------------------------------------------------------------------
 Center     Atomic      Atomic             Coordinates (Angstroms)
 Number     Number       Type             X           Y           Z
 ---------------------------------------------------------------------
      1          7           0       32.834061  -33.228378   45.159750
      2          6           0       33.872053  -33.313885   44.132507
      3          6           0       33.463136  -32.519224   42.892992
      4          8           0       34.068077  -32.704096   41.811150
      5          6           0       35.205446  -32.714756   44.657499
      6          6           0       35.735938  -33.471930   45.848625
      7          6           0       35.557190  -32.989184   47.152643
      8          6           0       36.382631  -34.702496   45.683461
      9          6           0       36.002067  -33.706069   48.259086
     10          6           0       36.835509  -35.430566   46.779163
     11          6           0       36.644431  -34.934525   48.075004
     12          8           0       37.061360  -35.594048   49.188558
     13          1           0       34.071214  -34.336370   43.787296
     14          1           0       35.927840  -32.720116   43.836870
     15          1           0       35.024809  -31.667662   44.926347
     16          1           0       35.075961  -32.026247   47.305146
     17          1           0       36.543841  -35.095784   44.683179
     18          1           0       35.870886  -33.328968   49.266994
     19          1           0       37.343188  -36.380250   46.630394
     20          1           0       37.505401  -36.414233   48.935422
     21          1           0       32.152802  -33.974402   45.049021
     22          1           0       33.251744  -33.345139   46.080152
     23          7           0       32.500034  -31.616464   43.117506
     24          6           0       31.867046  -30.610194   42.252580
     25          6           0       32.858915  -29.687696   41.529908
     26          8           0       32.692743  -28.450861   41.602166
     27          6           0       30.764093  -31.188272   41.319281
     28          6           0       31.258914  -32.198758   40.279822
     29          6           0       29.985696  -30.047190   40.652174
     30          1           0       32.163472  -31.695340   44.082335
     31          1           0       31.362385  -29.931788   42.943080
     32          1           0       30.083315  -31.712873   42.001889
     33          1           0       31.819622  -33.020158   40.728137
     34          1           0       30.401941  -32.623557   39.749827
     35          1           0       31.899908  -31.720958   39.531748
     36          1           0       30.609736  -29.508455   39.930541
     37          1           0       29.617880  -29.319921   41.381811
     38          1           0       29.126825  -30.447581   40.107753
     39          7           0       33.828626  -30.269777   40.814116
     40          6           0       34.990247  -29.574584   40.282783
     41          6           0       36.340797  -30.083220   40.840191
     42          8           0       37.320797  -29.400642   40.657167
     43          6           0       35.039596  -29.608038   38.740907
     44          6           0       33.861840  -28.933336   38.024853
     45          6           0       33.843926  -27.400296   38.080189
     46          7           0       33.513861  -26.924845   39.427586
     47          6           0       34.099875  -25.926223   40.079985
     48          7           0       34.782310  -24.967615   39.432760
     49          7           0       34.014681  -25.896733   41.418168
     50          8           0       36.408129  -31.250329   41.487728
     51          1           0       35.571400  -31.759358   41.552932
     52          1           0       33.848711  -31.296840   40.861474
     53          1           0       34.936699  -28.545478   40.631717
     54          1           0       35.083773  -30.656580   38.425027
     55          1           0       35.984345  -29.148053   38.436010
     56          1           0       32.908583  -29.322683   38.404625
     57          1           0       33.897323  -29.210596   36.966679
     58          1           0       33.110225  -27.012089   37.365333
     59          1           0       34.829117  -27.012234   37.799647
     60          1           0       32.980466  -27.553990   40.039145
     61          1           0       35.401963  -24.347988   39.930229
     62          1           0       34.740481  -24.888281   38.430049
     63          1           0       34.169783  -25.042146   41.928936
     64          1           0       33.568740  -26.684390   41.882785
 ---------------------------------------------------------------------

 SCF Done:  E(RB3LYP) =  -1486.71341272     A.U. after    1 cycles

 Alpha  occ. eigenvalues --  -19.27344 -19.25106 -19.24403 -19.23971 -19.21644
 Alpha  occ. eigenvalues --  -14.51938 -14.50581 -14.50465 -14.47725 -14.47682
 Alpha  occ. eigenvalues --  -14.42350 -10.47472 -10.41762 -10.40756 -10.40294
 Alpha  occ. eigenvalues --  -10.35983 -10.35114 -10.34773 -10.32406 -10.31967
 Alpha  occ. eigenvalues --  -10.31206 -10.30377 -10.30262 -10.28162 -10.27415
 Alpha  occ. eigenvalues --  -10.26889 -10.26700 -10.26478 -10.26471 -10.26089
 Alpha  occ. eigenvalues --  -10.25513  -1.18353  -1.16650  -1.15969  -1.15067
 Alpha  occ. eigenvalues --   -1.12648  -1.10026  -1.05474  -1.05128  -1.04505
 Alpha  occ. eigenvalues --   -1.04210  -0.99289  -0.92634  -0.92360  -0.91168
 Alpha  occ. eigenvalues --   -0.87255  -0.85885  -0.83317  -0.81995  -0.80763
 Alpha  occ. eigenvalues --   -0.79575  -0.78165  -0.77712  -0.74239  -0.73564
 Alpha  occ. eigenvalues --   -0.72326  -0.71558  -0.70140  -0.69783  -0.69427
 Alpha  occ. eigenvalues --   -0.68668  -0.68319  -0.65910  -0.65092  -0.64768
 Alpha  occ. eigenvalues --   -0.64575  -0.63459  -0.61408  -0.61345  -0.60391
 Alpha  occ. eigenvalues --   -0.60052  -0.59290  -0.57833  -0.57171  -0.56711
 Alpha  occ. eigenvalues --   -0.56168  -0.55733  -0.55213  -0.54707  -0.54122
 Alpha  occ. eigenvalues --   -0.53476  -0.52879  -0.52697  -0.52040  -0.51983
 Alpha  occ. eigenvalues --   -0.50900  -0.50526  -0.50410  -0.50238  -0.49276
 Alpha  occ. eigenvalues --   -0.48783  -0.48327  -0.47871  -0.47602  -0.47063
 Alpha  occ. eigenvalues --   -0.46590  -0.46265  -0.45911  -0.45148  -0.44678
 Alpha  occ. eigenvalues --   -0.44077  -0.43808  -0.43456  -0.42848  -0.42662
 Alpha  occ. eigenvalues --   -0.40662  -0.40322  -0.40090  -0.40063  -0.39697
 Alpha  occ. eigenvalues --   -0.39146  -0.37963  -0.36555  -0.35139  -0.34837
 Alpha  occ. eigenvalues --   -0.32484  -0.28891
 Alpha virt. eigenvalues --   -0.11732  -0.11464  -0.09988  -0.07903  -0.07740
 Alpha virt. eigenvalues --   -0.07062  -0.05905  -0.04094  -0.03562  -0.02107
 Alpha virt. eigenvalues --   -0.01656  -0.00384  -0.00114   0.00940   0.01147

 Mulliken charges:
               1
     1  N   -0.641993
     2  C    0.004964
     3  C    0.597726
     4  O   -0.606468
     5  C   -0.264999
     6  C    0.100228
     7  C   -0.146127
     8  C   -0.123660
     9  C   -0.097678
    10  C   -0.127387
    11  C    0.332527
    12  O   -0.545972
    13  H    0.132733
    14  H    0.143709
    15  H    0.107772
    16  H    0.088937
    17  H    0.094175
    18  H    0.112110
    19  H    0.093227
    20  H    0.325304
    21  H    0.267336
    22  H    0.272617
    23  N   -0.514703
    24  C   -0.011311
    25  C    0.598064
    26  O   -0.594544
    27  C   -0.059161
    28  C   -0.331380
    29  C   -0.320606
    30  H    0.308440
    31  H    0.147822
    32  H    0.116733
    33  H    0.130610
    34  H    0.126144
    35  H    0.100244
    36  H    0.098484
    37  H    0.118795
    38  H    0.129460
    39  N   -0.517227
    40  C   -0.049420
    41  C    0.597323
    42  O   -0.445382
    43  C   -0.177208
    44  C   -0.235485
    45  C   -0.062037
    46  N   -0.529918
    47  C    0.772908
    48  N   -0.616757
    49  N   -0.624988
    50  O   -0.499131
    51  H    0.354085
    52  H    0.316896
    53  H    0.130781
    54  H    0.128497
    55  H    0.145440
    56  H    0.126259
    57  H    0.142505
    58  H    0.149516
    59  H    0.130681
    60  H    0.324955
    61  H    0.315873
    62  H    0.316037
    63  H    0.304463
    64  H    0.339164
 Sum of Mulliken charges =   1.00000

 Dipole moment (field-independent basis, Debye):
    X=            159.5350    Y=           -138.0039    Z=            197.9297  Tot=            289.2623
 Quadrupole moment (field-independent basis, Debye-Ang):
   XX=           5116.8483   YY=           3883.6599   ZZ=           8023.8360
   XY=          -4576.5551   XZ=           6576.1412   YZ=          -5736.1924

 Normal termination of Gaussian 16 at Thu Sep  8 16:00:31 2022.
