 Gaussian 16, Revision C.01,
 Gaussian 16:  ES64L-G16RevC.01  3-Jul-2019

 ----------------------------------------------------------------------
 # B3LYP/6-31G** empiricaldispersion=gd3bj guess=read geom=check nosymm
  integral(ultrafinegrid)
 ----------------------------------------------------------------------

 ------------------------------------------------------
 Candidate Structure: Conf:102 Charge calc in gas phase
 ------------------------------------------------------
 Structure from the checkpoint file:  "conf-102.chk"
 Charge =  1 Multiplicity = 1

                          Input orientation:
 ---------------------------------------------------------------------
 Center     Atomic      Atomic             Coordinates (Angstroms)
 Number     Number       Type             X           Y           Z
 ---------------------------------------------------------------------
      1          7           0       -3.870070    4.471185    1.986007
      2          1           0       -4.743201    4.134301    1.577577
      3          1           0       -4.107722    5.134665    2.728986
      4          6           0       -3.232890    3.319866    2.660408
      5          1           0       -2.269492    3.663325    3.055420
      6          6           0       -3.035930    2.248324    1.584845
      7          6           0       -4.061979    2.751718    3.821081
      8          1           0       -5.026219    2.407430    3.428611
      9          1           0       -3.563849    1.869324    4.239731
     10          8           0       -4.005604    1.732365    1.037573
     11          6           0       -4.290674    3.790842    4.918168
     12          7           0       -4.711136    3.299630    6.106193
     13          1           0       -4.922135    3.952600    6.846875
     14          1           0       -4.872985    2.317723    6.262743
     15          8           0       -4.107478    4.993363    4.729647
     16          7           0       -1.748742    1.977048    1.261629
     17          1           0       -0.991712    2.408336    1.771222
     18          6           0       -1.351980    1.047020    0.221295
     19          1           0       -1.744532    0.050967    0.452379
     20          6           0        0.177893    1.022678    0.217324
     21          6           0       -1.880371    1.446244   -1.189623
     22          1           0       -2.955076    1.605758   -1.083769
     23          1           0       -1.418331    2.393625   -1.485026
     24          8           0        0.831931    2.023457    0.576029
     25          6           0       -1.585709    0.361441   -2.195532
     26          6           0       -0.519706    0.473682   -3.093631
     27          1           0        0.064354    1.388164   -3.119116
     28          6           0       -2.315843   -0.835508   -2.159543
     29          1           0       -3.153804   -0.930837   -1.473547
     30          6           0       -0.175596   -0.586551   -3.931710
     31          1           0        0.674033   -0.489182   -4.597491
     32          6           0       -1.977466   -1.896851   -2.998908
     33          1           0       -2.552709   -2.816515   -2.964197
     34          6           0       -0.903013   -1.775614   -3.883275
     35          1           0       -0.635922   -2.603954   -4.531192
     36          7           0        0.737601   -0.115157   -0.211588
     37          1           0        0.126375   -0.819845   -0.606078
     38          6           0        2.181267   -0.318032   -0.372328
     39          1           0        2.674566    0.113280    0.502664
     40          6           0        2.672372    0.389463   -1.655608
     41          6           0        2.486873   -1.811852   -0.446062
     42          1           0        2.067650   -2.219792   -1.369750
     43          1           0        2.041915   -2.313429    0.415847
     44          8           0        2.756207   -0.190947   -2.734239
     45          6           0        4.002807   -2.021699   -0.355831
     46          7           0        4.618306   -2.281250   -1.541414
     47          1           0        5.628394   -2.292189   -1.533372
     48          1           0        4.153625   -2.021918   -2.400726
     49          8           0        4.579417   -1.944911    0.718562
     50          7           0        2.968165    1.698630   -1.485030
     51          1           0        2.821036    2.101528   -0.568621
     52          6           0        3.388587    2.550184   -2.578439
     53          1           0        3.015731    2.081695   -3.497692
     54          6           0        4.909967    2.625586   -2.748694
     55          6           0        2.808354    3.961491   -2.425973
     56          1           0        3.212753    4.406981   -1.506506
     57          1           0        3.181578    4.572771   -3.250579
     58          8           0        5.460075    3.510674   -3.362726
     59          6           0        1.279969    3.959664   -2.366306
     60          1           0        0.860400    3.651204   -3.331400
     61          1           0        0.948815    3.223252   -1.628675
     62          6           0        0.727953    5.330234   -1.973310
     63          1           0        1.237653    5.704383   -1.081205
     64          1           0        0.888155    6.063398   -2.768464
     65          7           0       -0.709709    5.313986   -1.674556
     66          1           0       -1.356877    5.460309   -2.435727
     67          7           0       -0.440755    4.775054    0.566490
     68          1           0       -0.821890    4.870877    1.495825
     69          1           0        0.184764    3.980616    0.428797
     70          7           0       -2.487764    5.545125   -0.189139
     71          1           0       -2.998678    5.174580    0.666990
     72          1           0       -3.002922    6.081363   -0.872076
     73          6           0       -1.230527    5.202387   -0.442416
     74          8           0        5.552333    1.594564   -2.173519
     75          1           0        6.498780    1.715339   -2.364487
 ---------------------------------------------------------------------

 SCF Done:  E(RB3LYP) =  -1917.64760451     A.U. after    2 cycles

 Alpha  occ. eigenvalues --  -19.28468 -19.25498 -19.22834 -19.22620 -19.21830
 Alpha  occ. eigenvalues --  -19.21750 -19.18017 -14.51558 -14.49956 -14.49031
 Alpha  occ. eigenvalues --  -14.48823 -14.47963 -14.46305 -14.45679 -14.44702
 Alpha  occ. eigenvalues --  -14.42042 -10.46681 -10.41826 -10.40850 -10.40034
 Alpha  occ. eigenvalues --  -10.39522 -10.38828 -10.35940 -10.35497 -10.35458
 Alpha  occ. eigenvalues --  -10.34695 -10.34199 -10.33934 -10.30606 -10.30484
 Alpha  occ. eigenvalues --  -10.29978 -10.29961 -10.29051 -10.28223 -10.27893
 Alpha  occ. eigenvalues --  -10.27884 -10.27753 -10.27533 -10.27433  -1.19465
 Alpha  occ. eigenvalues --   -1.16789  -1.15362  -1.14891  -1.13753  -1.13509
 Alpha  occ. eigenvalues --   -1.10408  -1.09929  -1.05281  -1.05044  -1.04435
 Alpha  occ. eigenvalues --   -1.03230  -1.02816  -1.01353  -1.00488  -0.97075
 Alpha  occ. eigenvalues --   -0.94950  -0.91916  -0.90555  -0.88253  -0.87135
 Alpha  occ. eigenvalues --   -0.86109  -0.83630  -0.83230  -0.80565  -0.78321
 Alpha  occ. eigenvalues --   -0.77717  -0.76957  -0.75092  -0.72741  -0.72472
 Alpha  occ. eigenvalues --   -0.72040  -0.70214  -0.69504  -0.69162  -0.68957
 Alpha  occ. eigenvalues --   -0.68725  -0.68062  -0.67157  -0.65813  -0.65102
 Alpha  occ. eigenvalues --   -0.64575  -0.64277  -0.63236  -0.62968  -0.61707
 Alpha  occ. eigenvalues --   -0.61454  -0.60346  -0.60187  -0.59848  -0.59278
 Alpha  occ. eigenvalues --   -0.59086  -0.58788  -0.57781  -0.57654  -0.56766
 Alpha  occ. eigenvalues --   -0.56607  -0.56124  -0.55765  -0.55660  -0.54603
 Alpha  occ. eigenvalues --   -0.54288  -0.54186  -0.53670  -0.52940  -0.52260
 Alpha  occ. eigenvalues --   -0.51881  -0.51549  -0.51303  -0.50760  -0.50676
 Alpha  occ. eigenvalues --   -0.50362  -0.50182  -0.49706  -0.49384  -0.49103
 Alpha  occ. eigenvalues --   -0.48930  -0.48709  -0.48091  -0.47016  -0.46862
 Alpha  occ. eigenvalues --   -0.46727  -0.46363  -0.46088  -0.45472  -0.45337
 Alpha  occ. eigenvalues --   -0.44613  -0.44139  -0.43066  -0.42675  -0.42086
 Alpha  occ. eigenvalues --   -0.40514  -0.40142  -0.40053  -0.39221  -0.38981
 Alpha  occ. eigenvalues --   -0.38286  -0.37276  -0.36980  -0.36375  -0.35340
 Alpha  occ. eigenvalues --   -0.35065  -0.34605  -0.33779  -0.33452  -0.33305
 Alpha  occ. eigenvalues --   -0.31712
 Alpha virt. eigenvalues --   -0.11966  -0.11482  -0.09746  -0.09382  -0.09101
 Alpha virt. eigenvalues --   -0.08297  -0.07890  -0.07802  -0.07184  -0.05174
 Alpha virt. eigenvalues --   -0.04610  -0.02452  -0.02241  -0.01560  -0.01094

 Mulliken charges:
               1
     1  N   -0.654235
     2  H    0.277957
     3  H    0.304442
     4  C   -0.030594
     5  H    0.099020
     6  C    0.626428
     7  C   -0.279337
     8  H    0.169041
     9  H    0.132446
    10  O   -0.526867
    11  C    0.594327
    12  N   -0.600387
    13  H    0.299241
    14  H    0.287372
    15  O   -0.520451
    16  N   -0.564491
    17  H    0.267764
    18  C    0.032946
    19  H    0.146078
    20  C    0.604241
    21  C   -0.252764
    22  H    0.164247
    23  H    0.087244
    24  O   -0.591481
    25  C    0.080095
    26  C   -0.127012
    27  H    0.071438
    28  C   -0.143560
    29  H    0.106477
    30  C   -0.067470
    31  H    0.115266
    32  C   -0.085864
    33  H    0.110767
    34  C   -0.094006
    35  H    0.110716
    36  N   -0.503855
    37  H    0.295650
    38  C   -0.023138
    39  H    0.160440
    40  C    0.635596
    41  C   -0.272406
    42  H    0.134216
    43  H    0.144295
    44  O   -0.537288
    45  C    0.545156
    46  N   -0.587626
    47  H    0.281275
    48  H    0.291894
    49  O   -0.495490
    50  N   -0.517863
    51  H    0.284339
    52  C   -0.018901
    53  H    0.171624
    54  C    0.604896
    55  C   -0.207356
    56  H    0.111308
    57  H    0.156810
    58  O   -0.451139
    59  C   -0.198042
    60  H    0.122540
    61  H    0.114201
    62  C   -0.082392
    63  H    0.150579
    64  H    0.150016
    65  N   -0.523223
    66  H    0.291042
    67  N   -0.628380
    68  H    0.299189
    69  H    0.327062
    70  N   -0.633375
    71  H    0.364171
    72  H    0.288690
    73  C    0.741576
    74  O   -0.473943
    75  H    0.338817
 Sum of Mulliken charges =   1.00000

 Dipole moment (field-independent basis, Debye):
    X=             -7.2459    Y=             15.2341    Z=              0.3775  Tot=             16.8738
 Quadrupole moment (field-independent basis, Debye-Ang):
   XX=           -182.4562   YY=           -145.6510   ZZ=           -170.9076
   XY=            -26.4316   XZ=            -40.8866   YZ=              2.2277

 Normal termination of Gaussian 16 at Thu Sep  8 16:01:57 2022.
