 Gaussian 16, Revision C.01,
 Gaussian 16:  ES64L-G16RevC.01  3-Jul-2019

 ----------------------------------------------------------------------
 # B3LYP/6-31G** empiricaldispersion=gd3bj guess=read geom=check nosymm
  integral(ultrafinegrid)
 ----------------------------------------------------------------------

 -----------------------------------------------------
 Candidate Structure: Conf:34 Charge calc in gas phase
 -----------------------------------------------------
 Structure from the checkpoint file:  "conf-34.chk"
 Charge =  1 Multiplicity = 1

                          Input orientation:
 ---------------------------------------------------------------------
 Center     Atomic      Atomic             Coordinates (Angstroms)
 Number     Number       Type             X           Y           Z
 ---------------------------------------------------------------------
      1          7           0       -5.437155    1.216603    3.361778
      2          1           0       -6.078670    0.812788    2.682610
      3          1           0       -5.160562    0.440630    3.964007
      4          6           0       -4.254041    1.693233    2.663247
      5          1           0       -4.592823    2.230478    1.768451
      6          6           0       -3.318679    0.589276    2.152834
      7          6           0       -3.475612    2.681821    3.573412
      8          1           0       -3.550587    2.338298    4.608752
      9          1           0       -2.419588    2.731773    3.309551
     10          8           0       -3.462200   -0.587512    2.440256
     11          6           0       -4.079627    4.052017    3.393350
     12          7           0       -5.320909    4.199164    3.874468
     13          1           0       -5.824012    5.057632    3.701327
     14          1           0       -5.821767    3.363854    4.167384
     15          8           0       -3.473859    4.945672    2.765240
     16          7           0       -2.316418    1.076449    1.350995
     17          1           0       -2.433672    2.029018    1.034187
     18          6           0       -1.633378    0.210696    0.416111
     19          1           0       -1.688554   -0.794416    0.837603
     20          6           0       -0.185775    0.664259    0.271310
     21          6           0       -2.302293    0.225081   -1.013177
     22          1           0       -1.756107    0.923400   -1.655361
     23          1           0       -2.190692   -0.768688   -1.454421
     24          8           0        0.111262    1.881326    0.274564
     25          6           0       -3.749420    0.644819   -0.945996
     26          6           0       -4.743283   -0.239577   -0.511355
     27          1           0       -4.484434   -1.269738   -0.288865
     28          6           0       -4.101856    1.975819   -1.204495
     29          1           0       -3.340256    2.664073   -1.562299
     30          6           0       -6.054439    0.200719   -0.327212
     31          1           0       -6.814719   -0.500667    0.002165
     32          6           0       -5.410388    2.422483   -1.016965
     33          1           0       -5.663405    3.458276   -1.221035
     34          6           0       -6.391190    1.534434   -0.571280
     35          1           0       -7.412447    1.873750   -0.430636
     36          7           0        0.681198   -0.326706    0.054272
     37          1           0        0.410421   -1.289175    0.293356
     38          6           0        2.126856   -0.158439   -0.121711
     39          1           0        2.481980    0.570943    0.615202
     40          6           0        2.407894    0.378092   -1.550360
     41          6           0        2.853105   -1.504305    0.040989
     42          1           0        3.917331   -1.301077    0.180519
     43          1           0        2.759881   -2.038020   -0.911231
     44          8           0        2.766749   -0.346019   -2.467738
     45          6           0        2.298996   -2.412294    1.127078
     46          7           0        3.196013   -2.944569    1.985200
     47          1           0        2.867958   -3.625655    2.655015
     48          1           0        4.187540   -2.796310    1.890341
     49          8           0        1.093388   -2.676191    1.198255
     50          7           0        2.188795    1.707362   -1.684694
     51          1           0        1.749287    2.183825   -0.905328
     52          6           0        2.233220    2.344829   -2.983755
     53          1           0        1.705938    1.721838   -3.715712
     54          6           0        3.644804    2.501104   -3.552328
     55          6           0        1.574820    3.729031   -2.899113
     56          1           0        2.115937    4.307946   -2.137697
     57          1           0        1.730081    4.240185   -3.852017
     58          8           0        3.841574    2.831050   -4.698777
     59          6           0        0.078100    3.671777   -2.548468
     60          1           0       -0.517248    3.505239   -3.452924
     61          1           0       -0.127481    2.842160   -1.867033
     62          6           0       -0.344921    4.970767   -1.866294
     63          1           0        0.234883    5.118674   -0.950946
     64          1           0       -0.140896    5.830154   -2.513086
     65          7           0       -1.766483    5.037216   -1.498785
     66          1           0       -2.407110    5.397690   -2.191653
     67          7           0       -1.574411    4.276591    0.702832
     68          1           0       -1.929179    4.392831    1.655177
     69          1           0       -0.883950    3.547278    0.495714
     70          7           0       -3.429495    5.489630    0.052803
     71          1           0       -3.742155    5.423445    1.026647
     72          1           0       -3.746831    6.278632   -0.490010
     73          6           0       -2.242561    4.934149   -0.246333
     74          8           0        4.620062    2.287559   -2.650916
     75          1           0        5.459448    2.408386   -3.127716
 ---------------------------------------------------------------------

 SCF Done:  E(RB3LYP) =  -1917.65311794     A.U. after    1 cycles

 Alpha  occ. eigenvalues --  -19.27262 -19.24346 -19.23933 -19.21651 -19.21182
 Alpha  occ. eigenvalues --  -19.21145 -19.20435 -14.51365 -14.49776 -14.49275
 Alpha  occ. eigenvalues --  -14.46865 -14.46376 -14.45561 -14.45205 -14.44456
 Alpha  occ. eigenvalues --  -14.42315 -10.46753 -10.41110 -10.40008 -10.39526
 Alpha  occ. eigenvalues --  -10.38851 -10.38240 -10.37353 -10.35398 -10.33790
 Alpha  occ. eigenvalues --  -10.33592 -10.33288 -10.32713 -10.30436 -10.29848
 Alpha  occ. eigenvalues --  -10.29602 -10.29549 -10.29472 -10.29144 -10.28907
 Alpha  occ. eigenvalues --  -10.28839 -10.28565 -10.28460 -10.28206  -1.18194
 Alpha  occ. eigenvalues --   -1.15669  -1.15022  -1.14887  -1.13489  -1.12912
 Alpha  occ. eigenvalues --   -1.12375  -1.09070  -1.05028  -1.03393  -1.03070
 Alpha  occ. eigenvalues --   -1.02617  -1.02397  -1.01739  -0.99951  -0.99438
 Alpha  occ. eigenvalues --   -0.95279  -0.91332  -0.89761  -0.87947  -0.86943
 Alpha  occ. eigenvalues --   -0.85691  -0.84079  -0.83398  -0.80044  -0.77766
 Alpha  occ. eigenvalues --   -0.77486  -0.76221  -0.74269  -0.72537  -0.71823
 Alpha  occ. eigenvalues --   -0.70843  -0.70361  -0.69891  -0.68762  -0.68355
 Alpha  occ. eigenvalues --   -0.68101  -0.67925  -0.67582  -0.67032  -0.65365
 Alpha  occ. eigenvalues --   -0.63919  -0.63505  -0.63240  -0.62446  -0.62177
 Alpha  occ. eigenvalues --   -0.61586  -0.60633  -0.59960  -0.59578  -0.59084
 Alpha  occ. eigenvalues --   -0.58471  -0.58057  -0.57192  -0.57178  -0.57060
 Alpha  occ. eigenvalues --   -0.55990  -0.55692  -0.55230  -0.54980  -0.54696
 Alpha  occ. eigenvalues --   -0.54419  -0.53662  -0.53356  -0.52650  -0.52430
 Alpha  occ. eigenvalues --   -0.51712  -0.51547  -0.51329  -0.50781  -0.50497
 Alpha  occ. eigenvalues --   -0.49902  -0.49837  -0.49625  -0.48953  -0.48876
 Alpha  occ. eigenvalues --   -0.48464  -0.48372  -0.48133  -0.47712  -0.46927
 Alpha  occ. eigenvalues --   -0.46416  -0.45656  -0.45572  -0.44958  -0.44771
 Alpha  occ. eigenvalues --   -0.44441  -0.44143  -0.43489  -0.43225  -0.41672
 Alpha  occ. eigenvalues --   -0.39953  -0.39153  -0.39025  -0.38610  -0.38267
 Alpha  occ. eigenvalues --   -0.38084  -0.36673  -0.36506  -0.36178  -0.35974
 Alpha  occ. eigenvalues --   -0.35161  -0.34631  -0.34291  -0.33991  -0.33484
 Alpha  occ. eigenvalues --   -0.33100
 Alpha virt. eigenvalues --   -0.11969  -0.10883  -0.10361  -0.10011  -0.08505
 Alpha virt. eigenvalues --   -0.07537  -0.07276  -0.06979  -0.06485  -0.06121
 Alpha virt. eigenvalues --   -0.02677  -0.01966  -0.01573  -0.01260  -0.01120

 Mulliken charges:
               1
     1  N   -0.603505
     2  H    0.264012
     3  H    0.272233
     4  C   -0.066896
     5  H    0.135480
     6  C    0.591006
     7  C   -0.246696
     8  H    0.154353
     9  H    0.133928
    10  O   -0.506180
    11  C    0.567286
    12  N   -0.558363
    13  H    0.289123
    14  H    0.312483
    15  O   -0.573523
    16  N   -0.519587
    17  H    0.258387
    18  C   -0.018713
    19  H    0.170692
    20  C    0.620866
    21  C   -0.270179
    22  H    0.115773
    23  H    0.145287
    24  O   -0.596782
    25  C    0.114479
    26  C   -0.108568
    27  H    0.116833
    28  C   -0.143159
    29  H    0.067360
    30  C   -0.097693
    31  H    0.113573
    32  C   -0.086974
    33  H    0.084984
    34  C   -0.094677
    35  H    0.106586
    36  N   -0.516528
    37  H    0.322939
    38  C   -0.032815
    39  H    0.141206
    40  C    0.626016
    41  C   -0.290814
    42  H    0.127215
    43  H    0.194959
    44  O   -0.506583
    45  C    0.595412
    46  N   -0.598409
    47  H    0.298206
    48  H    0.288916
    49  O   -0.534164
    50  N   -0.535058
    51  H    0.283677
    52  C    0.015051
    53  H    0.157733
    54  C    0.603071
    55  C   -0.230590
    56  H    0.114636
    57  H    0.154242
    58  O   -0.459269
    59  C   -0.199209
    60  H    0.121646
    61  H    0.129924
    62  C   -0.086622
    63  H    0.144155
    64  H    0.147892
    65  N   -0.523815
    66  H    0.290795
    67  N   -0.647847
    68  H    0.325656
    69  H    0.334276
    70  N   -0.624809
    71  H    0.334550
    72  H    0.294421
    73  C    0.737654
    74  O   -0.475986
    75  H    0.335045
 Sum of Mulliken charges =   1.00000

 Dipole moment (field-independent basis, Debye):
    X=             -9.1110    Y=             15.8503    Z=              3.8964  Tot=             18.6929
 Quadrupole moment (field-independent basis, Debye-Ang):
   XX=           -122.9455   YY=           -127.7393   ZZ=           -214.1657
   XY=            -66.4777   XZ=             -0.5557   YZ=            -11.9959

 Normal termination of Gaussian 16 at Thu Sep  8 16:01:09 2022.
