 Gaussian 16, Revision C.01,
 Gaussian 16:  ES64L-G16RevC.01  3-Jul-2019

 ----------------------------------------------------------------------
 # B3LYP/6-31G** empiricaldispersion=gd3bj guess=read geom=check nosymm
  integral(ultrafinegrid)
 ----------------------------------------------------------------------

 ------------------------------------------------------
 Candidate Structure: Conf:727 Charge calc in gas phase
 ------------------------------------------------------
 Structure from the checkpoint file:  "conf-727.chk"
 Charge =  1 Multiplicity = 1

                          Input orientation:
 ---------------------------------------------------------------------
 Center     Atomic      Atomic             Coordinates (Angstroms)
 Number     Number       Type             X           Y           Z
 ---------------------------------------------------------------------
      1          7           0       -3.403537    3.963494    2.493407
      2          1           0       -4.340233    3.981435    2.096098
      3          1           0       -3.392198    3.138843    3.094876
      4          6           0       -2.440322    3.732522    1.425343
      5          1           0       -2.643420    4.421848    0.600144
      6          6           0       -2.464590    2.282177    0.912372
      7          6           0       -1.028959    4.037468    1.964720
      8          1           0       -1.113180    4.949984    2.567362
      9          1           0       -0.705202    3.236495    2.637087
     10          8           0       -2.839045    1.359564    1.623044
     11          6           0        0.037138    4.282137    0.916008
     12          7           0        1.304618    4.248943    1.340229
     13          1           0        2.082356    4.274184    0.681255
     14          1           0        1.505358    3.890875    2.262036
     15          8           0       -0.256561    4.589751   -0.266144
     16          7           0       -2.015348    2.107924   -0.370296
     17          1           0       -1.495952    2.895651   -0.743834
     18          6           0       -1.563948    0.795623   -0.779434
     19          1           0       -2.285970    0.068233   -0.399041
     20          6           0       -0.192435    0.501146   -0.126441
     21          6           0       -1.523946    0.730996   -2.328459
     22          1           0       -2.494357    1.104369   -2.670810
     23          1           0       -0.765413    1.434053   -2.691912
     24          8           0        0.384137    1.356485    0.557389
     25          6           0       -1.263056   -0.643130   -2.901079
     26          6           0       -0.043090   -0.951714   -3.515312
     27          1           0        0.729086   -0.194545   -3.601350
     28          6           0       -2.223183   -1.656566   -2.764706
     29          1           0       -3.176400   -1.432932   -2.292877
     30          6           0        0.220680   -2.243592   -3.971640
     31          1           0        1.181031   -2.462378   -4.426408
     32          6           0       -1.965172   -2.947081   -3.225140
     33          1           0       -2.719276   -3.719559   -3.113741
     34          6           0       -0.740588   -3.244419   -3.827750
     35          1           0       -0.539382   -4.249970   -4.182984
     36          7           0        0.337892   -0.716478   -0.377151
     37          1           0       -0.138667   -1.303694   -1.049033
     38          6           0        1.738461   -1.047212   -0.091064
     39          1           0        1.970401   -0.740885    0.929569
     40          6           0        2.617088   -0.252313   -1.081536
     41          6           0        1.967858   -2.540956   -0.255173
     42          1           0        1.803523   -2.825529   -1.300297
     43          1           0        1.260186   -3.098935    0.367711
     44          8           0        2.932286   -0.682320   -2.182628
     45          6           0        3.399891   -2.878029    0.155900
     46          7           0        3.775965   -4.166607   -0.050476
     47          1           0        4.723508   -4.427929    0.176438
     48          1           0        3.188684   -4.831906   -0.526165
     49          8           0        4.137654   -2.037672    0.654540
     50          7           0        2.902459    1.013594   -0.645265
     51          1           0        2.326560    1.328048    0.133248
     52          6           0        3.275436    2.044989   -1.602938
     53          1           0        3.853619    1.559520   -2.390750
     54          6           0        4.172378    3.023239   -0.857900
     55          6           0        2.007962    2.711841   -2.164902
     56          1           0        1.525933    1.966566   -2.807021
     57          1           0        1.325268    2.901432   -1.332578
     58          8           0        3.770205    3.928221   -0.141244
     59          6           0        2.214528    4.020491   -2.927605
     60          1           0        2.681932    4.750267   -2.260243
     61          1           0        2.881806    3.889121   -3.787024
     62          6           0        0.859480    4.572259   -3.389854
     63          1           0        0.496546    4.050533   -4.277694
     64          1           0        0.108918    4.427529   -2.609313
     65          7           0        0.902837    6.001390   -3.731148
     66          1           0        0.996460    6.254701   -4.703214
     67          7           0        0.812750    6.746805   -1.531453
     68          1           0        0.952524    7.500938   -0.876676
     69          1           0        0.469332    5.847982   -1.132373
     70          7           0        1.251639    8.238600   -3.247433
     71          1           0        1.102262    9.028759   -2.640412
     72          1           0        1.454328    8.435034   -4.214349
     73          6           0        0.981356    6.985115   -2.827687
     74          8           0        5.468048    2.776471   -1.046619
     75          1           0        5.976192    3.388606   -0.485105
 ---------------------------------------------------------------------

 SCF Done:  E(RB3LYP) =  -1917.64516855     A.U. after    1 cycles

 Alpha  occ. eigenvalues --  -19.30297 -19.25314 -19.23679 -19.21376 -19.19944
 Alpha  occ. eigenvalues --  -19.19078 -19.17996 -14.52236 -14.52185 -14.50287
 Alpha  occ. eigenvalues --  -14.45603 -14.45111 -14.43924 -14.43054 -14.42331
 Alpha  occ. eigenvalues --  -14.38279 -10.48117 -10.42993 -10.40415 -10.37877
 Alpha  occ. eigenvalues --  -10.36772 -10.35903 -10.35568 -10.35513 -10.33198
 Alpha  occ. eigenvalues --  -10.31929 -10.31598 -10.30301 -10.30141 -10.29174
 Alpha  occ. eigenvalues --  -10.28644 -10.28429 -10.28024 -10.27408 -10.26962
 Alpha  occ. eigenvalues --  -10.26825 -10.26813 -10.26709 -10.26657  -1.21633
 Alpha  occ. eigenvalues --   -1.16673  -1.14431  -1.13248  -1.12439  -1.11731
 Alpha  occ. eigenvalues --   -1.10831  -1.09865  -1.06143  -1.04262  -1.01802
 Alpha  occ. eigenvalues --   -1.01356  -1.01113  -1.00283  -0.97120  -0.96143
 Alpha  occ. eigenvalues --   -0.93770  -0.91587  -0.88210  -0.86626  -0.85345
 Alpha  occ. eigenvalues --   -0.84759  -0.82297  -0.81385  -0.81329  -0.77870
 Alpha  occ. eigenvalues --   -0.76229  -0.75210  -0.74161  -0.73845  -0.72327
 Alpha  occ. eigenvalues --   -0.70558  -0.69715  -0.68646  -0.68273  -0.67539
 Alpha  occ. eigenvalues --   -0.66758  -0.66299  -0.65399  -0.65142  -0.64684
 Alpha  occ. eigenvalues --   -0.64102  -0.63645  -0.62873  -0.61448  -0.61142
 Alpha  occ. eigenvalues --   -0.59997  -0.59930  -0.59328  -0.58897  -0.58753
 Alpha  occ. eigenvalues --   -0.58121  -0.57784  -0.57488  -0.57162  -0.56040
 Alpha  occ. eigenvalues --   -0.55514  -0.54336  -0.54049  -0.53845  -0.53599
 Alpha  occ. eigenvalues --   -0.52841  -0.52619  -0.52411  -0.52000  -0.51422
 Alpha  occ. eigenvalues --   -0.50820  -0.50756  -0.50285  -0.50062  -0.49640
 Alpha  occ. eigenvalues --   -0.49245  -0.48614  -0.48210  -0.47920  -0.47739
 Alpha  occ. eigenvalues --   -0.46987  -0.46839  -0.46656  -0.46317  -0.45374
 Alpha  occ. eigenvalues --   -0.45253  -0.44844  -0.44345  -0.43967  -0.43248
 Alpha  occ. eigenvalues --   -0.43023  -0.42637  -0.42506  -0.42335  -0.41933
 Alpha  occ. eigenvalues --   -0.41576  -0.40602  -0.39161  -0.38185  -0.37465
 Alpha  occ. eigenvalues --   -0.36725  -0.35611  -0.34411  -0.34122  -0.33439
 Alpha  occ. eigenvalues --   -0.33104  -0.32981  -0.32467  -0.31990  -0.31818
 Alpha  occ. eigenvalues --   -0.30967
 Alpha virt. eigenvalues --   -0.11850  -0.10507  -0.09188  -0.08955  -0.08740
 Alpha virt. eigenvalues --   -0.08216  -0.07386  -0.05728  -0.05225  -0.04784
 Alpha virt. eigenvalues --   -0.03820  -0.03716  -0.02524  -0.01587  -0.01126

 Mulliken charges:
               1
     1  N   -0.583039
     2  H    0.250556
     3  H    0.261253
     4  C   -0.054397
     5  H    0.114099
     6  C    0.584458
     7  C   -0.248692
     8  H    0.165366
     9  H    0.146308
    10  O   -0.514764
    11  C    0.626463
    12  N   -0.603873
    13  H    0.319443
    14  H    0.291224
    15  O   -0.617282
    16  N   -0.520617
    17  H    0.274656
    18  C   -0.038873
    19  H    0.166431
    20  C    0.629195
    21  C   -0.246859
    22  H    0.141470
    23  H    0.085179
    24  O   -0.569074
    25  C    0.058363
    26  C   -0.128342
    27  H    0.097139
    28  C   -0.121886
    29  H    0.100693
    30  C   -0.085722
    31  H    0.113415
    32  C   -0.083954
    33  H    0.108665
    34  C   -0.091674
    35  H    0.105023
    36  N   -0.525469
    37  H    0.288702
    38  C   -0.002419
    39  H    0.156509
    40  C    0.638040
    41  C   -0.306946
    42  H    0.148890
    43  H    0.143924
    44  O   -0.531809
    45  C    0.609190
    46  N   -0.614845
    47  H    0.289454
    48  H    0.276732
    49  O   -0.508248
    50  N   -0.528772
    51  H    0.291748
    52  C   -0.004413
    53  H    0.167175
    54  C    0.596471
    55  C   -0.209701
    56  H    0.127215
    57  H    0.133281
    58  O   -0.498921
    59  C   -0.198404
    60  H    0.123748
    61  H    0.120700
    62  C   -0.101875
    63  H    0.144635
    64  H    0.164250
    65  N   -0.530597
    66  H    0.292104
    67  N   -0.638110
    68  H    0.297738
    69  H    0.373966
    70  N   -0.627325
    71  H    0.313082
    72  H    0.309650
    73  C    0.796188
    74  O   -0.444754
    75  H    0.338863
 Sum of Mulliken charges =   1.00000

 Dipole moment (field-independent basis, Debye):
    X=              5.7682    Y=             22.0166    Z=            -12.7448  Tot=             26.0851
 Quadrupole moment (field-independent basis, Debye-Ang):
   XX=           -205.6217   YY=              3.1484   ZZ=           -176.6705
   XY=             32.9331   XZ=             -6.5499   YZ=            -66.9578

 Normal termination of Gaussian 16 at Thu Sep  8 16:00:51 2022.
