 Gaussian 16, Revision C.01,
 Gaussian 16:  ES64L-G16RevC.01  3-Jul-2019

 ----------------------------------------------------------------------
 # B3LYP/6-31G** empiricaldispersion=gd3bj guess=read geom=check nosymm
  integral(ultrafinegrid)
 ----------------------------------------------------------------------

 ------------------------------------------------------
 Candidate Structure: Conf:880 Charge calc in gas phase
 ------------------------------------------------------
 Structure from the checkpoint file:  "conf-880.chk"
 Charge =  1 Multiplicity = 1

                          Input orientation:
 ---------------------------------------------------------------------
 Center     Atomic      Atomic             Coordinates (Angstroms)
 Number     Number       Type             X           Y           Z
 ---------------------------------------------------------------------
      1          7           0       29.542462  -32.288990   40.993759
      2          6           0       30.761625  -31.685864   41.497293
      3          6           0       31.556093  -32.602404   42.449531
      4          8           0       31.295892  -33.782994   42.623116
      5          6           0       31.662760  -31.235700   40.314248
      6          6           0       31.420112  -29.826844   39.818338
      7          6           0       31.374017  -28.732967   40.698639
      8          6           0       31.309154  -29.558454   38.452060
      9          6           0       31.248486  -27.424687   40.238472
     10          6           0       31.175107  -28.256234   37.972174
     11          6           0       31.151392  -27.180155   38.863374
     12          8           0       31.030423  -25.884128   38.467645
     13          1           0       30.482934  -30.801227   42.081297
     14          1           0       32.721185  -31.329157   40.590763
     15          1           0       31.505735  -31.944070   39.495533
     16          1           0       31.408503  -28.898844   41.772597
     17          1           0       31.326182  -30.381750   37.744111
     18          1           0       31.199594  -26.585744   40.924037
     19          1           0       31.084753  -28.078722   36.903452
     20          1           0       30.933497  -25.845045   37.506868
     21          1           0       29.754252  -33.240022   40.694819
     22          1           0       28.873681  -32.394206   41.752844
     23          7           0       32.592797  -31.969900   43.105265
     24          6           0       33.598336  -32.760460   43.818222
     25          6           0       34.896999  -31.975438   43.848186
     26          8           0       35.992082  -32.517344   43.617314
     27          6           0       33.116811  -33.206936   45.229500
     28          6           0       32.716911  -32.037003   46.131363
     29          6           0       34.157403  -34.110826   45.896355
     30          1           0       32.900794  -31.098569   42.691985
     31          1           0       33.814253  -33.671238   43.250784
     32          1           0       32.222439  -33.800594   45.016123
     33          1           0       32.232338  -32.409972   47.037418
     34          1           0       33.587854  -31.451721   46.450152
     35          1           0       32.007501  -31.371315   45.629972
     36          1           0       34.430359  -34.952575   45.252964
     37          1           0       33.763601  -34.516527   46.831832
     38          1           0       35.075017  -33.560471   46.135999
     39          7           0       34.805143  -30.651362   44.129295
     40          6           0       35.778079  -29.668580   43.666715
     41          6           0       35.164726  -28.751192   42.596033
     42          8           0       35.657698  -27.706297   42.255094
     43          6           0       36.396302  -28.832938   44.799055
     44          6           0       37.164009  -29.625452   45.866033
     45          6           0       38.505729  -30.227306   45.429727
     46          7           0       38.298917  -31.394469   44.570086
     47          6           0       39.207256  -31.967510   43.790430
     48          7           0       40.504892  -31.632621   43.869849
     49          7           0       38.802972  -32.877609   42.888873
     50          8           0       34.034890  -29.273519   42.070118
     51          1           0       33.666069  -28.672338   41.391305
     52          1           0       33.881591  -30.301374   44.347980
     53          1           0       36.558920  -30.230938   43.147088
     54          1           0       35.590495  -28.280957   45.295810
     55          1           0       37.041584  -28.080125   44.337797
     56          1           0       36.531487  -30.420023   46.280827
     57          1           0       37.378246  -28.947333   46.697123
     58          1           0       39.072005  -30.523742   46.321304
     59          1           0       39.094409  -29.476817   44.887031
     60          1           0       37.349859  -31.774923   44.453093
     61          1           0       41.172241  -31.965165   43.192257
     62          1           0       40.841943  -31.035514   44.607108
     63          1           0       39.458979  -33.523355   42.478879
     64          1           0       37.812619  -33.095070   42.837745
 ---------------------------------------------------------------------

 SCF Done:  E(RB3LYP) =  -1486.69437003     A.U. after    2 cycles

 Alpha  occ. eigenvalues --  -19.31680 -19.26536 -19.25697 -19.24650 -19.20473
 Alpha  occ. eigenvalues --  -14.52806 -14.51381 -14.51102 -14.49802 -14.45038
 Alpha  occ. eigenvalues --  -14.38160 -10.48277 -10.44030 -10.42786 -10.37013
 Alpha  occ. eigenvalues --  -10.36953 -10.36694 -10.33540 -10.32202 -10.32181
 Alpha  occ. eigenvalues --  -10.31555 -10.30138 -10.28727 -10.27175 -10.26943
 Alpha  occ. eigenvalues --  -10.26873 -10.26688 -10.26446 -10.26384 -10.26260
 Alpha  occ. eigenvalues --  -10.26220  -1.22299  -1.17986  -1.16891  -1.13617
 Alpha  occ. eigenvalues --   -1.12877  -1.12279  -1.06792  -1.06227  -1.05102
 Alpha  occ. eigenvalues --   -1.01740  -0.96199  -0.93381  -0.92748  -0.90345
 Alpha  occ. eigenvalues --   -0.88473  -0.85057  -0.82946  -0.82366  -0.81321
 Alpha  occ. eigenvalues --   -0.79025  -0.78289  -0.77506  -0.75390  -0.74119
 Alpha  occ. eigenvalues --   -0.73070  -0.72206  -0.71992  -0.70627  -0.69500
 Alpha  occ. eigenvalues --   -0.68120  -0.66472  -0.66059  -0.65126  -0.64982
 Alpha  occ. eigenvalues --   -0.64322  -0.62804  -0.62159  -0.61772  -0.60728
 Alpha  occ. eigenvalues --   -0.60162  -0.58776  -0.58421  -0.57895  -0.57040
 Alpha  occ. eigenvalues --   -0.56049  -0.55946  -0.55796  -0.55052  -0.54535
 Alpha  occ. eigenvalues --   -0.54194  -0.53556  -0.52890  -0.52047  -0.51831
 Alpha  occ. eigenvalues --   -0.51359  -0.51006  -0.50580  -0.49519  -0.48919
 Alpha  occ. eigenvalues --   -0.48416  -0.48034  -0.47945  -0.47439  -0.47222
 Alpha  occ. eigenvalues --   -0.47125  -0.46781  -0.46502  -0.45258  -0.43787
 Alpha  occ. eigenvalues --   -0.43664  -0.43540  -0.43306  -0.43208  -0.42774
 Alpha  occ. eigenvalues --   -0.41898  -0.41670  -0.40806  -0.40643  -0.39920
 Alpha  occ. eigenvalues --   -0.39813  -0.37895  -0.34814  -0.34125  -0.32924
 Alpha  occ. eigenvalues --   -0.30984  -0.28926
 Alpha virt. eigenvalues --   -0.12888  -0.12175  -0.10892  -0.08556  -0.08004
 Alpha virt. eigenvalues --   -0.06663  -0.06225  -0.04680  -0.03877  -0.02764
 Alpha virt. eigenvalues --   -0.02044  -0.01392  -0.00348   0.00529   0.00706

 Mulliken charges:
               1
     1  N   -0.569266
     2  C   -0.033947
     3  C    0.550188
     4  O   -0.498149
     5  C   -0.249778
     6  C    0.151066
     7  C   -0.193455
     8  C   -0.133158
     9  C   -0.102452
    10  C   -0.123791
    11  C    0.332912
    12  O   -0.548710
    13  H    0.120935
    14  H    0.094864
    15  H    0.126573
    16  H    0.076034
    17  H    0.097892
    18  H    0.109194
    19  H    0.094345
    20  H    0.325899
    21  H    0.254505
    22  H    0.251282
    23  N   -0.577556
    24  C    0.025247
    25  C    0.588732
    26  O   -0.585438
    27  C   -0.062246
    28  C   -0.339039
    29  C   -0.319961
    30  H    0.287778
    31  H    0.150361
    32  H    0.152585
    33  H    0.133870
    34  H    0.088395
    35  H    0.113461
    36  H    0.119509
    37  H    0.127520
    38  H    0.087369
    39  N   -0.495244
    40  C   -0.048831
    41  C    0.606568
    42  O   -0.429212
    43  C   -0.175528
    44  C   -0.243352
    45  C   -0.059963
    46  N   -0.551733
    47  C    0.790076
    48  N   -0.619771
    49  N   -0.632466
    50  O   -0.507212
    51  H    0.347273
    52  H    0.286618
    53  H    0.155069
    54  H    0.129190
    55  H    0.150154
    56  H    0.132488
    57  H    0.146176
    58  H    0.145939
    59  H    0.137568
    60  H    0.332670
    61  H    0.315472
    62  H    0.318068
    63  H    0.306127
    64  H    0.340284
 Sum of Mulliken charges =   1.00000

 Dipole moment (field-independent basis, Debye):
    X=            180.6188    Y=           -149.1246    Z=            209.2318  Tot=            314.0689
 Quadrupole moment (field-independent basis, Debye-Ang):
   XX=           6664.3817   YY=           4454.4810   ZZ=           8974.5272
   XY=          -5629.4566   XZ=           7882.8937   YZ=          -6500.5445

 Normal termination of Gaussian 16 at Thu Sep  8 16:02:50 2022.
