 Gaussian 16, Revision C.01,
 Gaussian 16:  ES64L-G16RevC.01  3-Jul-2019

 ----------------------------------------------------------------------
 # B3LYP/6-31G** empiricaldispersion=gd3bj guess=read geom=check nosymm
  integral(ultrafinegrid)
 ----------------------------------------------------------------------

 ------------------------------------------------------
 Candidate Structure: Conf:684 Charge calc in gas phase
 ------------------------------------------------------
 Structure from the checkpoint file:  "conf-684.chk"
 Charge =  1 Multiplicity = 1

                          Input orientation:
 ---------------------------------------------------------------------
 Center     Atomic      Atomic             Coordinates (Angstroms)
 Number     Number       Type             X           Y           Z
 ---------------------------------------------------------------------
      1          7           0       -4.807646    2.417009    2.703259
      2          1           0       -5.271259    2.497256    1.799705
      3          1           0       -5.045781    1.479965    3.029788
      4          6           0       -3.371946    2.448830    2.478805
      5          1           0       -3.133071    3.309835    1.848159
      6          6           0       -2.865611    1.168522    1.786576
      7          6           0       -2.647612    2.641038    3.823514
      8          1           0       -3.110055    3.497900    4.326643
      9          1           0       -2.807451    1.766164    4.462940
     10          8           0       -3.471896    0.109008    1.876644
     11          6           0       -1.167803    2.930315    3.669011
     12          7           0       -0.362504    2.483502    4.649802
     13          1           0        0.629219    2.664833    4.606487
     14          1           0       -0.721215    1.956081    5.430273
     15          8           0       -0.731732    3.573219    2.698039
     16          7           0       -1.697079    1.307158    1.093069
     17          1           0       -1.258139    2.216761    1.082697
     18          6           0       -1.248853    0.291445    0.175275
     19          1           0       -1.713397   -0.642454    0.500358
     20          6           0        0.269568    0.170399    0.225624
     21          6           0       -1.706870    0.585557   -1.290269
     22          1           0       -1.103917    1.410208   -1.685341
     23          1           0       -1.493137   -0.294575   -1.905232
     24          8           0        0.996593    1.135926    0.555619
     25          6           0       -3.168099    0.951206   -1.337108
     26          6           0       -4.152679   -0.041231   -1.372445
     27          1           0       -3.859084   -1.084753   -1.441448
     28          6           0       -3.563419    2.289554   -1.233510
     29          1           0       -2.807591    3.071073   -1.204438
     30          6           0       -5.502372    0.295528   -1.297538
     31          1           0       -6.254711   -0.485907   -1.322504
     32          6           0       -4.913620    2.633096   -1.156633
     33          1           0       -5.204841    3.676659   -1.084963
     34          6           0       -5.886979    1.632851   -1.184220
     35          1           0       -6.938768    1.894455   -1.127977
     36          7           0        0.748614   -1.012449   -0.161272
     37          1           0        0.125956   -1.749274   -0.518498
     38          6           0        2.166748   -1.362783   -0.259132
     39          1           0        2.670053   -1.007752    0.646371
     40          6           0        2.831469   -0.700074   -1.486935
     41          6           0        2.302131   -2.888652   -0.360761
     42          1           0        1.966483   -3.335396    0.580523
     43          1           0        3.354589   -3.141903   -0.496547
     44          8           0        3.039584   -1.317372   -2.522686
     45          6           0        1.427612   -3.482651   -1.464128
     46          7           0        2.027922   -4.330656   -2.324697
     47          1           0        1.466928   -4.670557   -3.093760
     48          1           0        3.024985   -4.280293   -2.465216
     49          8           0        0.212952   -3.253117   -1.497516
     50          7           0        3.160675    0.605312   -1.291677
     51          1           0        2.798635    1.047167   -0.451294
     52          6           0        3.699428    1.442533   -2.354911
     53          1           0        3.593981    0.870678   -3.282115
     54          6           0        5.191830    1.677971   -2.101185
     55          6           0        2.965938    2.785748   -2.413834
     56          1           0        3.199894    3.304123   -1.477541
     57          1           0        3.406281    3.391821   -3.210897
     58          8           0        5.673356    2.742490   -1.779522
     59          6           0        1.449407    2.648227   -2.594341
     60          1           0        1.176553    2.665500   -3.654084
     61          1           0        1.119273    1.680272   -2.207756
     62          6           0        0.653831    3.742089   -1.872839
     63          1           0        0.871569    4.733899   -2.275296
     64          1           0       -0.419038    3.582164   -2.021085
     65          7           0        0.909159    3.747683   -0.428450
     66          1           0        0.760831    2.856202    0.067448
     67          7           0        2.179412    5.707535   -0.380095
     68          1           0        2.531186    6.495098    0.140247
     69          1           0        2.528143    5.582833   -1.316724
     70          7           0        1.513990    4.675018    1.589122
     71          1           0        2.091033    5.319158    2.106691
     72          1           0        0.752227    4.183363    2.088037
     73          6           0        1.535623    4.706281    0.254407
     74          8           0        5.902132    0.548018   -2.250905
     75          1           0        6.829828    0.764518   -2.053367
 ---------------------------------------------------------------------

 SCF Done:  E(RB3LYP) =  -1917.65183126     A.U. after    3 cycles

 Alpha  occ. eigenvalues --  -19.28591 -19.24141 -19.24041 -19.23265 -19.21597
 Alpha  occ. eigenvalues --  -19.20935 -19.19539 -14.50921 -14.49501 -14.48879
 Alpha  occ. eigenvalues --  -14.47784 -14.46607 -14.45880 -14.44290 -14.44135
 Alpha  occ. eigenvalues --  -14.38477 -10.46445 -10.41245 -10.41157 -10.40118
 Alpha  occ. eigenvalues --  -10.38571 -10.38541 -10.36245 -10.35110 -10.34347
 Alpha  occ. eigenvalues --  -10.33604 -10.32873 -10.30644 -10.30033 -10.29777
 Alpha  occ. eigenvalues --  -10.29776 -10.29301 -10.28804 -10.27407 -10.26773
 Alpha  occ. eigenvalues --  -10.26504 -10.26170 -10.26149 -10.26018  -1.19735
 Alpha  occ. eigenvalues --   -1.15522  -1.15207  -1.14821  -1.13495  -1.12541
 Alpha  occ. eigenvalues --   -1.11551  -1.10775  -1.04434  -1.03626  -1.03019
 Alpha  occ. eigenvalues --   -1.02708  -1.02471  -1.01287  -0.99371  -0.96558
 Alpha  occ. eigenvalues --   -0.93196  -0.91344  -0.89467  -0.87165  -0.86154
 Alpha  occ. eigenvalues --   -0.85497  -0.82120  -0.81785  -0.80445  -0.77651
 Alpha  occ. eigenvalues --   -0.76744  -0.75855  -0.73872  -0.73050  -0.71826
 Alpha  occ. eigenvalues --   -0.71268  -0.69489  -0.69060  -0.68262  -0.68152
 Alpha  occ. eigenvalues --   -0.67980  -0.67374  -0.66715  -0.66092  -0.65026
 Alpha  occ. eigenvalues --   -0.64741  -0.63939  -0.63265  -0.62497  -0.61260
 Alpha  occ. eigenvalues --   -0.60276  -0.59710  -0.59577  -0.59159  -0.58578
 Alpha  occ. eigenvalues --   -0.58289  -0.57885  -0.57215  -0.57000  -0.56421
 Alpha  occ. eigenvalues --   -0.55749  -0.55584  -0.54843  -0.54446  -0.54078
 Alpha  occ. eigenvalues --   -0.53465  -0.52864  -0.52668  -0.52467  -0.52149
 Alpha  occ. eigenvalues --   -0.51763  -0.51320  -0.50992  -0.49800  -0.49665
 Alpha  occ. eigenvalues --   -0.49367  -0.49128  -0.48914  -0.48706  -0.48579
 Alpha  occ. eigenvalues --   -0.48245  -0.47830  -0.47522  -0.47100  -0.46319
 Alpha  occ. eigenvalues --   -0.46121  -0.45787  -0.45442  -0.44876  -0.44639
 Alpha  occ. eigenvalues --   -0.43247  -0.42800  -0.41785  -0.41720  -0.41360
 Alpha  occ. eigenvalues --   -0.40880  -0.39391  -0.39180  -0.38775  -0.38342
 Alpha  occ. eigenvalues --   -0.38252  -0.37696  -0.35915  -0.34871  -0.34755
 Alpha  occ. eigenvalues --   -0.34417  -0.33974  -0.33776  -0.32272  -0.32011
 Alpha  occ. eigenvalues --   -0.31059
 Alpha virt. eigenvalues --   -0.11110  -0.10041  -0.09493  -0.09269  -0.07685
 Alpha virt. eigenvalues --   -0.07512  -0.06951  -0.06900  -0.06492  -0.05829
 Alpha virt. eigenvalues --   -0.03806  -0.02925  -0.02612  -0.00851  -0.00277

 Mulliken charges:
               1
     1  N   -0.583717
     2  H    0.253132
     3  H    0.258816
     4  C   -0.039488
     5  H    0.118581
     6  C    0.579869
     7  C   -0.247017
     8  H    0.175604
     9  H    0.125673
    10  O   -0.517918
    11  C    0.610541
    12  N   -0.587063
    13  H    0.286886
    14  H    0.300528
    15  O   -0.569510
    16  N   -0.530536
    17  H    0.273714
    18  C   -0.019573
    19  H    0.167455
    20  C    0.626791
    21  C   -0.260416
    22  H    0.086800
    23  H    0.136716
    24  O   -0.603739
    25  C    0.123066
    26  C   -0.091064
    27  H    0.097671
    28  C   -0.127843
    29  H    0.062102
    30  C   -0.078254
    31  H    0.107186
    32  C   -0.100243
    33  H    0.098187
    34  C   -0.089904
    35  H    0.105255
    36  N   -0.521968
    37  H    0.327374
    38  C   -0.037680
    39  H    0.140159
    40  C    0.623495
    41  C   -0.277765
    42  H    0.157178
    43  H    0.132253
    44  O   -0.509203
    45  C    0.617302
    46  N   -0.585234
    47  H    0.293432
    48  H    0.292905
    49  O   -0.539537
    50  N   -0.537621
    51  H    0.285147
    52  C   -0.013004
    53  H    0.170292
    54  C    0.599691
    55  C   -0.200549
    56  H    0.100570
    57  H    0.132436
    58  O   -0.464467
    59  C   -0.199881
    60  H    0.135140
    61  H    0.125872
    62  C   -0.096445
    63  H    0.126025
    64  H    0.151387
    65  N   -0.536383
    66  H    0.331709
    67  N   -0.609649
    68  H    0.306378
    69  H    0.311087
    70  N   -0.637233
    71  H    0.289057
    72  H    0.346867
    73  C    0.756092
    74  O   -0.468319
    75  H    0.334797
 Sum of Mulliken charges =   1.00000

 Dipole moment (field-independent basis, Debye):
    X=              8.0449    Y=             12.6596    Z=              2.5529  Tot=             15.2152
 Quadrupole moment (field-independent basis, Debye-Ang):
   XX=           -183.3479   YY=           -131.0582   ZZ=           -176.9865
   XY=             10.3940   XZ=             -0.4343   YZ=             15.2221

 Normal termination of Gaussian 16 at Thu Sep  8 16:01:44 2022.
