 Gaussian 16, Revision C.01,
 Gaussian 16:  ES64L-G16RevC.01  3-Jul-2019

 ----------------------------------------------------------------------
 # B3LYP/6-31G** empiricaldispersion=gd3bj guess=read geom=check nosymm
  integral(ultrafinegrid)
 ----------------------------------------------------------------------

 ------------------------------------------------------
 Candidate Structure: Conf:950 Charge calc in gas phase
 ------------------------------------------------------
 Structure from the checkpoint file:  "conf-950.chk"
 Charge =  1 Multiplicity = 1

                          Input orientation:
 ---------------------------------------------------------------------
 Center     Atomic      Atomic             Coordinates (Angstroms)
 Number     Number       Type             X           Y           Z
 ---------------------------------------------------------------------
      1          7           0       -3.321006   -2.593071    0.809096
      2          1           0       -4.306022   -2.341605    0.830247
      3          1           0       -3.082088   -2.714900   -0.174095
      4          6           0       -2.512268   -1.507748    1.348620
      5          1           0       -2.971890   -1.163498    2.282515
      6          6           0       -2.379781   -0.320661    0.374808
      7          6           0       -1.073136   -1.983129    1.656110
      8          1           0       -0.610894   -2.346361    0.729045
      9          1           0       -0.482260   -1.142187    2.018935
     10          8           0       -2.580233   -0.462369   -0.834279
     11          6           0       -0.882171   -3.052455    2.735057
     12          7           0       -1.834025   -3.998966    2.806731
     13          1           0       -1.728518   -4.739846    3.484249
     14          1           0       -2.615143   -3.966314    2.154791
     15          8           0        0.118522   -3.015952    3.453298
     16          7           0       -1.924469    0.839313    0.925530
     17          1           0       -1.801310    0.889017    1.929257
     18          6           0       -1.457490    1.957186    0.118158
     19          1           0       -1.811081    1.732517   -0.885501
     20          6           0        0.077243    2.027419    0.026777
     21          6           0       -2.055196    3.323659    0.557645
     22          1           0       -2.927901    3.116168    1.182946
     23          1           0       -1.330918    3.867322    1.168396
     24          8           0        0.630135    2.995052   -0.503022
     25          6           0       -2.482382    4.153768   -0.633214
     26          6           0       -3.780464    4.019996   -1.146969
     27          1           0       -4.494253    3.378653   -0.635729
     28          6           0       -1.586900    5.013757   -1.284171
     29          1           0       -0.580261    5.118188   -0.896460
     30          6           0       -4.171886    4.711015   -2.297916
     31          1           0       -5.183590    4.602048   -2.675719
     32          6           0       -1.978068    5.706678   -2.433759
     33          1           0       -1.274797    6.373385   -2.922753
     34          6           0       -3.266449    5.550646   -2.949696
     35          1           0       -3.567707    6.090997   -3.840778
     36          7           0        0.751201    0.970227    0.517066
     37          1           0        0.215710    0.213352    0.909775
     38          6           0        2.187006    0.984375    0.821822
     39          1           0        2.448602    2.018949    1.062930
     40          6           0        2.985975    0.507108   -0.399436
     41          6           0        2.416259    0.103849    2.046030
     42          1           0        3.478389    0.118967    2.304653
     43          1           0        2.167941   -0.939104    1.825360
     44          8           0        3.672192   -0.506857   -0.387080
     45          6           0        1.611127    0.664134    3.219910
     46          7           0        0.934503   -0.252531    3.961822
     47          1           0        0.499297    0.082512    4.810081
     48          1           0        0.969328   -1.259849    3.808397
     49          8           0        1.553334    1.870583    3.428894
     50          7           0        2.820959    1.286055   -1.505190
     51          1           0        2.208774    2.098317   -1.453400
     52          6           0        3.336900    0.842324   -2.785036
     53          1           0        4.410799    0.656240   -2.702781
     54          6           0        3.125716    1.941615   -3.802802
     55          6           0        2.678441   -0.492463   -3.264713
     56          1           0        2.989201   -0.692497   -4.296441
     57          1           0        3.119141   -1.269695   -2.639951
     58          8           0        2.160735    2.692166   -3.839393
     59          6           0        1.150936   -0.534656   -3.113053
     60          1           0        0.831582   -1.567683   -2.941850
     61          1           0        0.863685    0.023357   -2.216747
     62          6           0        0.376606    0.021481   -4.315962
     63          1           0        0.839496    0.924109   -4.714603
     64          1           0        0.361266   -0.699795   -5.136626
     65          7           0       -1.017620    0.329996   -3.992273
     66          1           0       -1.704953   -0.403398   -4.086543
     67          7           0       -0.682929    2.554778   -3.376743
     68          1           0       -1.006443    3.352154   -2.838644
     69          1           0        0.312344    2.545778   -3.598614
     70          7           0       -2.762074    1.540632   -3.101153
     71          1           0       -3.110204    2.432303   -2.762137
     72          1           0       -3.100047    0.735452   -2.580633
     73          6           0       -1.460510    1.482679   -3.478065
     74          8           0        4.098875    1.976955   -4.711651
     75          1           0        3.886193    2.673410   -5.358339
 ---------------------------------------------------------------------

 SCF Done:  E(RB3LYP) =  -1917.65742342     A.U. after    3 cycles

 Alpha  occ. eigenvalues --  -19.31971 -19.26950 -19.25522 -19.23496 -19.21110
 Alpha  occ. eigenvalues --  -19.20769 -19.18822 -14.50963 -14.49510 -14.49253
 Alpha  occ. eigenvalues --  -14.48778 -14.47696 -14.45290 -14.44146 -14.44029
 Alpha  occ. eigenvalues --  -14.42934 -10.46256 -10.44737 -10.41936 -10.40533
 Alpha  occ. eigenvalues --  -10.38588 -10.38083 -10.36803 -10.35597 -10.35304
 Alpha  occ. eigenvalues --  -10.35220 -10.34551 -10.33271 -10.30982 -10.30809
 Alpha  occ. eigenvalues --  -10.30627 -10.30157 -10.29904 -10.29843 -10.29785
 Alpha  occ. eigenvalues --  -10.29622 -10.29470 -10.29176 -10.28348  -1.23358
 Alpha  occ. eigenvalues --   -1.17045  -1.15398  -1.15061  -1.14175  -1.13053
 Alpha  occ. eigenvalues --   -1.12350  -1.10807  -1.06369  -1.04702  -1.03861
 Alpha  occ. eigenvalues --   -1.02495  -1.02306  -1.01767  -0.99006  -0.97658
 Alpha  occ. eigenvalues --   -0.96601  -0.91480  -0.90909  -0.88349  -0.87738
 Alpha  occ. eigenvalues --   -0.86465  -0.85163  -0.84297  -0.81253  -0.78666
 Alpha  occ. eigenvalues --   -0.77783  -0.76789  -0.75903  -0.73531  -0.71931
 Alpha  occ. eigenvalues --   -0.71751  -0.71528  -0.71122  -0.70161  -0.68743
 Alpha  occ. eigenvalues --   -0.68325  -0.68142  -0.67222  -0.66629  -0.65696
 Alpha  occ. eigenvalues --   -0.64296  -0.63802  -0.63287  -0.63173  -0.62452
 Alpha  occ. eigenvalues --   -0.61749  -0.61422  -0.61313  -0.60406  -0.59913
 Alpha  occ. eigenvalues --   -0.59716  -0.59171  -0.58326  -0.57877  -0.57025
 Alpha  occ. eigenvalues --   -0.56750  -0.56241  -0.56166  -0.55846  -0.55736
 Alpha  occ. eigenvalues --   -0.55151  -0.54579  -0.54194  -0.53741  -0.53241
 Alpha  occ. eigenvalues --   -0.52920  -0.52328  -0.52209  -0.51973  -0.51713
 Alpha  occ. eigenvalues --   -0.51241  -0.50844  -0.50437  -0.49624  -0.49430
 Alpha  occ. eigenvalues --   -0.48916  -0.48314  -0.48116  -0.47718  -0.47132
 Alpha  occ. eigenvalues --   -0.46641  -0.46421  -0.46124  -0.45952  -0.45433
 Alpha  occ. eigenvalues --   -0.44969  -0.44844  -0.44636  -0.44086  -0.43884
 Alpha  occ. eigenvalues --   -0.41380  -0.40863  -0.40461  -0.39750  -0.39226
 Alpha  occ. eigenvalues --   -0.38489  -0.37380  -0.36841  -0.36178  -0.35785
 Alpha  occ. eigenvalues --   -0.35151  -0.34879  -0.34776  -0.34288  -0.34073
 Alpha  occ. eigenvalues --   -0.32675
 Alpha virt. eigenvalues --   -0.12117  -0.11901  -0.11438  -0.11259  -0.11004
 Alpha virt. eigenvalues --   -0.09546  -0.07402  -0.06887  -0.05524  -0.05210
 Alpha virt. eigenvalues --   -0.04537  -0.03202  -0.02194  -0.01451  -0.00835

 Mulliken charges:
               1
     1  N   -0.595387
     2  H    0.268396
     3  H    0.266402
     4  C   -0.046045
     5  H    0.132017
     6  C    0.572425
     7  C   -0.274813
     8  H    0.145652
     9  H    0.117835
    10  O   -0.548300
    11  C    0.583676
    12  N   -0.591138
    13  H    0.290557
    14  H    0.308181
    15  O   -0.525567
    16  N   -0.557159
    17  H    0.290080
    18  C    0.007251
    19  H    0.135405
    20  C    0.627688
    21  C   -0.251572
    22  H    0.127151
    23  H    0.155454
    24  O   -0.550139
    25  C    0.105256
    26  C   -0.169085
    27  H    0.100103
    28  C   -0.149650
    29  H    0.138205
    30  C   -0.096770
    31  H    0.118612
    32  C   -0.101648
    33  H    0.120741
    34  C   -0.077715
    35  H    0.119663
    36  N   -0.535489
    37  H    0.283228
    38  C   -0.026533
    39  H    0.182376
    40  C    0.618066
    41  C   -0.284170
    42  H    0.176390
    43  H    0.126346
    44  O   -0.512591
    45  C    0.545535
    46  N   -0.631063
    47  H    0.278494
    48  H    0.317948
    49  O   -0.512943
    50  N   -0.568865
    51  H    0.303249
    52  C    0.046026
    53  H    0.171579
    54  C    0.583550
    55  C   -0.219485
    56  H    0.121209
    57  H    0.170605
    58  O   -0.503957
    59  C   -0.183203
    60  H    0.120761
    61  H    0.113512
    62  C   -0.092670
    63  H    0.132744
    64  H    0.147733
    65  N   -0.511519
    66  H    0.298026
    67  N   -0.615270
    68  H    0.310147
    69  H    0.347880
    70  N   -0.625779
    71  H    0.299042
    72  H    0.312792
    73  C    0.725416
    74  O   -0.448855
    75  H    0.343978
 Sum of Mulliken charges =   1.00000

 Dipole moment (field-independent basis, Debye):
    X=             -8.7101    Y=              2.9992    Z=            -10.5579  Tot=             14.0118
 Quadrupole moment (field-independent basis, Debye-Ang):
   XX=           -184.8585   YY=           -191.0975   ZZ=           -161.0413
   XY=              3.6922   XZ=            -17.9292   YZ=            -30.8460

 Normal termination of Gaussian 16 at Thu Sep  8 16:03:47 2022.
