 Gaussian 16, Revision C.01,
 Gaussian 16:  ES64L-G16RevC.01  3-Jul-2019

 ----------------------------------------------------------------------
 # B3LYP/6-31G** empiricaldispersion=gd3bj guess=read geom=check nosymm
  integral(ultrafinegrid)
 ----------------------------------------------------------------------

 ------------------------------------------------------
 Candidate Structure: Conf:472 Charge calc in gas phase
 ------------------------------------------------------
 Structure from the checkpoint file:  "conf-472.chk"
 Charge =  1 Multiplicity = 1

                          Input orientation:
 ---------------------------------------------------------------------
 Center     Atomic      Atomic             Coordinates (Angstroms)
 Number     Number       Type             X           Y           Z
 ---------------------------------------------------------------------
      1          7           0       -5.099490   -0.708448    2.856383
      2          1           0       -5.626603   -0.863062    1.999619
      3          1           0       -5.744735   -0.757476    3.639501
      4          6           0       -4.483940    0.620246    2.792662
      5          1           0       -5.195773    1.432138    3.014964
      6          6           0       -4.032378    0.845375    1.342005
      7          6           0       -3.319070    0.714289    3.804167
      8          1           0       -3.021195    1.749661    3.983793
      9          1           0       -3.667860    0.316893    4.762963
     10          8           0       -4.597310    0.257857    0.408702
     11          6           0       -2.076506   -0.049278    3.345375
     12          7           0       -2.305640   -1.333445    2.982640
     13          1           0       -1.527029   -1.878868    2.633496
     14          1           0       -3.262622   -1.682453    3.011906
     15          8           0       -0.978564    0.503773    3.268640
     16          7           0       -3.008406    1.705667    1.137548
     17          1           0       -2.506015    2.089145    1.926385
     18          6           0       -2.478339    1.921502   -0.201975
     19          1           0       -2.753683    1.029265   -0.761973
     20          6           0       -0.946146    1.955029   -0.182895
     21          6           0       -3.073375    3.121008   -0.955192
     22          1           0       -4.125308    3.203905   -0.667885
     23          1           0       -2.559878    4.038272   -0.661917
     24          8           0       -0.309450    2.913518   -0.618514
     25          6           0       -2.966260    2.886606   -2.446500
     26          6           0       -3.827902    1.959724   -3.057436
     27          1           0       -4.595361    1.473712   -2.457201
     28          6           0       -2.004964    3.532618   -3.229465
     29          1           0       -1.308654    4.218918   -2.760885
     30          6           0       -3.739074    1.697231   -4.426950
     31          1           0       -4.432730    1.002371   -4.891760
     32          6           0       -1.926709    3.282274   -4.601202
     33          1           0       -1.182612    3.803139   -5.195525
     34          6           0       -2.788361    2.365656   -5.203876
     35          1           0       -2.730399    2.180466   -6.271789
     36          7           0       -0.358933    0.824233    0.270813
     37          1           0       -0.895513    0.072981    0.682133
     38          6           0        1.090001    0.658636    0.244541
     39          1           0        1.532336    1.640432    0.435792
     40          6           0        1.464936    0.201976   -1.183927
     41          6           0        1.563286   -0.304628    1.334708
     42          1           0        1.170976    0.063402    2.290176
     43          1           0        2.654766   -0.284681    1.371921
     44          8           0        1.673995   -0.989010   -1.449855
     45          6           0        1.054775   -1.725580    1.204690
     46          7           0        1.958144   -2.707744    1.336853
     47          1           0        1.649270   -3.668641    1.305053
     48          1           0        2.948382   -2.521755    1.342597
     49          8           0       -0.161915   -1.979568    1.076067
     50          7           0        1.454175    1.208404   -2.075765
     51          1           0        1.169928    2.134053   -1.751097
     52          6           0        1.543080    1.061530   -3.520470
     53          1           0        2.332327    0.347193   -3.769883
     54          6           0        1.910450    2.430155   -4.076941
     55          6           0        0.195179    0.621916   -4.154709
     56          1           0       -0.594998    1.063223   -3.542780
     57          1           0        0.095740    1.063598   -5.149297
     58          8           0        1.712811    3.476841   -3.502216
     59          6           0        0.031555   -0.901230   -4.253041
     60          1           0        0.380132   -1.254808   -5.229447
     61          1           0        0.679769   -1.381075   -3.517946
     62          6           0       -1.420304   -1.366877   -4.094127
     63          1           0       -2.047358   -0.901196   -4.857646
     64          1           0       -1.488077   -2.451652   -4.221092
     65          7           0       -2.043545   -1.016388   -2.806916
     66          1           0       -2.731611   -0.271414   -2.813229
     67          7           0       -0.817393   -2.559851   -1.572954
     68          1           0       -0.625882   -2.862970   -0.620594
     69          1           0        0.041549   -2.300718   -2.045945
     70          7           0       -2.641133   -1.517571   -0.612296
     71          1           0       -2.303816   -1.801883    0.297923
     72          1           0       -3.484935   -0.947038   -0.617248
     73          6           0       -1.829617   -1.676716   -1.664150
     74          8           0        2.422848    2.331329   -5.315325
     75          1           0        2.595712    3.235491   -5.630542
 ---------------------------------------------------------------------

 SCF Done:  E(RB3LYP) =  -1917.68384459     A.U. after    1 cycles

 Alpha  occ. eigenvalues --  -19.29403 -19.24575 -19.24273 -19.23866 -19.22830
 Alpha  occ. eigenvalues --  -19.22771 -19.21012 -14.49889 -14.48750 -14.48341
 Alpha  occ. eigenvalues --  -14.47987 -14.47691 -14.46860 -14.45959 -14.44103
 Alpha  occ. eigenvalues --  -14.42849 -10.45364 -10.41981 -10.41869 -10.41018
 Alpha  occ. eigenvalues --  -10.39729 -10.39562 -10.38508 -10.34636 -10.34329
 Alpha  occ. eigenvalues --  -10.34313 -10.34310 -10.34041 -10.30773 -10.29851
 Alpha  occ. eigenvalues --  -10.29352 -10.29157 -10.29132 -10.28651 -10.28548
 Alpha  occ. eigenvalues --  -10.28468 -10.28144 -10.27990 -10.27605  -1.20481
 Alpha  occ. eigenvalues --   -1.16133  -1.15903  -1.14932  -1.14153  -1.13865
 Alpha  occ. eigenvalues --   -1.12516  -1.11595  -1.04985  -1.03884  -1.03704
 Alpha  occ. eigenvalues --   -1.02846  -1.02731  -1.01623  -1.00781  -0.98701
 Alpha  occ. eigenvalues --   -0.95048  -0.91229  -0.90222  -0.88754  -0.86513
 Alpha  occ. eigenvalues --   -0.86334  -0.83654  -0.83266  -0.80384  -0.78978
 Alpha  occ. eigenvalues --   -0.77567  -0.75899  -0.74792  -0.72548  -0.72200
 Alpha  occ. eigenvalues --   -0.70910  -0.70779  -0.70075  -0.69771  -0.69595
 Alpha  occ. eigenvalues --   -0.68107  -0.67924  -0.67297  -0.66736  -0.65806
 Alpha  occ. eigenvalues --   -0.65135  -0.63689  -0.62706  -0.62445  -0.61883
 Alpha  occ. eigenvalues --   -0.61058  -0.60686  -0.60295  -0.59534  -0.59362
 Alpha  occ. eigenvalues --   -0.58929  -0.58584  -0.58121  -0.57728  -0.57137
 Alpha  occ. eigenvalues --   -0.56244  -0.55845  -0.55618  -0.55339  -0.55129
 Alpha  occ. eigenvalues --   -0.54605  -0.54397  -0.53822  -0.53681  -0.52619
 Alpha  occ. eigenvalues --   -0.52450  -0.52305  -0.51782  -0.51481  -0.50919
 Alpha  occ. eigenvalues --   -0.50674  -0.50567  -0.50180  -0.49629  -0.49224
 Alpha  occ. eigenvalues --   -0.48883  -0.48475  -0.48048  -0.47833  -0.47818
 Alpha  occ. eigenvalues --   -0.47263  -0.46681  -0.46632  -0.46078  -0.45773
 Alpha  occ. eigenvalues --   -0.44566  -0.44107  -0.43321  -0.42743  -0.41522
 Alpha  occ. eigenvalues --   -0.40996  -0.39694  -0.38988  -0.38814  -0.38626
 Alpha  occ. eigenvalues --   -0.38239  -0.38176  -0.37420  -0.36623  -0.36269
 Alpha  occ. eigenvalues --   -0.35797  -0.35706  -0.34845  -0.34454  -0.34332
 Alpha  occ. eigenvalues --   -0.33553
 Alpha virt. eigenvalues --   -0.11223  -0.10855  -0.10434  -0.10023  -0.09732
 Alpha virt. eigenvalues --   -0.09329  -0.08701  -0.07705  -0.07245  -0.04277
 Alpha virt. eigenvalues --   -0.03242  -0.02394  -0.01727  -0.00896   0.00014

 Mulliken charges:
               1
     1  N   -0.620026
     2  H    0.278303
     3  H    0.266432
     4  C   -0.042761
     5  H    0.147352
     6  C    0.613833
     7  C   -0.275663
     8  H    0.136611
     9  H    0.153319
    10  O   -0.569946
    11  C    0.547264
    12  N   -0.612292
    13  H    0.291924
    14  H    0.300535
    15  O   -0.533031
    16  N   -0.526651
    17  H    0.294617
    18  C    0.008115
    19  H    0.102671
    20  C    0.598278
    21  C   -0.224512
    22  H    0.126299
    23  H    0.140096
    24  O   -0.526709
    25  C    0.103901
    26  C   -0.177677
    27  H    0.108937
    28  C   -0.114798
    29  H    0.132751
    30  C   -0.106112
    31  H    0.105640
    32  C   -0.093304
    33  H    0.106606
    34  C   -0.087394
    35  H    0.105135
    36  N   -0.511821
    37  H    0.290828
    38  C   -0.034463
    39  H    0.161010
    40  C    0.626154
    41  C   -0.283576
    42  H    0.201836
    43  H    0.125807
    44  O   -0.571408
    45  C    0.638433
    46  N   -0.577936
    47  H    0.293488
    48  H    0.301658
    49  O   -0.611828
    50  N   -0.533850
    51  H    0.326008
    52  C    0.002564
    53  H    0.158371
    54  C    0.572368
    55  C   -0.180027
    56  H    0.125779
    57  H    0.133099
    58  O   -0.452219
    59  C   -0.218469
    60  H    0.133377
    61  H    0.132548
    62  C   -0.086650
    63  H    0.141102
    64  H    0.150648
    65  N   -0.528888
    66  H    0.292449
    67  N   -0.599191
    68  H    0.300530
    69  H    0.316885
    70  N   -0.639871
    71  H    0.308673
    72  H    0.328208
    73  C    0.746664
    74  O   -0.476456
    75  H    0.340423
 Sum of Mulliken charges =   1.00000

 Dipole moment (field-independent basis, Debye):
    X=             -6.2762    Y=             -3.1630    Z=             -3.5198  Tot=              7.8603
 Quadrupole moment (field-independent basis, Debye-Ang):
   XX=           -167.6850   YY=           -204.1694   ZZ=           -157.8651
   XY=             -6.5495   XZ=            -14.9888   YZ=            -10.7666

 Normal termination of Gaussian 16 at Thu Sep  8 16:00:58 2022.
