 Gaussian 16, Revision C.01,
 Gaussian 16:  ES64L-G16RevC.01  3-Jul-2019

 ----------------------------------------------------------------------
 # B3LYP/6-31G** empiricaldispersion=gd3bj guess=read geom=check nosymm
  integral(ultrafinegrid)
 ----------------------------------------------------------------------

 ------------------------------------------------------
 Candidate Structure: Conf:746 Charge calc in gas phase
 ------------------------------------------------------
 Structure from the checkpoint file:  "conf-746.chk"
 Charge =  1 Multiplicity = 1

                          Input orientation:
 ---------------------------------------------------------------------
 Center     Atomic      Atomic             Coordinates (Angstroms)
 Number     Number       Type             X           Y           Z
 ---------------------------------------------------------------------
      1          7           0       -2.667948    4.996376    1.139692
      2          1           0       -3.541562    4.498128    0.939954
      3          1           0       -2.855562    5.647077    1.897658
      4          6           0       -1.695134    3.971475    1.539483
      5          1           0       -0.818599    4.041458    0.886935
      6          6           0       -2.290152    2.575794    1.252576
      7          6           0       -1.195677    4.133768    2.976040
      8          1           0       -2.039344    4.174410    3.674165
      9          1           0       -0.590010    3.267332    3.267728
     10          8           0       -3.476641    2.440822    0.958454
     11          6           0       -0.306926    5.368525    3.112609
     12          7           0       -0.195558    5.880809    4.353603
     13          1           0        0.437101    6.653879    4.503685
     14          1           0       -0.648903    5.464128    5.151573
     15          8           0        0.291796    5.861118    2.151166
     16          7           0       -1.358364    1.609901    1.279609
     17          1           0       -0.399205    1.849333    1.521168
     18          6           0       -1.424633    0.267932    0.722694
     19          1           0       -1.977983   -0.401481    1.394694
     20          6           0        0.059259   -0.172716    0.701296
     21          6           0       -2.108912    0.213389   -0.670041
     22          1           0       -2.135770   -0.832327   -0.990451
     23          1           0       -3.144131    0.525248   -0.521019
     24          8           0        0.902671    0.496606    1.324233
     25          6           0       -1.459906    1.072233   -1.734869
     26          6           0       -1.878737    2.395157   -1.938141
     27          1           0       -2.694730    2.791755   -1.344184
     28          6           0       -0.445507    0.565694   -2.557752
     29          1           0       -0.123015   -0.461315   -2.451950
     30          6           0       -1.290487    3.183321   -2.926617
     31          1           0       -1.658804    4.190362   -3.087982
     32          6           0        0.158807    1.358270   -3.533225
     33          1           0        0.946727    0.931318   -4.144192
     34          6           0       -0.262663    2.674753   -3.721618
     35          1           0        0.184799    3.285537   -4.500493
     36          7           0        0.369273   -1.234085   -0.046602
     37          1           0       -0.342730   -1.884722   -0.392622
     38          6           0        1.752210   -1.646432   -0.303380
     39          1           0        2.299362   -1.638699    0.644888
     40          6           0        2.384253   -0.605177   -1.282816
     41          6           0        1.803667   -3.035852   -0.964191
     42          1           0        2.792039   -3.465527   -0.785272
     43          1           0        1.719061   -2.878530   -2.045371
     44          8           0        2.469350   -0.818461   -2.486891
     45          6           0        0.689315   -3.992358   -0.571383
     46          7           0        1.064011   -5.235517   -0.199173
     47          1           0        0.341496   -5.917812   -0.019384
     48          1           0        2.025161   -5.535525   -0.205003
     49          8           0       -0.500400   -3.661306   -0.630017
     50          7           0        2.749905    0.549318   -0.678050
     51          1           0        2.516290    0.645172    0.305493
     52          6           0        3.070116    1.761836   -1.407382
     53          1           0        2.900581    1.570428   -2.467349
     54          6           0        4.540851    2.104368   -1.171879
     55          6           0        2.196471    2.931126   -0.899758
     56          1           0        1.147158    2.637263   -0.985519
     57          1           0        2.420119    3.068276    0.165701
     58          8           0        5.053784    2.160182   -0.078057
     59          6           0        2.452791    4.240737   -1.657679
     60          1           0        3.520524    4.350310   -1.877659
     61          1           0        1.944602    4.194724   -2.627454
     62          6           0        2.046752    5.502057   -0.883833
     63          1           0        2.530234    5.500828    0.095704
     64          1           0        2.409344    6.401130   -1.399282
     65          7           0        0.612463    5.637079   -0.609547
     66          1           0        0.344311    5.656013    0.381974
     67          7           0        0.098086    6.406394   -2.742774
     68          1           0       -0.587196    6.544555   -3.467220
     69          1           0        1.052808    6.285181   -3.034574
     70          7           0       -1.569127    6.189846   -1.147082
     71          1           0       -2.216357    6.589044   -1.808920
     72          1           0       -1.971113    5.793319   -0.255929
     73          6           0       -0.287536    6.068171   -1.494220
     74          8           0        5.192002    2.382687   -2.320691
     75          1           0        6.111987    2.592794   -2.080444
 ---------------------------------------------------------------------

 SCF Done:  E(RB3LYP) =  -1917.65825693     A.U. after    3 cycles

 Alpha  occ. eigenvalues --  -19.28084 -19.24293 -19.22474 -19.22056 -19.21851
 Alpha  occ. eigenvalues --  -19.20680 -19.20146 -14.50049 -14.48241 -14.47778
 Alpha  occ. eigenvalues --  -14.47450 -14.45317 -14.45201 -14.44814 -14.44207
 Alpha  occ. eigenvalues --  -14.43907 -10.45286 -10.41668 -10.39995 -10.39031
 Alpha  occ. eigenvalues --  -10.38689 -10.38450 -10.37184 -10.34158 -10.33776
 Alpha  occ. eigenvalues --  -10.33465 -10.33254 -10.32167 -10.31955 -10.29392
 Alpha  occ. eigenvalues --  -10.28634 -10.28548 -10.27985 -10.27796 -10.27581
 Alpha  occ. eigenvalues --  -10.27388 -10.27003 -10.26826 -10.26556  -1.18825
 Alpha  occ. eigenvalues --   -1.15826  -1.14571  -1.13885  -1.13443  -1.12456
 Alpha  occ. eigenvalues --   -1.11913  -1.09819  -1.03301  -1.02780  -1.02592
 Alpha  occ. eigenvalues --   -1.02209  -1.01976  -1.01101  -1.00742  -0.99538
 Alpha  occ. eigenvalues --   -0.93858  -0.90369  -0.89327  -0.87858  -0.86410
 Alpha  occ. eigenvalues --   -0.84862  -0.82821  -0.82547  -0.79349  -0.77996
 Alpha  occ. eigenvalues --   -0.76822  -0.75711  -0.74475  -0.72523  -0.71245
 Alpha  occ. eigenvalues --   -0.70764  -0.69915  -0.68777  -0.68257  -0.67870
 Alpha  occ. eigenvalues --   -0.67785  -0.66613  -0.65967  -0.65718  -0.65108
 Alpha  occ. eigenvalues --   -0.64414  -0.62964  -0.62775  -0.61659  -0.61435
 Alpha  occ. eigenvalues --   -0.60728  -0.60133  -0.59862  -0.59243  -0.59026
 Alpha  occ. eigenvalues --   -0.58472  -0.57714  -0.57372  -0.56729  -0.56365
 Alpha  occ. eigenvalues --   -0.55506  -0.55328  -0.55083  -0.54369  -0.54152
 Alpha  occ. eigenvalues --   -0.53860  -0.53585  -0.53333  -0.52741  -0.52118
 Alpha  occ. eigenvalues --   -0.51757  -0.51159  -0.50743  -0.50171  -0.49936
 Alpha  occ. eigenvalues --   -0.49733  -0.49511  -0.49323  -0.48527  -0.48405
 Alpha  occ. eigenvalues --   -0.48063  -0.47552  -0.47246  -0.46971  -0.46609
 Alpha  occ. eigenvalues --   -0.46088  -0.45880  -0.45294  -0.44830  -0.44239
 Alpha  occ. eigenvalues --   -0.43930  -0.43384  -0.41919  -0.41622  -0.40560
 Alpha  occ. eigenvalues --   -0.39952  -0.39206  -0.38413  -0.38207  -0.37587
 Alpha  occ. eigenvalues --   -0.37304  -0.36963  -0.36054  -0.35843  -0.35613
 Alpha  occ. eigenvalues --   -0.35080  -0.34670  -0.33654  -0.33074  -0.32908
 Alpha  occ. eigenvalues --   -0.32617
 Alpha virt. eigenvalues --   -0.10141  -0.09960  -0.09121  -0.08855  -0.08376
 Alpha virt. eigenvalues --   -0.07649  -0.07357  -0.06499  -0.06258  -0.05660
 Alpha virt. eigenvalues --   -0.03253  -0.03072  -0.01855  -0.01030  -0.00633

 Mulliken charges:
               1
     1  N   -0.667265
     2  H    0.295200
     3  H    0.266367
     4  C   -0.009922
     5  H    0.118202
     6  C    0.609274
     7  C   -0.299632
     8  H    0.137813
     9  H    0.168842
    10  O   -0.533375
    11  C    0.600505
    12  N   -0.594322
    13  H    0.303174
    14  H    0.296034
    15  O   -0.534503
    16  N   -0.545609
    17  H    0.292206
    18  C    0.021629
    19  H    0.158606
    20  C    0.616207
    21  C   -0.289295
    22  H    0.131981
    23  H    0.160933
    24  O   -0.580444
    25  C    0.114520
    26  C   -0.136759
    27  H    0.100753
    28  C   -0.117370
    29  H    0.101350
    30  C   -0.079659
    31  H    0.046544
    32  C   -0.095599
    33  H    0.122746
    34  C   -0.095558
    35  H    0.080725
    36  N   -0.542946
    37  H    0.324220
    38  C   -0.020054
    39  H    0.144600
    40  C    0.615327
    41  C   -0.292284
    42  H    0.123859
    43  H    0.192960
    44  O   -0.523706
    45  C    0.597437
    46  N   -0.599421
    47  H    0.297288
    48  H    0.288318
    49  O   -0.539705
    50  N   -0.514918
    51  H    0.302661
    52  C   -0.004182
    53  H    0.153683
    54  C    0.586097
    55  C   -0.196537
    56  H    0.136803
    57  H    0.115171
    58  O   -0.457540
    59  C   -0.196288
    60  H    0.129302
    61  H    0.106584
    62  C   -0.111584
    63  H    0.155354
    64  H    0.124104
    65  N   -0.545806
    66  H    0.343825
    67  N   -0.614226
    68  H    0.301845
    69  H    0.307255
    70  N   -0.647751
    71  H    0.283883
    72  H    0.374806
    73  C    0.779404
    74  O   -0.474530
    75  H    0.332393
 Sum of Mulliken charges =   1.00000

 Dipole moment (field-independent basis, Debye):
    X=              1.5586    Y=             17.6297    Z=              1.3733  Tot=             17.7516
 Quadrupole moment (field-independent basis, Debye-Ang):
   XX=           -207.8404   YY=            -48.6480   ZZ=           -174.9099
   XY=            -20.2575   XZ=            -13.2849   YZ=             -4.7143

 Normal termination of Gaussian 16 at Thu Sep  8 16:02:00 2022.
