 Gaussian 16, Revision C.01,
 Gaussian 16:  ES64L-G16RevC.01  3-Jul-2019

 ----------------------------------------------------------------------
 # B3LYP/6-31G** empiricaldispersion=gd3bj guess=read geom=check nosymm
  integral(ultrafinegrid)
 ----------------------------------------------------------------------

 ------------------------------------------------------
 Candidate Structure: Conf:433 Charge calc in gas phase
 ------------------------------------------------------
 Structure from the checkpoint file:  "conf-433.chk"
 Charge =  1 Multiplicity = 1

                          Input orientation:
 ---------------------------------------------------------------------
 Center     Atomic      Atomic             Coordinates (Angstroms)
 Number     Number       Type             X           Y           Z
 ---------------------------------------------------------------------
      1          7           0       -4.115786    2.188612    1.952838
      2          1           0       -4.886417    1.532270    1.863497
      3          1           0       -4.486364    3.089053    2.236645
      4          6           0       -3.129840    1.685886    2.904515
      5          1           0       -2.509609    2.534863    3.217632
      6          6           0       -2.158697    0.724339    2.204980
      7          6           0       -3.680716    1.036522    4.183752
      8          1           0       -2.842219    0.691011    4.798040
      9          1           0       -4.234843    1.777738    4.768863
     10          8           0       -1.410877   -0.032845    2.857815
     11          6           0       -4.566622   -0.163777    3.883066
     12          7           0       -5.295199   -0.636534    4.912282
     13          1           0       -5.895477   -1.434363    4.761341
     14          1           0       -5.282940   -0.206008    5.823901
     15          8           0       -4.602770   -0.684960    2.758662
     16          7           0       -2.131401    0.819439    0.871720
     17          1           0       -2.776341    1.505005    0.484478
     18          6           0       -1.355896   -0.049349   -0.003079
     19          1           0       -1.283502   -1.020346    0.499431
     20          6           0        0.113084    0.398245   -0.182646
     21          6           0       -2.057576   -0.244095   -1.353959
     22          1           0       -2.430872    0.728389   -1.701335
     23          1           0       -1.290206   -0.542899   -2.069757
     24          8           0        0.720212    0.163426   -1.224891
     25          6           0       -3.177741   -1.263339   -1.334825
     26          6           0       -3.177203   -2.313138   -2.262624
     27          1           0       -2.365892   -2.385533   -2.981247
     28          6           0       -4.236576   -1.189136   -0.417738
     29          1           0       -4.263876   -0.400943    0.322406
     30          6           0       -4.208230   -3.254123   -2.288999
     31          1           0       -4.194672   -4.047722   -3.029522
     32          6           0       -5.265947   -2.133353   -0.431762
     33          1           0       -6.074808   -2.048382    0.287325
     34          6           0       -5.260194   -3.168287   -1.373789
     35          1           0       -6.070073   -3.890484   -1.399480
     36          7           0        0.682522    0.969390    0.907262
     37          1           0        0.203127    0.879250    1.796819
     38          6           0        2.124197    1.236176    0.962839
     39          1           0        2.437992    1.506259   -0.048171
     40          6           0        2.798879   -0.080459    1.398450
     41          6           0        2.413488    2.379859    1.933843
     42          1           0        2.210837    2.047080    2.956132
     43          1           0        1.763535    3.219577    1.683802
     44          8           0        3.199083   -0.268794    2.549302
     45          6           0        3.855457    2.879692    1.786977
     46          7           0        4.761073    2.247971    2.583088
     47          1           0        5.735618    2.466119    2.435284
     48          1           0        4.511037    1.371861    3.022361
     49          8           0        4.136924    3.774535    1.004499
     50          7           0        2.803500   -1.039820    0.444328
     51          1           0        2.459465   -0.826279   -0.488362
     52          6           0        3.193403   -2.399462    0.741879
     53          1           0        3.898110   -2.372607    1.576735
     54          6           0        3.873267   -2.988047   -0.484865
     55          6           0        1.987057   -3.290671    1.128920
     56          1           0        1.346509   -3.399093    0.243362
     57          1           0        2.373039   -4.286511    1.377346
     58          8           0        3.777492   -2.537768   -1.602674
     59          6           0        1.168435   -2.731358    2.297816
     60          1           0        1.829091   -2.491712    3.136435
     61          1           0        0.688616   -1.790804    2.010803
     62          6           0        0.104651   -3.711579    2.796931
     63          1           0        0.573424   -4.633522    3.154875
     64          1           0       -0.453003   -3.290422    3.636302
     65          7           0       -0.868388   -4.106282    1.767497
     66          1           0       -0.575047   -4.804195    1.100295
     67          7           0       -2.501576   -2.542952    2.309514
     68          1           0       -3.457060   -2.201142    2.236789
     69          1           0       -1.845175   -1.832842    2.640013
     70          7           0       -2.962437   -4.215442    0.784712
     71          1           0       -3.743680   -3.699476    0.390808
     72          1           0       -2.717433   -5.085116    0.339541
     73          6           0       -2.102634   -3.605417    1.615100
     74          8           0        4.549052   -4.112287   -0.177075
     75          1           0        4.936177   -4.448659   -1.003977
 ---------------------------------------------------------------------

 SCF Done:  E(RB3LYP) =  -1917.66049064     A.U. after    3 cycles

 Alpha  occ. eigenvalues --  -19.28594 -19.24869 -19.24147 -19.22922 -19.21908
 Alpha  occ. eigenvalues --  -19.20781 -19.16336 -14.51239 -14.49996 -14.48602
 Alpha  occ. eigenvalues --  -14.48529 -14.47740 -14.45808 -14.44550 -14.43873
 Alpha  occ. eigenvalues --  -14.40412 -10.46587 -10.42256 -10.40927 -10.40764
 Alpha  occ. eigenvalues --  -10.38887 -10.37643 -10.35147 -10.34830 -10.34697
 Alpha  occ. eigenvalues --  -10.34300 -10.33086 -10.32226 -10.31628 -10.30234
 Alpha  occ. eigenvalues --  -10.29874 -10.29524 -10.29516 -10.29431 -10.29354
 Alpha  occ. eigenvalues --  -10.29323 -10.29144 -10.29029 -10.26508  -1.19560
 Alpha  occ. eigenvalues --   -1.16487  -1.15632  -1.15212  -1.13876  -1.12492
 Alpha  occ. eigenvalues --   -1.10660  -1.08243  -1.05062  -1.04831  -1.03395
 Alpha  occ. eigenvalues --   -1.02687  -1.02486  -1.01517  -1.00734  -0.96058
 Alpha  occ. eigenvalues --   -0.95437  -0.91067  -0.89918  -0.88153  -0.87190
 Alpha  occ. eigenvalues --   -0.85662  -0.84747  -0.84008  -0.80132  -0.79024
 Alpha  occ. eigenvalues --   -0.77336  -0.76738  -0.74628  -0.72590  -0.71914
 Alpha  occ. eigenvalues --   -0.71679  -0.70677  -0.70138  -0.69612  -0.68570
 Alpha  occ. eigenvalues --   -0.68501  -0.67925  -0.67312  -0.65946  -0.64459
 Alpha  occ. eigenvalues --   -0.63932  -0.63714  -0.63519  -0.62917  -0.61607
 Alpha  occ. eigenvalues --   -0.60983  -0.60585  -0.60026  -0.59428  -0.59113
 Alpha  occ. eigenvalues --   -0.58661  -0.58312  -0.57980  -0.56987  -0.56816
 Alpha  occ. eigenvalues --   -0.56363  -0.56192  -0.55835  -0.55477  -0.55115
 Alpha  occ. eigenvalues --   -0.54470  -0.53828  -0.53275  -0.52807  -0.52773
 Alpha  occ. eigenvalues --   -0.52012  -0.51743  -0.51677  -0.51567  -0.51010
 Alpha  occ. eigenvalues --   -0.50856  -0.49871  -0.49720  -0.48714  -0.48238
 Alpha  occ. eigenvalues --   -0.48130  -0.48058  -0.47653  -0.47267  -0.46892
 Alpha  occ. eigenvalues --   -0.46224  -0.45829  -0.45283  -0.45110  -0.44594
 Alpha  occ. eigenvalues --   -0.44088  -0.44065  -0.43877  -0.42578  -0.41375
 Alpha  occ. eigenvalues --   -0.40701  -0.40095  -0.39784  -0.39410  -0.39179
 Alpha  occ. eigenvalues --   -0.38623  -0.37437  -0.36496  -0.35925  -0.35680
 Alpha  occ. eigenvalues --   -0.35282  -0.34588  -0.34463  -0.33369  -0.31911
 Alpha  occ. eigenvalues --   -0.30021
 Alpha virt. eigenvalues --   -0.11665  -0.10970  -0.10689  -0.10637  -0.10196
 Alpha virt. eigenvalues --   -0.08890  -0.08070  -0.06913  -0.06119  -0.03909
 Alpha virt. eigenvalues --   -0.02893  -0.02844  -0.02385  -0.01700  -0.00513

 Mulliken charges:
               1
     1  N   -0.628568
     2  H    0.273957
     3  H    0.271331
     4  C   -0.029854
     5  H    0.155776
     6  C    0.630577
     7  C   -0.280382
     8  H    0.173620
     9  H    0.135059
    10  O   -0.614842
    11  C    0.600533
    12  N   -0.591018
    13  H    0.296977
    14  H    0.298743
    15  O   -0.559851
    16  N   -0.503007
    17  H    0.304073
    18  C   -0.015581
    19  H    0.128796
    20  C    0.618140
    21  C   -0.278220
    22  H    0.138191
    23  H    0.162735
    24  O   -0.523781
    25  C    0.113907
    26  C   -0.133074
    27  H    0.110559
    28  C   -0.124443
    29  H    0.103907
    30  C   -0.089906
    31  H    0.113525
    32  C   -0.136695
    33  H    0.110486
    34  C   -0.118740
    35  H    0.113764
    36  N   -0.536702
    37  H    0.290452
    38  C   -0.027836
    39  H    0.171163
    40  C    0.618673
    41  C   -0.255445
    42  H    0.120875
    43  H    0.137518
    44  O   -0.552202
    45  C    0.539204
    46  N   -0.598123
    47  H    0.278936
    48  H    0.291803
    49  O   -0.493224
    50  N   -0.522850
    51  H    0.308345
    52  C   -0.007353
    53  H    0.167543
    54  C    0.580579
    55  C   -0.189882
    56  H    0.096830
    57  H    0.125092
    58  O   -0.447409
    59  C   -0.184060
    60  H    0.153259
    61  H    0.115204
    62  C   -0.100867
    63  H    0.145901
    64  H    0.146847
    65  N   -0.523468
    66  H    0.287045
    67  N   -0.642894
    68  H    0.326989
    69  H    0.335621
    70  N   -0.618864
    71  H    0.317465
    72  H    0.295133
    73  C    0.766466
    74  O   -0.480946
    75  H    0.338490
 Sum of Mulliken charges =   1.00000

 Dipole moment (field-independent basis, Debye):
    X=            -15.3239    Y=            -13.6013    Z=             12.3575  Tot=             23.9275
 Quadrupole moment (field-independent basis, Debye-Ang):
   XX=           -142.7491   YY=           -161.7582   ZZ=           -172.1686
   XY=             -8.1869   XZ=            -41.4456   YZ=              3.5370

 Normal termination of Gaussian 16 at Thu Sep  8 16:01:49 2022.
