 Gaussian 16, Revision C.01,
 Gaussian 16:  ES64L-G16RevC.01  3-Jul-2019

 ----------------------------------------------------------------------
 # B3LYP/6-31G** empiricaldispersion=gd3bj guess=read geom=check nosymm
  integral(ultrafinegrid)
 ----------------------------------------------------------------------

 ------------------------------------------------------
 Candidate Structure: Conf:304 Charge calc in gas phase
 ------------------------------------------------------
 Structure from the checkpoint file:  "conf-304.chk"
 Charge =  1 Multiplicity = 1

                          Input orientation:
 ---------------------------------------------------------------------
 Center     Atomic      Atomic             Coordinates (Angstroms)
 Number     Number       Type             X           Y           Z
 ---------------------------------------------------------------------
      1          7           0       32.060424  -29.589844   39.420817
      2          6           0       33.145158  -29.148577   40.280260
      3          6           0       32.724803  -29.039681   41.746825
      4          8           0       31.929799  -29.856872   42.232029
      5          6           0       34.322772  -30.164591   40.218715
      6          6           0       35.074077  -30.130897   38.913184
      7          6           0       34.531123  -30.674225   37.743031
      8          6           0       36.330779  -29.516769   38.836904
      9          6           0       35.221883  -30.607102   36.536263
     10          6           0       37.033178  -29.442521   37.639256
     11          6           0       36.476653  -29.990332   36.479148
     12          8           0       37.203827  -29.895721   35.331332
     13          1           0       33.511886  -28.180824   39.920162
     14          1           0       35.021831  -29.946504   41.037114
     15          1           0       33.897799  -31.156987   40.414327
     16          1           0       33.550031  -31.133171   37.775799
     17          1           0       36.773924  -29.089693   39.733845
     18          1           0       34.785981  -31.034160   35.636262
     19          1           0       38.007541  -28.970437   37.581929
     20          1           0       36.710786  -30.297423   34.603801
     21          1           0       31.538492  -30.314266   39.911716
     22          1           0       31.408895  -28.829135   39.248308
     23          7           0       33.342534  -28.097406   42.499760
     24          6           0       32.985879  -27.827578   43.895340
     25          6           0       33.112891  -29.073901   44.773069
     26          8           0       32.466097  -29.200514   45.802442
     27          6           0       33.831501  -26.645778   44.432379
     28          6           0       35.324194  -26.988934   44.526596
     29          6           0       33.287005  -26.140729   45.772243
     30          1           0       33.895101  -27.399964   42.019365
     31          1           0       31.925477  -27.560237   43.950832
     32          1           0       33.706276  -25.839857   43.694429
     33          1           0       35.729385  -27.365148   43.580766
     34          1           0       35.898072  -26.099762   44.799413
     35          1           0       35.503320  -27.749165   45.293211
     36          1           0       33.352673  -26.913112   46.542033
     37          1           0       32.237632  -25.844473   45.688867
     38          1           0       33.860926  -25.270996   46.103253
     39          7           0       33.986408  -30.041231   44.355612
     40          6           0       34.019368  -31.310065   45.046219
     41          6           0       32.678245  -32.064205   44.977962
     42          8           0       32.458753  -32.981148   45.763780
     43          6           0       35.181329  -32.163266   44.495909
     44          6           0       35.496141  -33.430460   45.313905
     45          6           0       34.797689  -34.697680   44.797015
     46          7           0       34.943760  -35.832126   45.718483
     47          6           0       34.170046  -36.040396   46.793813
     48          7           0       33.202435  -35.196470   47.126478
     49          7           0       34.402821  -37.134331   47.548381
     50          8           0       31.805459  -31.780757   44.043484
     51          1           0       31.998740  -30.985934   43.478383
     52          1           0       34.460772  -29.933485   43.471848
     53          1           0       34.180313  -31.125832   46.112497
     54          1           0       36.062906  -31.515305   44.496380
     55          1           0       34.985348  -32.419466   43.445942
     56          1           0       35.220156  -33.265186   46.359873
     57          1           0       36.576634  -33.607005   45.302901
     58          1           0       35.224837  -35.010849   43.841254
     59          1           0       33.732526  -34.534594   44.634825
     60          1           0       35.800993  -36.364147   45.668997
     61          1           0       32.516605  -35.474233   47.812269
     62          1           0       33.027301  -34.304267   46.633607
     63          1           0       33.888700  -37.289039   48.401108
     64          1           0       34.930643  -37.910895   47.182475
 ---------------------------------------------------------------------

 SCF Done:  E(RB3LYP) =  -1486.69933255     A.U. after    1 cycles

 Alpha  occ. eigenvalues --  -19.27923 -19.23906 -19.23547 -19.23186 -19.21206
 Alpha  occ. eigenvalues --  -14.52319 -14.52196 -14.50504 -14.47430 -14.46310
 Alpha  occ. eigenvalues --  -14.39756 -10.48219 -10.42396 -10.39255 -10.38403
 Alpha  occ. eigenvalues --  -10.35898 -10.34686 -10.33024 -10.31755 -10.31582
 Alpha  occ. eigenvalues --  -10.31537 -10.30906 -10.29245 -10.27886 -10.26586
 Alpha  occ. eigenvalues --  -10.25555 -10.25492 -10.25032 -10.25018 -10.24855
 Alpha  occ. eigenvalues --  -10.24480  -1.19918  -1.16773  -1.14955  -1.13413
 Alpha  occ. eigenvalues --   -1.11726  -1.11288  -1.06265  -1.04421  -1.04061
 Alpha  occ. eigenvalues --   -1.02694  -0.97642  -0.92500  -0.91520  -0.90148
 Alpha  occ. eigenvalues --   -0.86917  -0.85074  -0.82119  -0.80832  -0.80368
 Alpha  occ. eigenvalues --   -0.78233  -0.77812  -0.76798  -0.74365  -0.73563
 Alpha  occ. eigenvalues --   -0.73009  -0.71482  -0.70689  -0.70339  -0.68232
 Alpha  occ. eigenvalues --   -0.68179  -0.65988  -0.65436  -0.65030  -0.64706
 Alpha  occ. eigenvalues --   -0.64326  -0.62526  -0.61030  -0.60487  -0.60130
 Alpha  occ. eigenvalues --   -0.59878  -0.58982  -0.58305  -0.57008  -0.56610
 Alpha  occ. eigenvalues --   -0.55750  -0.54793  -0.54520  -0.53653  -0.53341
 Alpha  occ. eigenvalues --   -0.52946  -0.52762  -0.52452  -0.51059  -0.50778
 Alpha  occ. eigenvalues --   -0.50579  -0.49897  -0.49578  -0.49029  -0.48262
 Alpha  occ. eigenvalues --   -0.48138  -0.47722  -0.46996  -0.46590  -0.46363
 Alpha  occ. eigenvalues --   -0.46336  -0.45837  -0.44994  -0.44373  -0.43626
 Alpha  occ. eigenvalues --   -0.42930  -0.42781  -0.42653  -0.42159  -0.42007
 Alpha  occ. eigenvalues --   -0.41210  -0.40795  -0.39671  -0.39050  -0.38870
 Alpha  occ. eigenvalues --   -0.37878  -0.37169  -0.35272  -0.34367  -0.32509
 Alpha  occ. eigenvalues --   -0.31121  -0.27804
 Alpha virt. eigenvalues --   -0.12128  -0.09865  -0.09496  -0.08496  -0.07651
 Alpha virt. eigenvalues --   -0.06348  -0.05261  -0.04629  -0.03973  -0.03490
 Alpha virt. eigenvalues --   -0.02026  -0.01262   0.00006   0.01011   0.01587

 Mulliken charges:
               1
     1  N   -0.568807
     2  C   -0.021983
     3  C    0.580988
     4  O   -0.564672
     5  C   -0.240561
     6  C    0.109211
     7  C   -0.098617
     8  C   -0.133803
     9  C   -0.136155
    10  C   -0.100329
    11  C    0.331139
    12  O   -0.550786
    13  H    0.111626
    14  H    0.075208
    15  H    0.111250
    16  H    0.101099
    17  H    0.066273
    18  H    0.085982
    19  H    0.103501
    20  H    0.322773
    21  H    0.259434
    22  H    0.255180
    23  N   -0.559274
    24  C    0.041511
    25  C    0.594728
    26  O   -0.510620
    27  C   -0.108926
    28  C   -0.324214
    29  C   -0.315576
    30  H    0.280865
    31  H    0.158149
    32  H    0.107019
    33  H    0.086953
    34  H    0.132295
    35  H    0.118777
    36  H    0.136910
    37  H    0.118886
    38  H    0.116590
    39  N   -0.565020
    40  C    0.020857
    41  C    0.631342
    42  O   -0.526338
    43  C   -0.235241
    44  C   -0.185685
    45  C   -0.098224
    46  N   -0.528552
    47  C    0.792874
    48  N   -0.628900
    49  N   -0.626615
    50  O   -0.474834
    51  H    0.388636
    52  H    0.277436
    53  H    0.162414
    54  H    0.139585
    55  H    0.119604
    56  H    0.124878
    57  H    0.122066
    58  H    0.146426
    59  H    0.165884
    60  H    0.293908
    61  H    0.304024
    62  H    0.380814
    63  H    0.314189
    64  H    0.312452
 Sum of Mulliken charges =   1.00000

 Dipole moment (field-independent basis, Debye):
    X=            167.6157    Y=           -161.6449    Z=            215.2883  Tot=            317.1328
 Quadrupole moment (field-independent basis, Debye-Ang):
   XX=           5663.0894   YY=           5357.0687   ZZ=           9527.9808
   XY=          -5643.6388   XZ=           7519.3731   YZ=          -7296.5265

 Normal termination of Gaussian 16 at Thu Sep  8 16:00:30 2022.
