 Gaussian 16, Revision C.01,
 Gaussian 16:  ES64L-G16RevC.01  3-Jul-2019

 ----------------------------------------------------------------------
 # B3LYP/6-31G** empiricaldispersion=gd3bj guess=read geom=check nosymm
  integral(ultrafinegrid)
 ----------------------------------------------------------------------

 ------------------------------------------------------
 Candidate Structure: Conf:549 Charge calc in gas phase
 ------------------------------------------------------
 Structure from the checkpoint file:  "conf-549.chk"
 Charge =  1 Multiplicity = 1

                          Input orientation:
 ---------------------------------------------------------------------
 Center     Atomic      Atomic             Coordinates (Angstroms)
 Number     Number       Type             X           Y           Z
 ---------------------------------------------------------------------
      1          7           0       -2.718720   -1.698548   -0.823787
      2          1           0       -3.206327   -1.442175   -1.678734
      3          1           0       -1.740381   -1.787010   -1.093370
      4          6           0       -2.841988   -0.617257    0.141256
      5          1           0       -3.906987   -0.396562    0.276094
      6          6           0       -2.170599    0.686185   -0.338581
      7          6           0       -2.282830   -1.092065    1.500165
      8          1           0       -2.501649   -2.161974    1.566346
      9          1           0       -1.194124   -0.977251    1.548668
     10          8           0       -1.491482    0.712463   -1.380569
     11          6           0       -2.863240   -0.385052    2.716481
     12          7           0       -2.713800   -1.037771    3.887199
     13          1           0       -3.006674   -0.573998    4.734299
     14          1           0       -2.175637   -1.885754    3.958926
     15          8           0       -3.449293    0.703565    2.660319
     16          7           0       -2.359147    1.772642    0.425241
     17          1           0       -2.926589    1.647168    1.274639
     18          6           0       -1.809114    3.058355    0.055126
     19          1           0       -2.139361    3.323237   -0.955070
     20          6           0       -0.280384    3.039567    0.018761
     21          6           0       -2.294510    4.150263    1.035236
     22          1           0       -1.987743    3.869688    2.048352
     23          1           0       -1.769995    5.076708    0.781339
     24          8           0        0.345395    3.742002   -0.807340
     25          6           0       -3.790233    4.347432    0.964305
     26          6           0       -4.641281    3.724676    1.883575
     27          1           0       -4.226406    3.113078    2.679047
     28          6           0       -4.346586    5.124250   -0.059021
     29          1           0       -3.691624    5.620767   -0.771496
     30          6           0       -6.024524    3.874655    1.777827
     31          1           0       -6.673739    3.386837    2.497801
     32          6           0       -5.727443    5.276933   -0.164190
     33          1           0       -6.146073    5.889690   -0.956445
     34          6           0       -6.570398    4.649941    0.755466
     35          1           0       -7.646094    4.770436    0.677399
     36          7           0        0.325394    2.306617    0.952937
     37          1           0       -0.210298    1.673585    1.549773
     38          6           0        1.772482    2.269732    1.158025
     39          1           0        2.154854    3.284512    1.004910
     40          6           0        2.486965    1.339097    0.150501
     41          6           0        2.081864    1.817159    2.589499
     42          1           0        1.647524    2.537660    3.289614
     43          1           0        3.162920    1.815050    2.731958
     44          8           0        3.054464    0.313670    0.513088
     45          6           0        1.470344    0.458608    2.908793
     46          7           0        2.302838   -0.482940    3.399185
     47          1           0        1.919420   -1.409174    3.526625
     48          1           0        3.287258   -0.421976    3.186456
     49          8           0        0.252017    0.272113    2.786210
     50          7           0        2.436526    1.770399   -1.132293
     51          1           0        1.965268    2.653270   -1.309244
     52          6           0        3.168148    1.119219   -2.199002
     53          1           0        3.377570    0.099647   -1.853803
     54          6           0        4.537992    1.755210   -2.460182
     55          6           0        2.342907    1.085508   -3.490255
     56          1           0        2.044809    2.117624   -3.718139
     57          1           0        2.994469    0.768925   -4.306879
     58          8           0        5.153199    1.617303   -3.492642
     59          6           0        1.104915    0.185204   -3.383280
     60          1           0        1.344319   -0.832252   -3.709706
     61          1           0        0.765479    0.116793   -2.345014
     62          6           0       -0.072562    0.705346   -4.214954
     63          1           0        0.238776    0.891986   -5.245883
     64          1           0       -0.885470   -0.024778   -4.232861
     65          7           0       -0.585347    1.943055   -3.618731
     66          1           0       -0.909090    1.819259   -2.650406
     67          7           0       -0.418549    3.354714   -5.463409
     68          1           0       -0.183009    4.260584   -5.834220
     69          1           0       -0.610972    2.612801   -6.115691
     70          7           0       -0.653408    4.225693   -3.324151
     71          1           0       -0.827177    5.138392   -3.714478
     72          1           0       -0.363376    4.144114   -2.333466
     73          6           0       -0.548594    3.164522   -4.134550
     74          8           0        4.997599    2.460359   -1.407621
     75          1           0        5.884887    2.773462   -1.655243
 ---------------------------------------------------------------------

 SCF Done:  E(RB3LYP) =  -1917.67225530     A.U. after    1 cycles

 Alpha  occ. eigenvalues --  -19.28324 -19.24225 -19.22911 -19.22430 -19.22139
 Alpha  occ. eigenvalues --  -19.21404 -19.21327 -14.50397 -14.48612 -14.48323
 Alpha  occ. eigenvalues --  -14.46975 -14.45242 -14.45180 -14.45168 -14.44801
 Alpha  occ. eigenvalues --  -14.40036 -10.45788 -10.40562 -10.40294 -10.39484
 Alpha  occ. eigenvalues --  -10.38686 -10.38538 -10.38364 -10.34347 -10.34084
 Alpha  occ. eigenvalues --  -10.33876 -10.33096 -10.31692 -10.30054 -10.29027
 Alpha  occ. eigenvalues --  -10.28730 -10.28706 -10.28304 -10.27336 -10.26364
 Alpha  occ. eigenvalues --  -10.26102 -10.25882 -10.25836 -10.25789  -1.19251
 Alpha  occ. eigenvalues --   -1.15613  -1.14295  -1.14015  -1.13721  -1.13053
 Alpha  occ. eigenvalues --   -1.12822  -1.10156  -1.04374  -1.03710  -1.02597
 Alpha  occ. eigenvalues --   -1.02216  -1.02024  -1.00365  -0.99723  -0.97756
 Alpha  occ. eigenvalues --   -0.93081  -0.90524  -0.89468  -0.87786  -0.85558
 Alpha  occ. eigenvalues --   -0.84815  -0.82107  -0.81504  -0.79709  -0.77773
 Alpha  occ. eigenvalues --   -0.76196  -0.75670  -0.73763  -0.72229  -0.71375
 Alpha  occ. eigenvalues --   -0.70906  -0.69471  -0.68741  -0.68395  -0.68008
 Alpha  occ. eigenvalues --   -0.67757  -0.67454  -0.66243  -0.65879  -0.64243
 Alpha  occ. eigenvalues --   -0.63745  -0.63459  -0.63229  -0.62667  -0.61801
 Alpha  occ. eigenvalues --   -0.60645  -0.60180  -0.59732  -0.58852  -0.58535
 Alpha  occ. eigenvalues --   -0.58261  -0.57409  -0.57068  -0.56300  -0.56098
 Alpha  occ. eigenvalues --   -0.55680  -0.55445  -0.54179  -0.53304  -0.53179
 Alpha  occ. eigenvalues --   -0.53159  -0.52880  -0.52793  -0.52433  -0.51845
 Alpha  occ. eigenvalues --   -0.51687  -0.51285  -0.50811  -0.50463  -0.50283
 Alpha  occ. eigenvalues --   -0.49608  -0.49456  -0.48861  -0.48611  -0.47935
 Alpha  occ. eigenvalues --   -0.47732  -0.47587  -0.47315  -0.47188  -0.46563
 Alpha  occ. eigenvalues --   -0.46072  -0.45351  -0.45267  -0.44415  -0.44049
 Alpha  occ. eigenvalues --   -0.43509  -0.42891  -0.41557  -0.41246  -0.41045
 Alpha  occ. eigenvalues --   -0.40303  -0.39583  -0.38733  -0.38128  -0.37945
 Alpha  occ. eigenvalues --   -0.37095  -0.37006  -0.36217  -0.35907  -0.35586
 Alpha  occ. eigenvalues --   -0.35261  -0.34253  -0.33728  -0.33078  -0.32103
 Alpha  occ. eigenvalues --   -0.31690
 Alpha virt. eigenvalues --   -0.10369  -0.10206  -0.08515  -0.08362  -0.07855
 Alpha virt. eigenvalues --   -0.07353  -0.07199  -0.06665  -0.06510  -0.06150
 Alpha virt. eigenvalues --   -0.02789  -0.01515  -0.01189  -0.00454   0.00089

 Mulliken charges:
               1
     1  N   -0.568367
     2  H    0.248485
     3  H    0.244572
     4  C   -0.051422
     5  H    0.149419
     6  C    0.570852
     7  C   -0.292254
     8  H    0.153847
     9  H    0.163968
    10  O   -0.574876
    11  C    0.621952
    12  N   -0.590306
    13  H    0.293085
    14  H    0.286625
    15  O   -0.550764
    16  N   -0.544232
    17  H    0.341431
    18  C    0.027149
    19  H    0.119116
    20  C    0.640747
    21  C   -0.287770
    22  H    0.125435
    23  H    0.130601
    24  O   -0.616115
    25  C    0.121383
    26  C   -0.129635
    27  H    0.111653
    28  C   -0.116591
    29  H    0.067746
    30  C   -0.090230
    31  H    0.103413
    32  C   -0.083760
    33  H    0.096131
    34  C   -0.082683
    35  H    0.102401
    36  N   -0.510366
    37  H    0.313707
    38  C   -0.053378
    39  H    0.156102
    40  C    0.638226
    41  C   -0.268089
    42  H    0.153609
    43  H    0.137156
    44  O   -0.529317
    45  C    0.606495
    46  N   -0.577033
    47  H    0.283392
    48  H    0.299097
    49  O   -0.547783
    50  N   -0.535026
    51  H    0.289333
    52  C   -0.029459
    53  H    0.178238
    54  C    0.598137
    55  C   -0.191289
    56  H    0.089287
    57  H    0.151834
    58  O   -0.452897
    59  C   -0.204665
    60  H    0.125879
    61  H    0.143184
    62  C   -0.078316
    63  H    0.113787
    64  H    0.145856
    65  N   -0.526460
    66  H    0.331743
    67  N   -0.615293
    68  H    0.306190
    69  H    0.309601
    70  N   -0.643642
    71  H    0.289874
    72  H    0.352620
    73  C    0.752631
    74  O   -0.480324
    75  H    0.336354
 Sum of Mulliken charges =   1.00000

 Dipole moment (field-independent basis, Debye):
    X=             -1.3846    Y=             10.2015    Z=             -6.0001  Tot=             11.9159
 Quadrupole moment (field-independent basis, Debye-Ang):
   XX=           -195.6355   YY=           -167.5087   ZZ=           -128.2210
   XY=             -4.1408   XZ=             13.9445   YZ=            -49.3089

 Normal termination of Gaussian 16 at Thu Sep  8 16:00:57 2022.
