 Gaussian 16, Revision C.01,
 Gaussian 16:  ES64L-G16RevC.01  3-Jul-2019

 -------------------------------------------------------------------
 # B3LYP/6-31G* guess=read geom=check nosymm integral(ultrafinegrid)
 -------------------------------------------------------------------

 ------------------------------------------------------
 Candidate Structure: Conf:879 Charge calc in gas phase
 ------------------------------------------------------
 Structure from the checkpoint file:  "conf-879.chk"
 Charge =  1 Multiplicity = 1

                          Input orientation:
 ---------------------------------------------------------------------
 Center     Atomic      Atomic             Coordinates (Angstroms)
 Number     Number       Type             X           Y           Z
 ---------------------------------------------------------------------
      1          7           0       -8.120538   -0.543695   -5.106045
      2          1           0       -8.820783   -0.672582   -4.370881
      3          1           0       -8.525165   -0.843063   -5.997657
      4          1           0       -7.825309    0.488596   -5.148967
      5          6           0       -6.790424   -1.209219   -4.801202
      6          1           0       -6.904982   -1.769058   -3.869735
      7          6           0       -5.849468    0.015716   -4.587646
      8          6           0       -6.356917   -2.125910   -5.944475
      9          1           0       -5.385383   -2.571765   -5.714556
     10          1           0       -7.069207   -2.945060   -6.087107
     11          1           0       -6.251849   -1.567718   -6.881294
     12          8           0       -6.328387    1.141499   -4.817063
     13          7           0       -4.619110   -0.247360   -4.185697
     14          1           0       -4.256886   -1.200343   -4.075261
     15          6           0       -3.561637    0.747003   -3.990347
     16          1           0       -3.541832    1.418962   -4.854338
     17          6           0       -2.271890   -0.102384   -3.929996
     18          6           0       -3.776017    1.591467   -2.693602
     19          1           0       -4.847888    1.814102   -2.636452
     20          1           0       -3.527960    0.972154   -1.824368
     21          8           0       -2.349346   -1.337091   -3.914567
     22          6           0       -3.001544    2.876799   -2.671778
     23          6           0       -1.886787    3.163857   -1.911208
     24          1           0       -1.328892    2.523963   -1.239808
     25          6           0       -3.317966    4.075986   -3.413596
     26          6           0       -2.350338    5.052622   -3.053543
     27          6           0       -4.324523    4.420279   -4.334355
     28          1           0       -5.083668    3.696467   -4.621457
     29          7           0       -1.495243    4.463031   -2.141601
     30          1           0       -0.714109    4.915922   -1.691366
     31          6           0       -3.362681    6.655169   -4.497190
     32          1           0       -3.399481    7.650534   -4.930190
     33          6           0       -2.359246    6.345434   -3.586987
     34          1           0       -1.612694    7.081038   -3.300606
     35          6           0       -4.335787    5.703498   -4.866131
     36          1           0       -5.107551    5.984229   -5.577343
     37          7           0       -1.115616    0.583294   -3.887235
     38          1           0       -1.173641    1.580917   -3.698109
     39          6           0        0.158102   -0.074412   -3.584115
     40          1           0        0.178429   -1.009622   -4.151776
     41          6           0        0.213881   -0.357012   -2.066236
     42          6           0        1.316068    0.844545   -4.003761
     43          1           0        1.161079    1.163631   -5.039571
     44          1           0        1.284985    1.747667   -3.383885
     45          8           0        0.010401    0.553692   -1.256394
     46          6           0        2.684692    0.175532   -3.860227
     47          1           0        2.820936   -0.286705   -2.875549
     48          1           0        2.803651   -0.638575   -4.589280
     49          6           0        3.828305    1.154182   -4.071968
     50          8           0        5.010561    0.634524   -3.713698
     51          8           0        3.690326    2.283459   -4.506773
     52          7           0        0.501185   -1.621591   -1.699871
     53          1           0        0.690903   -2.309226   -2.415979
     54          6           0        0.552213   -2.064725   -0.301771
     55          1           0       -0.097489   -1.370436    0.243553
     56          6           0        1.979532   -1.902241    0.289300
     57          6           0       -0.003320   -3.496832   -0.147735
     58          1           0        0.216481   -3.777648    0.888366
     59          8           0        2.621524   -2.851461    0.722403
     60          6           0       -1.526129   -3.510650   -0.352554
     61          1           0       -1.796635   -3.170926   -1.360585
     62          1           0       -1.922028   -4.524148   -0.222635
     63          1           0       -2.033168   -2.858230    0.368913
     64          6           0        0.692635   -4.528797   -1.051595
     65          1           0        0.447106   -4.384694   -2.113967
     66          1           0        1.776787   -4.493986   -0.924068
     67          1           0        0.352081   -5.537459   -0.793626
     68          7           0        2.419565   -0.614731    0.305300
     69          1           0        1.794471    0.145130    0.049210
     70          6           0        3.743657   -0.259029    0.772687
     71          1           0        4.123533   -1.118044    1.333913
     72          6           0        3.603926    0.992990    1.650875
     73          6           0        4.723665    0.047149   -0.399408
     74          1           0        4.413110    1.009956   -0.836933
     75          8           0        2.789534    1.871131    1.364734
     76          6           0        6.179950    0.142735    0.068279
     77          1           0        6.352557    0.963101    0.773138
     78          1           0        6.487230   -0.801504    0.533218
     79          1           0        6.832461    0.305973   -0.796876
     80          8           0        4.580427   -0.988753   -1.358554
     81          1           0        4.940972   -0.641645   -2.196684
     82          7           0        4.435809    1.081306    2.721255
     83          1           0        5.161371    0.385828    2.836048
     84          6           0        4.540476    2.310563    3.511577
     85          1           0        3.517899    2.670942    3.664125
     86          6           0        5.349784    3.348115    2.697405
     87          6           0        5.199261    2.037099    4.878757
     88          1           0        6.213832    1.667890    4.673778
     89          8           0        6.569464    3.256875    2.572151
     90          6           0        5.329546    3.337289    5.687007
     91          1           0        4.346267    3.787113    5.875332
     92          1           0        5.954769    4.073049    5.172471
     93          1           0        5.790741    3.132527    6.658869
     94          6           0        4.423314    0.978226    5.676222
     95          1           0        3.409607    1.328176    5.908652
     96          1           0        4.930049    0.773707    6.625512
     97          1           0        4.330109    0.030394    5.136461
     98          7           0        4.603066    4.330207    2.130466
     99          1           0        3.593798    4.288773    2.203768
    100          6           0        5.153444    5.455155    1.395333
    101          1           0        6.180323    5.612287    1.737709
    102          6           0        4.311768    6.679389    1.736201
    103          6           0        5.144756    5.251501   -0.144109
    104          1           0        5.246406    6.229694   -0.630985
    105          1           0        4.158656    4.855820   -0.421183
    106          8           0        3.164608    6.641866    2.125211
    107          6           0        6.253086    4.317736   -0.647986
    108          1           0        7.224360    4.815393   -0.519543
    109          1           0        6.292931    3.416727   -0.027094
    110          6           0        6.051463    3.923210   -2.117250
    111          1           0        5.140076    3.319982   -2.215007
    112          1           0        5.888472    4.821771   -2.730587
    113          6           0        7.237374    3.140010   -2.685109
    114          1           0        7.522403    2.335903   -1.996738
    115          1           0        8.108960    3.803504   -2.780951
    116          7           0        6.886970    2.508099   -3.979663
    117          1           0        7.724606    2.160613   -4.446233
    118          1           0        5.754651    1.353058   -3.845608
    119          1           0        6.463023    3.194739   -4.604675
    120          8           0        4.980520    7.827014    1.501116
    121          1           0        4.365187    8.558115    1.701984
 ---------------------------------------------------------------------

 SCF Done:  E(RB3LYP) =  -2843.68101959     A.U. after    1 cycles

 Alpha  occ. eigenvalues --  -19.27621 -19.25873 -19.22548 -19.22384 -19.20250
 Alpha  occ. eigenvalues --  -19.19297 -19.18501 -19.18450 -19.17480 -19.16415
 Alpha  occ. eigenvalues --  -19.16116 -14.60491 -14.49702 -14.45439 -14.44797
 Alpha  occ. eigenvalues --  -14.43965 -14.42224 -14.41293 -14.41196 -14.40182
 Alpha  occ. eigenvalues --  -10.44126 -10.41861 -10.39084 -10.38176 -10.36915
 Alpha  occ. eigenvalues --  -10.36354 -10.34512 -10.34469 -10.34399 -10.33702
 Alpha  occ. eigenvalues --  -10.33401 -10.31772 -10.29599 -10.29150 -10.29097
 Alpha  occ. eigenvalues --  -10.28893 -10.28777 -10.28474 -10.28458 -10.28140
 Alpha  occ. eigenvalues --  -10.27997 -10.26437 -10.25876 -10.25754 -10.25219
 Alpha  occ. eigenvalues --  -10.25178 -10.25099 -10.25023 -10.24938 -10.24674
 Alpha  occ. eigenvalues --  -10.24580 -10.24415 -10.24400 -10.23899 -10.23339
 Alpha  occ. eigenvalues --  -10.22681 -10.22672 -10.22254 -10.22022  -1.19904
 Alpha  occ. eigenvalues --   -1.16797  -1.14506  -1.13978  -1.13925  -1.11113
 Alpha  occ. eigenvalues --   -1.09606  -1.08330  -1.07900  -1.07726  -1.06416
 Alpha  occ. eigenvalues --   -1.06244  -1.05179  -1.04716  -1.02110  -1.00018
 Alpha  occ. eigenvalues --   -0.98380  -0.97862  -0.96704  -0.96625  -0.93953
 Alpha  occ. eigenvalues --   -0.90441  -0.89506  -0.87505  -0.86451  -0.85918
 Alpha  occ. eigenvalues --   -0.85470  -0.84820  -0.82616  -0.82041  -0.81880
 Alpha  occ. eigenvalues --   -0.80391  -0.79903  -0.78976  -0.77779  -0.76743
 Alpha  occ. eigenvalues --   -0.76327  -0.75506  -0.74673  -0.73996  -0.73885
 Alpha  occ. eigenvalues --   -0.73153  -0.72966  -0.71566  -0.70775  -0.68972
 Alpha  occ. eigenvalues --   -0.68725  -0.68641  -0.67754  -0.66491  -0.66281
 Alpha  occ. eigenvalues --   -0.65854  -0.65642  -0.65006  -0.64553  -0.64054
 Alpha  occ. eigenvalues --   -0.63797  -0.63467  -0.63340  -0.63306  -0.62841
 Alpha  occ. eigenvalues --   -0.62277  -0.60808  -0.60308  -0.59768  -0.59198
 Alpha  occ. eigenvalues --   -0.58573  -0.57550  -0.57321  -0.56839  -0.56567
 Alpha  occ. eigenvalues --   -0.56248  -0.55797  -0.55309  -0.55192  -0.54928
 Alpha  occ. eigenvalues --   -0.54716  -0.54643  -0.54604  -0.53922  -0.53646
 Alpha  occ. eigenvalues --   -0.53490  -0.53209  -0.52936  -0.52513  -0.52472
 Alpha  occ. eigenvalues --   -0.52227  -0.52089  -0.51921  -0.51841  -0.51132
 Alpha  occ. eigenvalues --   -0.50770  -0.50648  -0.50160  -0.50116  -0.49659
 Alpha  occ. eigenvalues --   -0.49378  -0.49307  -0.49282  -0.48657  -0.48547
 Alpha  occ. eigenvalues --   -0.48356  -0.48058  -0.47439  -0.47176  -0.46909
 Alpha  occ. eigenvalues --   -0.46710  -0.46594  -0.46178  -0.46113  -0.45806
 Alpha  occ. eigenvalues --   -0.45613  -0.45362  -0.45085  -0.44743  -0.44605
 Alpha  occ. eigenvalues --   -0.44307  -0.44096  -0.44013  -0.43773  -0.43306
 Alpha  occ. eigenvalues --   -0.43118  -0.42804  -0.42753  -0.42642  -0.42427
 Alpha  occ. eigenvalues --   -0.42230  -0.42076  -0.41793  -0.41718  -0.41472
 Alpha  occ. eigenvalues --   -0.40737  -0.40061  -0.39922  -0.39838  -0.39722
 Alpha  occ. eigenvalues --   -0.39589  -0.39510  -0.39043  -0.39009  -0.38776
 Alpha  occ. eigenvalues --   -0.38612  -0.38540  -0.37876  -0.37773  -0.37349
 Alpha  occ. eigenvalues --   -0.36716  -0.36114  -0.35937  -0.34141  -0.34019
 Alpha  occ. eigenvalues --   -0.33948  -0.33689  -0.32948  -0.32780  -0.31977
 Alpha  occ. eigenvalues --   -0.31898  -0.31300  -0.30519  -0.29446  -0.29071
 Alpha  occ. eigenvalues --   -0.28961  -0.28807  -0.27229
 Alpha virt. eigenvalues --   -0.12799  -0.11730  -0.08041  -0.07671  -0.06816
 Alpha virt. eigenvalues --   -0.05817  -0.05226  -0.04990  -0.04092  -0.03898
 Alpha virt. eigenvalues --   -0.03745  -0.02823  -0.02218  -0.01925  -0.01368

 Mulliken charges:
               1
     1  N   -0.759397
     2  H    0.418030
     3  H    0.414842
     4  H    0.438300
     5  C   -0.105658
     6  H    0.226764
     7  C    0.656482
     8  C   -0.484620
     9  H    0.222067
    10  H    0.196574
    11  H    0.196834
    12  O   -0.542228
    13  N   -0.613979
    14  H    0.376812
    15  C   -0.060914
    16  H    0.207620
    17  C    0.626973
    18  C   -0.358751
    19  H    0.176925
    20  H    0.174276
    21  O   -0.552997
    22  C   -0.002579
    23  C   -0.016334
    24  H    0.217779
    25  C    0.092032
    26  C    0.311298
    27  C   -0.225522
    28  H    0.133531
    29  N   -0.684570
    30  H    0.343343
    31  C   -0.148567
    32  H    0.138995
    33  C   -0.157715
    34  H    0.137863
    35  C   -0.138759
    36  H    0.128735
    37  N   -0.607799
    38  H    0.365445
    39  C   -0.052639
    40  H    0.165383
    41  C    0.635089
    42  C   -0.282092
    43  H    0.171111
    44  H    0.173134
    45  O   -0.554072
    46  C   -0.403397
    47  H    0.203402
    48  H    0.174365
    49  C    0.609417
    50  O   -0.651060
    51  O   -0.494614
    52  N   -0.586443
    53  H    0.348240
    54  C   -0.078955
    55  H    0.181989
    56  C    0.637454
    57  C   -0.080153
    58  H    0.164847
    59  O   -0.516784
    60  C   -0.459902
    61  H    0.144576
    62  H    0.149736
    63  H    0.140811
    64  C   -0.476699
    65  H    0.118507
    66  H    0.196996
    67  H    0.156343
    68  N   -0.617507
    69  H    0.366652
    70  C   -0.060412
    71  H    0.180670
    72  C    0.619773
    73  C    0.140804
    74  H    0.121283
    75  O   -0.547376
    76  C   -0.494676
    77  H    0.167995
    78  H    0.161215
    79  H    0.149894
    80  O   -0.645786
    81  H    0.428904
    82  N   -0.604322
    83  H    0.342295
    84  C   -0.026397
    85  H    0.160411
    86  C    0.631549
    87  C   -0.105948
    88  H    0.152005
    89  O   -0.549685
    90  C   -0.462265
    91  H    0.144571
    92  H    0.167509
    93  H    0.156943
    94  C   -0.447561
    95  H    0.147849
    96  H    0.156724
    97  H    0.145809
    98  N   -0.591441
    99  H    0.358455
   100  C   -0.040922
   101  H    0.199318
   102  C    0.575603
   103  C   -0.268789
   104  H    0.156861
   105  H    0.151646
   106  O   -0.465523
   107  C   -0.276403
   108  H    0.146526
   109  H    0.175784
   110  C   -0.278563
   111  H    0.162093
   112  H    0.139313
   113  C   -0.142951
   114  H    0.165219
   115  H    0.150566
   116  N   -0.785710
   117  H    0.333299
   118  H    0.478981
   119  H    0.341739
   120  O   -0.560333
   121  H    0.418593
 Sum of Mulliken charges =   1.00000

 Dipole moment (field-independent basis, Debye):
    X=            -20.8527    Y=              2.1412    Z=            -21.1729  Tot=             29.7944
 Quadrupole moment (field-independent basis, Debye-Ang):
   XX=            -71.9428   YY=           -299.5571   ZZ=           -222.6810
   XY=             71.7345   XZ=            124.9889   YZ=             17.1879

 Normal termination of Gaussian 16 at Thu Jun 30 12:46:35 2022.
