 Gaussian 16, Revision C.01,
 Gaussian 16:  ES64L-G16RevC.01  3-Jul-2019

 -------------------------------------------------------------------
 # B3LYP/6-31G* guess=read geom=check nosymm integral(ultrafinegrid)
 -------------------------------------------------------------------

 ------------------------------------------------------
 Candidate Structure: Conf:772 Charge calc in gas phase
 ------------------------------------------------------
 Structure from the checkpoint file:  "conf-772.chk"
 Charge =  1 Multiplicity = 1

                          Input orientation:
 ---------------------------------------------------------------------
 Center     Atomic      Atomic             Coordinates (Angstroms)
 Number     Number       Type             X           Y           Z
 ---------------------------------------------------------------------
      1          7           0        0.535552   -2.014243   -6.950685
      2          1           0       -0.321283   -1.613617   -7.359255
      3          1           0        1.084522   -2.485489   -7.672512
      4          1           0        1.128741   -1.170421   -6.505050
      5          6           0        0.090632   -2.955735   -5.865885
      6          1           0       -0.344216   -3.834601   -6.356433
      7          6           0       -1.073968   -2.191707   -5.188299
      8          6           0        1.272037   -3.364932   -4.990406
      9          1           0        0.958977   -4.102679   -4.245199
     10          1           0        2.048796   -3.844749   -5.595317
     11          1           0        1.711350   -2.497963   -4.489531
     12          8           0       -1.749132   -1.433800   -5.891004
     13          7           0       -1.296283   -2.413856   -3.880890
     14          1           0       -0.603100   -2.915649   -3.340060
     15          6           0       -2.241864   -1.591173   -3.099388
     16          1           0       -3.025542   -1.276361   -3.790279
     17          6           0       -1.406426   -0.387795   -2.610074
     18          6           0       -2.841715   -2.404111   -1.941737
     19          1           0       -3.195307   -3.359459   -2.351551
     20          1           0       -2.042797   -2.625496   -1.224843
     21          8           0       -0.602439   -0.521296   -1.684621
     22          6           0       -3.960358   -1.674719   -1.259263
     23          6           0       -3.922544   -1.100308   -0.012074
     24          1           0       -3.115858   -1.075393    0.707526
     25          6           0       -5.280208   -1.423669   -1.788561
     26          6           0       -5.990489   -0.686214   -0.802097
     27          6           0       -5.936196   -1.755622   -2.988230
     28          1           0       -5.429882   -2.333761   -3.758118
     29          7           0       -5.134764   -0.506112    0.267136
     30          1           0       -5.363140   -0.028915    1.125543
     31          6           0       -7.931803   -0.611857   -2.182642
     32          1           0       -8.959871   -0.307803   -2.356309
     33          6           0       -7.314232   -0.273313   -0.984744
     34          1           0       -7.842274    0.288706   -0.219233
     35          6           0       -7.250678   -1.347667   -3.174187
     36          1           0       -7.767452   -1.601375   -4.095338
     37          7           0       -1.510577    0.742399   -3.347875
     38          1           0       -2.212197    0.781827   -4.076327
     39          6           0       -0.512431    1.819281   -3.300531
     40          1           0        0.426781    1.343399   -2.994226
     41          6           0       -0.795033    2.891877   -2.219243
     42          6           0       -0.328670    2.454206   -4.682639
     43          1           0       -1.285009    2.860953   -5.033544
     44          1           0        0.339138    3.308374   -4.564294
     45          8           0       -0.884269    4.082416   -2.494097
     46          6           0        0.241259    1.489152   -5.733911
     47          1           0       -0.443725    0.658240   -5.926792
     48          1           0        0.348926    2.030740   -6.684281
     49          6           0        1.623340    0.937420   -5.385524
     50          8           0        1.976831   -0.219388   -5.775753
     51          8           0        2.382543    1.702963   -4.718851
     52          7           0       -0.861180    2.398050   -0.948008
     53          1           0       -0.548178    1.437036   -0.821376
     54          6           0       -0.684155    3.301874    0.184581
     55          1           0       -1.256078    4.208438   -0.035712
     56          6           0        0.818721    3.644324    0.263428
     57          6           0       -1.203674    2.667504    1.496725
     58          1           0       -0.610257    1.757930    1.671104
     59          8           0        1.676609    2.762161    0.119286
     60          6           0       -1.001435    3.609454    2.693559
     61          1           0       -1.561882    4.543760    2.558005
     62          1           0       -1.367585    3.138621    3.611846
     63          1           0        0.050372    3.866610    2.851563
     64          6           0       -2.683262    2.278661    1.366444
     65          1           0       -3.306569    3.167991    1.209143
     66          1           0       -2.854530    1.598510    0.527710
     67          1           0       -3.025930    1.791782    2.287432
     68          7           0        1.143312    4.937134    0.472845
     69          1           0        0.432290    5.645238    0.617101
     70          6           0        2.509026    5.435116    0.351297
     71          1           0        3.011918    4.814028   -0.400255
     72          6           0        3.302197    5.302176    1.674591
     73          6           0        2.468226    6.907111   -0.108435
     74          1           0        3.501738    7.277516   -0.101928
     75          8           0        3.753060    6.291453    2.255399
     76          6           0        1.876631    7.079003   -1.502551
     77          1           0        2.514909    6.598877   -2.253038
     78          1           0        0.875953    6.642005   -1.581513
     79          1           0        1.806983    8.144921   -1.736648
     80          8           0        1.675941    7.654058    0.810231
     81          1           0        2.197507    7.668442    1.634709
     82          7           0        3.482813    4.025911    2.100249
     83          1           0        3.067824    3.273986    1.549078
     84          6           0        4.401311    3.676546    3.188847
     85          1           0        5.031353    4.559209    3.336532
     86          6           0        5.247459    2.515581    2.643393
     87          6           0        3.717388    3.354717    4.546182
     88          1           0        4.527630    3.004341    5.203952
     89          8           0        4.766751    1.408538    2.408568
     90          6           0        3.132586    4.634487    5.163738
     91          1           0        2.323240    5.037387    4.544559
     92          1           0        3.888098    5.420130    5.269467
     93          1           0        2.720161    4.420918    6.156033
     94          6           0        2.656863    2.247240    4.467780
     95          1           0        1.830809    2.545368    3.811086
     96          1           0        2.236566    2.066423    5.463561
     97          1           0        3.071597    1.313042    4.085318
     98          7           0        6.540503    2.823496    2.338460
     99          1           0        6.961802    3.685541    2.664805
    100          6           0        7.452480    1.826510    1.804572
    101          1           0        7.138631    0.844209    2.174198
    102          6           0        8.843963    2.138425    2.341139
    103          6           0        7.480179    1.784421    0.252412
    104          1           0        8.194198    1.008398   -0.048982
    105          1           0        7.870452    2.742349   -0.118508
    106          8           0        9.147519    3.166894    2.904740
    107          6           0        6.103576    1.512276   -0.368594
    108          1           0        5.682618    0.592490    0.051954
    109          1           0        5.413932    2.314817   -0.085187
    110          6           0        6.147598    1.413557   -1.900434
    111          1           0        6.612522    2.318682   -2.319264
    112          1           0        6.775833    0.564934   -2.207281
    113          6           0        4.742493    1.256315   -2.479609
    114          1           0        4.100631    2.100842   -2.212757
    115          1           0        4.251743    0.351686   -2.109893
    116          7           0        4.731665    1.169662   -3.979198
    117          1           0        3.647608    1.293850   -4.386511
    118          1           0        5.293062    1.922830   -4.386165
    119          1           0        5.132199    0.288320   -4.307494
    120          8           0        9.713305    1.142121    2.084112
    121          1           0       10.579688    1.422993    2.436984
 ---------------------------------------------------------------------

 SCF Done:  E(RB3LYP) =  -2843.70044324     A.U. after    1 cycles

 Alpha  occ. eigenvalues --  -19.27634 -19.24681 -19.22640 -19.22457 -19.22084
 Alpha  occ. eigenvalues --  -19.21150 -19.19549 -19.18920 -19.18580 -19.18355
 Alpha  occ. eigenvalues --  -19.18350 -14.54209 -14.52209 -14.48778 -14.45683
 Alpha  occ. eigenvalues --  -14.44335 -14.43404 -14.43241 -14.42104 -14.41933
 Alpha  occ. eigenvalues --  -10.41994 -10.40057 -10.39881 -10.38444 -10.38174
 Alpha  occ. eigenvalues --  -10.35740 -10.35581 -10.35475 -10.35229 -10.34299
 Alpha  occ. eigenvalues --  -10.33325 -10.31744 -10.31631 -10.31373 -10.29827
 Alpha  occ. eigenvalues --  -10.29774 -10.29753 -10.29550 -10.29289 -10.28515
 Alpha  occ. eigenvalues --  -10.28003 -10.27968 -10.27783 -10.27548 -10.27190
 Alpha  occ. eigenvalues --  -10.26956 -10.26488 -10.25037 -10.24922 -10.24733
 Alpha  occ. eigenvalues --  -10.24683 -10.24628 -10.24163 -10.23978 -10.23977
 Alpha  occ. eigenvalues --  -10.23896 -10.23042 -10.22094 -10.21808  -1.18619
 Alpha  occ. eigenvalues --   -1.16918  -1.15671  -1.12969  -1.11102  -1.10610
 Alpha  occ. eigenvalues --   -1.10151  -1.09735  -1.09600  -1.09537  -1.07665
 Alpha  occ. eigenvalues --   -1.07078  -1.06031  -1.04860  -1.04205  -1.01713
 Alpha  occ. eigenvalues --   -0.99741  -0.99581  -0.98814  -0.98251  -0.91073
 Alpha  occ. eigenvalues --   -0.90032  -0.89789  -0.88497  -0.87709  -0.87179
 Alpha  occ. eigenvalues --   -0.86328  -0.85119  -0.83770  -0.83423  -0.81182
 Alpha  occ. eigenvalues --   -0.80252  -0.79531  -0.79179  -0.78659  -0.77885
 Alpha  occ. eigenvalues --   -0.77068  -0.75239  -0.74800  -0.74389  -0.73757
 Alpha  occ. eigenvalues --   -0.72961  -0.71820  -0.70815  -0.70120  -0.69394
 Alpha  occ. eigenvalues --   -0.68506  -0.68350  -0.68216  -0.67904  -0.67495
 Alpha  occ. eigenvalues --   -0.67254  -0.66197  -0.65942  -0.65584  -0.65380
 Alpha  occ. eigenvalues --   -0.64893  -0.64411  -0.64160  -0.63196  -0.62516
 Alpha  occ. eigenvalues --   -0.62321  -0.61923  -0.60795  -0.60180  -0.59820
 Alpha  occ. eigenvalues --   -0.58978  -0.58776  -0.58604  -0.58081  -0.57818
 Alpha  occ. eigenvalues --   -0.57695  -0.57223  -0.56816  -0.56355  -0.56170
 Alpha  occ. eigenvalues --   -0.55913  -0.54971  -0.54731  -0.54629  -0.54489
 Alpha  occ. eigenvalues --   -0.54351  -0.53698  -0.53473  -0.53074  -0.53016
 Alpha  occ. eigenvalues --   -0.52753  -0.52618  -0.52386  -0.52167  -0.51723
 Alpha  occ. eigenvalues --   -0.51654  -0.51155  -0.51010  -0.50542  -0.50382
 Alpha  occ. eigenvalues --   -0.50317  -0.49726  -0.49346  -0.49210  -0.49032
 Alpha  occ. eigenvalues --   -0.48878  -0.48816  -0.48625  -0.48500  -0.48264
 Alpha  occ. eigenvalues --   -0.47683  -0.47458  -0.47128  -0.46991  -0.46952
 Alpha  occ. eigenvalues --   -0.46713  -0.46518  -0.46171  -0.46046  -0.45775
 Alpha  occ. eigenvalues --   -0.45588  -0.44996  -0.44836  -0.44733  -0.44601
 Alpha  occ. eigenvalues --   -0.44064  -0.44037  -0.43937  -0.43671  -0.43541
 Alpha  occ. eigenvalues --   -0.43324  -0.43039  -0.43007  -0.42653  -0.42285
 Alpha  occ. eigenvalues --   -0.42174  -0.41734  -0.41277  -0.40551  -0.40463
 Alpha  occ. eigenvalues --   -0.39716  -0.39658  -0.39580  -0.39451  -0.39220
 Alpha  occ. eigenvalues --   -0.39169  -0.38682  -0.38637  -0.38604  -0.38321
 Alpha  occ. eigenvalues --   -0.38150  -0.36917  -0.36754  -0.36182  -0.35744
 Alpha  occ. eigenvalues --   -0.35088  -0.34618  -0.33601  -0.33441  -0.33043
 Alpha  occ. eigenvalues --   -0.32753  -0.32536  -0.32061  -0.31093  -0.30579
 Alpha  occ. eigenvalues --   -0.30197  -0.28262  -0.26626
 Alpha virt. eigenvalues --   -0.11630  -0.07519  -0.07187  -0.07159  -0.06994
 Alpha virt. eigenvalues --   -0.06269  -0.06068  -0.06034  -0.05690  -0.04646
 Alpha virt. eigenvalues --   -0.03439  -0.03131  -0.02589  -0.01314  -0.01202

 Mulliken charges:
               1
     1  N   -0.775673
     2  H    0.405540
     3  H    0.386239
     4  H    0.459165
     5  C   -0.105937
     6  H    0.219043
     7  C    0.657138
     8  C   -0.489581
     9  H    0.185956
    10  H    0.181244
    11  H    0.204739
    12  O   -0.532994
    13  N   -0.602739
    14  H    0.355887
    15  C   -0.065263
    16  H    0.193691
    17  C    0.638224
    18  C   -0.368645
    19  H    0.162891
    20  H    0.167386
    21  O   -0.547687
    22  C    0.048730
    23  C    0.008899
    24  H    0.165278
    25  C    0.082996
    26  C    0.314233
    27  C   -0.217580
    28  H    0.117178
    29  N   -0.688554
    30  H    0.338118
    31  C   -0.150119
    32  H    0.139072
    33  C   -0.158183
    34  H    0.136263
    35  C   -0.137384
    36  H    0.131861
    37  N   -0.590172
    38  H    0.352536
    39  C   -0.085118
    40  H    0.190984
    41  C    0.630839
    42  C   -0.280123
    43  H    0.160071
    44  H    0.195913
    45  O   -0.517597
    46  C   -0.392299
    47  H    0.155427
    48  H    0.182644
    49  C    0.644415
    50  O   -0.623329
    51  O   -0.593653
    52  N   -0.613416
    53  H    0.368250
    54  C   -0.039141
    55  H    0.169769
    56  C    0.630445
    57  C   -0.099073
    58  H    0.147369
    59  O   -0.574458
    60  C   -0.473206
    61  H    0.148185
    62  H    0.159981
    63  H    0.167828
    64  C   -0.460138
    65  H    0.152064
    66  H    0.165867
    67  H    0.140235
    68  N   -0.587520
    69  H    0.356287
    70  C   -0.067016
    71  H    0.161134
    72  C    0.624669
    73  C    0.109207
    74  H    0.146092
    75  O   -0.540197
    76  C   -0.456110
    77  H    0.134440
    78  H    0.169562
    79  H    0.173524
    80  O   -0.644504
    81  H    0.417809
    82  N   -0.640328
    83  H    0.384031
    84  C   -0.039788
    85  H    0.169382
    86  C    0.609908
    87  C   -0.074026
    88  H    0.134676
    89  O   -0.530376
    90  C   -0.448614
    91  H    0.150925
    92  H    0.156373
    93  H    0.148767
    94  C   -0.469000
    95  H    0.143301
    96  H    0.143905
    97  H    0.181691
    98  N   -0.613684
    99  H    0.357210
   100  C   -0.037666
   101  H    0.203184
   102  C    0.582490
   103  C   -0.269298
   104  H    0.163554
   105  H    0.147336
   106  O   -0.456893
   107  C   -0.266080
   108  H    0.174778
   109  H    0.162834
   110  C   -0.279137
   111  H    0.146767
   112  H    0.147203
   113  C   -0.175927
   114  H    0.215624
   115  H    0.198491
   116  N   -0.776418
   117  H    0.461437
   118  H    0.377785
   119  H    0.374958
   120  O   -0.563047
   121  H    0.425762
 Sum of Mulliken charges =   1.00000

 Dipole moment (field-independent basis, Debye):
    X=             11.5524    Y=             -5.7777    Z=            -19.5373  Tot=             23.4210
 Quadrupole moment (field-independent basis, Debye-Ang):
   XX=           -217.8686   YY=           -337.4944   ZZ=           -201.2938
   XY=              6.0063   XZ=            -46.0837   YZ=             43.5118

 Normal termination of Gaussian 16 at Thu Jun 30 12:46:40 2022.
