 Gaussian 16, Revision C.01,
 Gaussian 16:  ES64L-G16RevC.01  3-Jul-2019

 -------------------------------------------------------------------
 # B3LYP/6-31G* guess=read geom=check nosymm integral(ultrafinegrid)
 -------------------------------------------------------------------

 ------------------------------------------------------
 Candidate Structure: Conf:231 Charge calc in gas phase
 ------------------------------------------------------
 Structure from the checkpoint file:  "conf-231.chk"
 Charge =  1 Multiplicity = 1

                          Input orientation:
 ---------------------------------------------------------------------
 Center     Atomic      Atomic             Coordinates (Angstroms)
 Number     Number       Type             X           Y           Z
 ---------------------------------------------------------------------
      1          7           0       -4.100306    2.189333   -4.847672
      2          1           0       -4.483305    2.714700   -4.059497
      3          1           0       -4.295381    2.725065   -5.693467
      4          1           0       -2.381605    2.460969   -4.553833
      5          6           0       -4.824597    0.898232   -4.909454
      6          1           0       -5.877929    1.060684   -5.191648
      7          6           0       -4.858329    0.357861   -3.466720
      8          6           0       -4.181495   -0.025134   -5.947306
      9          1           0       -4.774999   -0.931030   -6.110209
     10          1           0       -4.120301    0.488560   -6.912572
     11          1           0       -3.166496   -0.310693   -5.652458
     12          8           0       -4.808934    1.157743   -2.520252
     13          7           0       -4.930174   -0.977182   -3.289329
     14          1           0       -5.048005   -1.577236   -4.096244
     15          6           0       -5.050373   -1.602126   -1.959270
     16          1           0       -5.659557   -0.925519   -1.349479
     17          6           0       -3.637497   -1.705476   -1.327984
     18          6           0       -5.721708   -2.987314   -2.049938
     19          1           0       -4.991186   -3.699564   -2.448325
     20          1           0       -5.919226   -3.315979   -1.024045
     21          8           0       -3.051232   -2.778170   -1.174491
     22          6           0       -6.978360   -3.002907   -2.872775
     23          6           0       -8.258218   -2.728734   -2.454765
     24          1           0       -8.626042   -2.496469   -1.464193
     25          6           0       -7.062567   -3.261587   -4.290533
     26          6           0       -8.426627   -3.113724   -4.667149
     27          6           0       -6.121752   -3.612856   -5.279025
     28          1           0       -5.079290   -3.789265   -5.018484
     29          7           0       -9.127765   -2.786962   -3.525040
     30          1           0      -10.128261   -2.673576   -3.465905
     31          6           0       -7.907055   -3.622547   -6.939200
     32          1           0       -8.214174   -3.770517   -7.970272
     33          6           0       -8.861791   -3.291399   -5.984453
     34          1           0       -9.908382   -3.178632   -6.254004
     35          6           0       -6.550396   -3.785290   -6.590836
     36          1           0       -5.835346   -4.069872   -7.357492
     37          7           0       -3.079783   -0.509073   -1.010297
     38          1           0       -3.627494    0.328637   -1.204731
     39          6           0       -1.641334   -0.383014   -0.782796
     40          1           0       -1.169214   -1.206165   -1.334375
     41          6           0       -1.268488   -0.567362    0.703006
     42          6           0       -1.113355    0.951807   -1.317789
     43          1           0       -1.636838    1.776407   -0.820295
     44          1           0       -0.063119    1.030646   -1.025762
     45          8           0       -0.957907    0.387500    1.421630
     46          6           0       -1.263197    1.050137   -2.842330
     47          1           0       -0.675798    0.255378   -3.324844
     48          1           0       -2.303080    0.893472   -3.128556
     49          6           0       -0.772991    2.365703   -3.425946
     50          8           0       -1.488913    2.915260   -4.385198
     51          8           0        0.273393    2.901504   -3.062506
     52          7           0       -1.258402   -1.857395    1.110745
     53          1           0       -1.584700   -2.562381    0.453166
     54          6           0       -0.854559   -2.263079    2.465202
     55          1           0       -1.182053   -1.466587    3.144081
     56          6           0        0.697591   -2.316575    2.471015
     57          6           0       -1.495003   -3.598423    2.884256
     58          1           0       -1.058761   -4.382227    2.251190
     59          8           0        1.340085   -3.357250    2.418722
     60          6           0       -1.139291   -3.920357    4.344571
     61          1           0       -1.535738   -3.154835    5.024397
     62          1           0       -1.579184   -4.879825    4.636235
     63          1           0       -0.058263   -3.991378    4.488160
     64          6           0       -3.019944   -3.584313    2.691498
     65          1           0       -3.484270   -2.782060    3.279249
     66          1           0       -3.313115   -3.450044    1.645275
     67          1           0       -3.445743   -4.533950    3.032824
     68          7           0        1.274991   -1.073605    2.483717
     69          1           0        0.657368   -0.269468    2.376870
     70          6           0        2.691405   -0.892163    2.234498
     71          1           0        3.173556   -1.857326    2.410188
     72          6           0        3.245131    0.204380    3.144304
     73          6           0        3.005607   -0.431601    0.776149
     74          1           0        4.085826   -0.231308    0.725456
     75          8           0        2.777083    1.354713    3.070160
     76          6           0        2.617898   -1.451445   -0.280859
     77          1           0        3.183370   -2.378245   -0.145571
     78          1           0        1.551845   -1.687872   -0.224007
     79          1           0        2.837948   -1.057913   -1.279244
     80          8           0        2.289802    0.800475    0.518236
     81          1           0        2.255362    1.267970    1.391314
     82          7           0        4.293898   -0.096036    3.934344
     83          1           0        4.723901   -1.004263    3.812367
     84          6           0        5.152460    0.966771    4.460301
     85          1           0        4.511244    1.679696    4.989363
     86          6           0        5.822940    1.650787    3.244398
     87          6           0        6.192333    0.370282    5.441950
     88          1           0        6.790818   -0.351806    4.866311
     89          8           0        6.222698    0.985298    2.292778
     90          6           0        7.143943    1.446314    5.985673
     91          1           0        6.593694    2.209089    6.551976
     92          1           0        7.706656    1.952835    5.196834
     93          1           0        7.866137    0.990317    6.670376
     94          6           0        5.499579   -0.365310    6.600371
     95          1           0        4.899964    0.330404    7.200166
     96          1           0        6.248019   -0.815170    7.260992
     97          1           0        4.835003   -1.163413    6.255640
     98          7           0        5.927795    3.006694    3.296726
     99          1           0        5.623017    3.492628    4.129082
    100          6           0        6.664949    3.756926    2.291371
    101          1           0        7.250505    3.014881    1.735527
    102          6           0        7.673929    4.731855    2.903021
    103          6           0        5.768143    4.518213    1.290224
    104          1           0        6.433205    5.136388    0.677516
    105          1           0        5.117384    5.208810    1.844754
    106          8           0        8.321979    5.515282    2.250568
    107          6           0        4.917717    3.614736    0.385531
    108          1           0        5.563862    2.876446   -0.107640
    109          1           0        4.206602    3.043453    0.995891
    110          6           0        4.189789    4.451138   -0.680773
    111          1           0        3.543989    5.201649   -0.199971
    112          1           0        4.930556    5.025049   -1.251873
    113          6           0        3.366813    3.672618   -1.706438
    114          1           0        3.951918    2.881320   -2.183148
    115          1           0        2.990886    4.336241   -2.488943
    116          7           0        2.157178    3.007203   -1.103792
    117          1           0        1.443329    2.783322   -1.844319
    118          1           0        2.378706    2.129098   -0.569467
    119          1           0        1.688940    3.644307   -0.451759
    120          8           0        7.766884    4.632338    4.249812
    121          1           0        8.437686    5.285583    4.528985
 ---------------------------------------------------------------------

 SCF Done:  E(RB3LYP) =  -2843.72012393     A.U. after    3 cycles

 Alpha  occ. eigenvalues --  -19.28325 -19.26386 -19.24829 -19.22988 -19.22087
 Alpha  occ. eigenvalues --  -19.22023 -19.21862 -19.20768 -19.19997 -19.19884
 Alpha  occ. eigenvalues --  -19.18614 -14.52836 -14.46108 -14.45735 -14.44957
 Alpha  occ. eigenvalues --  -14.44887 -14.44224 -14.43806 -14.43725 -14.42741
 Alpha  occ. eigenvalues --  -10.41334 -10.40464 -10.38774 -10.38456 -10.37393
 Alpha  occ. eigenvalues --  -10.37213 -10.36717 -10.35640 -10.34895 -10.33389
 Alpha  occ. eigenvalues --  -10.32979 -10.32552 -10.32362 -10.32092 -10.31996
 Alpha  occ. eigenvalues --  -10.31945 -10.30117 -10.29841 -10.29176 -10.28924
 Alpha  occ. eigenvalues --  -10.28720 -10.28527 -10.28143 -10.28016 -10.27843
 Alpha  occ. eigenvalues --  -10.27622 -10.27060 -10.26003 -10.25683 -10.25637
 Alpha  occ. eigenvalues --  -10.25593 -10.25467 -10.25355 -10.25031 -10.24986
 Alpha  occ. eigenvalues --  -10.24947 -10.24877 -10.23353 -10.22823  -1.19004
 Alpha  occ. eigenvalues --   -1.18201  -1.14276  -1.13775  -1.12334  -1.12018
 Alpha  occ. eigenvalues --   -1.11489  -1.11016  -1.10278  -1.09932  -1.09915
 Alpha  occ. eigenvalues --   -1.08004  -1.04776  -1.02311  -1.02149  -1.01332
 Alpha  occ. eigenvalues --   -1.01112  -1.00178  -0.99711  -0.99273  -0.90644
 Alpha  occ. eigenvalues --   -0.90604  -0.89414  -0.89041  -0.88131  -0.87088
 Alpha  occ. eigenvalues --   -0.86278  -0.85768  -0.85143  -0.83133  -0.81788
 Alpha  occ. eigenvalues --   -0.81580  -0.80847  -0.80279  -0.78692  -0.78366
 Alpha  occ. eigenvalues --   -0.76543  -0.75828  -0.75065  -0.74420  -0.74094
 Alpha  occ. eigenvalues --   -0.73504  -0.71673  -0.70154  -0.69857  -0.69641
 Alpha  occ. eigenvalues --   -0.69087  -0.68870  -0.68338  -0.68126  -0.67245
 Alpha  occ. eigenvalues --   -0.67068  -0.66782  -0.66285  -0.65937  -0.65818
 Alpha  occ. eigenvalues --   -0.65329  -0.65125  -0.63960  -0.63531  -0.62552
 Alpha  occ. eigenvalues --   -0.61774  -0.61475  -0.61105  -0.60797  -0.60225
 Alpha  occ. eigenvalues --   -0.59608  -0.59486  -0.59121  -0.58693  -0.58108
 Alpha  occ. eigenvalues --   -0.57706  -0.57466  -0.57069  -0.56742  -0.56322
 Alpha  occ. eigenvalues --   -0.55955  -0.55726  -0.55593  -0.55327  -0.55035
 Alpha  occ. eigenvalues --   -0.54433  -0.54295  -0.54045  -0.53884  -0.53759
 Alpha  occ. eigenvalues --   -0.53097  -0.52661  -0.52314  -0.51992  -0.51565
 Alpha  occ. eigenvalues --   -0.51146  -0.51041  -0.50492  -0.50427  -0.50013
 Alpha  occ. eigenvalues --   -0.49884  -0.49865  -0.49646  -0.49586  -0.49492
 Alpha  occ. eigenvalues --   -0.49277  -0.49066  -0.48650  -0.48522  -0.48164
 Alpha  occ. eigenvalues --   -0.48045  -0.47966  -0.47813  -0.47473  -0.47312
 Alpha  occ. eigenvalues --   -0.46969  -0.46878  -0.46650  -0.46564  -0.46368
 Alpha  occ. eigenvalues --   -0.46246  -0.46013  -0.45761  -0.45680  -0.45533
 Alpha  occ. eigenvalues --   -0.45460  -0.45188  -0.45108  -0.44615  -0.44390
 Alpha  occ. eigenvalues --   -0.44043  -0.43764  -0.43634  -0.43516  -0.43471
 Alpha  occ. eigenvalues --   -0.43281  -0.43093  -0.42791  -0.41941  -0.41895
 Alpha  occ. eigenvalues --   -0.41657  -0.40956  -0.40293  -0.40283  -0.40068
 Alpha  occ. eigenvalues --   -0.39927  -0.39889  -0.39504  -0.38962  -0.37790
 Alpha  occ. eigenvalues --   -0.37602  -0.37362  -0.36830  -0.36797  -0.36179
 Alpha  occ. eigenvalues --   -0.36079  -0.35766  -0.35355  -0.34911  -0.34272
 Alpha  occ. eigenvalues --   -0.33700  -0.33456  -0.33222  -0.32417  -0.32069
 Alpha  occ. eigenvalues --   -0.31041  -0.29079  -0.27181
 Alpha virt. eigenvalues --   -0.08723  -0.08361  -0.08217  -0.08031  -0.07391
 Alpha virt. eigenvalues --   -0.07051  -0.06270  -0.06132  -0.05330  -0.04482
 Alpha virt. eigenvalues --   -0.04082  -0.01782  -0.01323  -0.01186  -0.00814

 Mulliken charges:
               1
     1  N   -0.774426
     2  H    0.353474
     3  H    0.336709
     4  H    0.466551
     5  C   -0.064584
     6  H    0.182187
     7  C    0.640800
     8  C   -0.472290
     9  H    0.177142
    10  H    0.172118
    11  H    0.163084
    12  O   -0.564500
    13  N   -0.614990
    14  H    0.365077
    15  C   -0.051718
    16  H    0.188585
    17  C    0.633740
    18  C   -0.399229
    19  H    0.187491
    20  H    0.176138
    21  O   -0.535506
    22  C    0.066957
    23  C    0.005837
    24  H    0.162130
    25  C    0.068918
    26  C    0.315722
    27  C   -0.246702
    28  H    0.130851
    29  N   -0.687270
    30  H    0.339584
    31  C   -0.152736
    32  H    0.141867
    33  C   -0.157274
    34  H    0.140469
    35  C   -0.140596
    36  H    0.135828
    37  N   -0.620038
    38  H    0.381461
    39  C   -0.062946
    40  H    0.173192
    41  C    0.647387
    42  C   -0.298753
    43  H    0.174714
    44  H    0.161874
    45  O   -0.553495
    46  C   -0.404545
    47  H    0.184096
    48  H    0.173463
    49  C    0.623970
    50  O   -0.581597
    51  O   -0.522998
    52  N   -0.627252
    53  H    0.375277
    54  C   -0.041308
    55  H    0.173974
    56  C    0.622606
    57  C   -0.099260
    58  H    0.156756
    59  O   -0.521681
    60  C   -0.462040
    61  H    0.140724
    62  H    0.156393
    63  H    0.172679
    64  C   -0.460375
    65  H    0.144383
    66  H    0.150487
    67  H    0.157683
    68  N   -0.615708
    69  H    0.380294
    70  C   -0.128397
    71  H    0.189316
    72  C    0.669718
    73  C    0.146912
    74  H    0.165469
    75  O   -0.574475
    76  C   -0.460564
    77  H    0.178607
    78  H    0.164687
    79  H    0.147700
    80  O   -0.700620
    81  H    0.440796
    82  N   -0.589448
    83  H    0.351554
    84  C   -0.038278
    85  H    0.169392
    86  C    0.630541
    87  C   -0.114217
    88  H    0.150258
    89  O   -0.543590
    90  C   -0.467288
    91  H    0.144839
    92  H    0.167589
    93  H    0.167287
    94  C   -0.446317
    95  H    0.154434
    96  H    0.165623
    97  H    0.153441
    98  N   -0.596316
    99  H    0.345971
   100  C   -0.067842
   101  H    0.220116
   102  C    0.593278
   103  C   -0.264878
   104  H    0.184221
   105  H    0.144961
   106  O   -0.445191
   107  C   -0.283029
   108  H    0.163036
   109  H    0.152249
   110  C   -0.289816
   111  H    0.152660
   112  H    0.182035
   113  C   -0.178893
   114  H    0.198297
   115  H    0.210238
   116  N   -0.809977
   117  H    0.445318
   118  H    0.441108
   119  H    0.383657
   120  O   -0.571950
   121  H    0.426933
 Sum of Mulliken charges =   1.00000

 Dipole moment (field-independent basis, Debye):
    X=             -2.3920    Y=              6.8156    Z=             -4.1673  Tot=              8.3391
 Quadrupole moment (field-independent basis, Debye-Ang):
   XX=           -172.1123   YY=           -318.2651   ZZ=           -247.6818
   XY=             48.0275   XZ=            102.2135   YZ=             11.9171

 Normal termination of Gaussian 16 at Thu Jun 30 12:47:31 2022.
