 Gaussian 16, Revision C.01,
 Gaussian 16:  ES64L-G16RevC.01  3-Jul-2019

 -------------------------------------------------------------------
 # B3LYP/6-31G* guess=read geom=check nosymm integral(ultrafinegrid)
 -------------------------------------------------------------------

 -----------------------------------------------------
 Candidate Structure: Conf:34 Charge calc in gas phase
 -----------------------------------------------------
 Structure from the checkpoint file:  "conf-34.chk"
 Charge =  1 Multiplicity = 1

                          Input orientation:
 ---------------------------------------------------------------------
 Center     Atomic      Atomic             Coordinates (Angstroms)
 Number     Number       Type             X           Y           Z
 ---------------------------------------------------------------------
      1          7           0       -5.187848    0.418428   -6.913062
      2          1           0       -4.685906    1.187822   -7.400128
      3          1           0       -6.163400    0.396673   -7.219924
      4          1           0       -4.698699   -0.474754   -7.141698
      5          6           0       -5.036247    0.540987   -5.408554
      6          1           0       -5.017401    1.601410   -5.156462
      7          6           0       -3.658034   -0.132734   -5.177458
      8          6           0       -6.175973   -0.168493   -4.686813
      9          1           0       -6.059384    0.037148   -3.619952
     10          1           0       -7.149788    0.228329   -4.997147
     11          1           0       -6.151867   -1.249098   -4.862404
     12          8           0       -3.358442   -1.082439   -5.912055
     13          7           0       -2.906351    0.423205   -4.225029
     14          1           0       -3.379049    1.097434   -3.590141
     15          6           0       -1.505067    0.053156   -3.970567
     16          1           0       -1.394984   -1.015874   -4.182408
     17          6           0       -1.282399    0.350653   -2.478458
     18          6           0       -0.505707    0.862909   -4.833818
     19          1           0       -0.573691    1.910669   -4.524966
     20          1           0        0.498598    0.525371   -4.551909
     21          8           0       -0.808809    1.410936   -2.099817
     22          6           0       -0.724664    0.720837   -6.312472
     23          6           0       -0.129693   -0.197404   -7.141355
     24          1           0        0.633452   -0.930721   -6.917933
     25          6           0       -1.660750    1.450270   -7.134116
     26          6           0       -1.597295    0.894051   -8.447087
     27          6           0       -2.552950    2.511783   -6.897125
     28          1           0       -2.598728    2.985869   -5.920292
     29          7           0       -0.650057   -0.101426   -8.416920
     30          1           0       -0.348906   -0.648854   -9.208994
     31          6           0       -3.306108    2.373405   -9.221613
     32          1           0       -3.939862    2.755065  -10.017101
     33          6           0       -2.413045    1.340568   -9.492800
     34          1           0       -2.349284    0.903083  -10.485403
     35          6           0       -3.371977    2.960821   -7.935133
     36          1           0       -4.037686    3.804004   -7.768232
     37          7           0       -1.760385   -0.595988   -1.595637
     38          1           0       -2.308811   -1.353033   -1.986884
     39          6           0       -2.101329   -0.141344   -0.247703
     40          1           0       -2.082813    0.946009   -0.315414
     41          6           0       -1.050192   -0.452668    0.819956
     42          6           0       -3.528441   -0.532867    0.176139
     43          1           0       -3.618272   -1.623878    0.265965
     44          1           0       -3.688740   -0.128736    1.179740
     45          8           0       -1.095248    0.158336    1.903594
     46          6           0       -4.594612    0.007489   -0.796026
     47          1           0       -4.642434   -0.617405   -1.694158
     48          1           0       -5.576380   -0.071841   -0.311483
     49          6           0       -4.397818    1.483661   -1.237868
     50          8           0       -4.561559    1.736244   -2.463998
     51          8           0       -4.103946    2.330981   -0.348331
     52          7           0       -0.105639   -1.360438    0.516417
     53          1           0       -0.084675   -1.671142   -0.449701
     54          6           0        1.119281   -1.551541    1.310883
     55          1           0        0.960950   -0.990418    2.236658
     56          6           0        2.241147   -0.896946    0.470320
     57          6           0        1.399570   -3.029168    1.639700
     58          1           0        1.610452   -3.539408    0.690910
     59          8           0        2.974311   -1.560577   -0.267988
     60          6           0        2.649928   -3.143543    2.526148
     61          1           0        2.505887   -2.620959    3.480839
     62          1           0        2.856113   -4.194455    2.754431
     63          1           0        3.533347   -2.730751    2.031461
     64          6           0        0.189107   -3.692156    2.311161
     65          1           0       -0.054940   -3.201979    3.262117
     66          1           0       -0.702971   -3.656771    1.677539
     67          1           0        0.406405   -4.743739    2.526400
     68          7           0        2.271540    0.452257    0.536959
     69          1           0        1.633880    0.960837    1.140751
     70          6           0        3.079713    1.284513   -0.340455
     71          1           0        4.077376    0.834569   -0.418423
     72          6           0        3.156485    2.662489    0.340766
     73          6           0        2.466833    1.397661   -1.780905
     74          1           0        1.550307    1.991804   -1.714293
     75          8           0        2.255272    3.037606    1.094725
     76          6           0        3.427695    2.055381   -2.774247
     77          1           0        3.566045    3.119410   -2.559393
     78          1           0        4.401348    1.545669   -2.786544
     79          1           0        3.001759    1.972674   -3.778463
     80          8           0        2.042526    0.119959   -2.250836
     81          1           0        2.680975   -0.552686   -1.946033
     82          7           0        4.247702    3.417627    0.070694
     83          1           0        4.860062    3.108561   -0.672729
     84          6           0        4.309901    4.834002    0.430072
     85          1           0        4.131615    4.909780    1.509004
     86          6           0        3.187341    5.582225   -0.329776
     87          6           0        5.716128    5.397092    0.098659
     88          1           0        5.858043    5.271092   -0.985440
     89          8           0        2.887868    5.278979   -1.480859
     90          6           0        5.822421    6.896348    0.417642
     91          1           0        5.665666    7.085533    1.487557
     92          1           0        5.101714    7.500610   -0.140183
     93          1           0        6.824464    7.258964    0.167139
     94          6           0        6.816111    4.619915    0.840477
     95          1           0        6.705340    4.731404    1.926107
     96          1           0        7.802443    5.007748    0.564938
     97          1           0        6.804418    3.548850    0.615610
     98          7           0        2.556855    6.563654    0.369588
     99          1           0        2.914665    6.858814    1.269361
    100          6           0        1.474955    7.355851   -0.190090
    101          1           0        1.505701    7.229605   -1.276054
    102          6           0        1.721695    8.817142    0.160698
    103          6           0        0.082881    6.910033    0.340728
    104          1           0       -0.685586    7.525533   -0.140749
    105          1           0        0.039505    7.126382    1.417698
    106          8           0        2.504448    9.197876    1.004043
    107          6           0       -0.162596    5.415964    0.108248
    108          1           0       -0.227658    5.208641   -0.966799
    109          1           0        0.711860    4.868763    0.473173
    110          6           0       -1.406066    4.849391    0.820473
    111          1           0       -1.512061    5.309890    1.814092
    112          1           0       -2.325070    5.062000    0.260724
    113          6           0       -1.218040    3.344068    0.976811
    114          1           0       -0.329280    3.126998    1.573327
    115          1           0       -1.092476    2.865843    0.002146
    116          7           0       -2.381527    2.652588    1.637551
    117          1           0       -2.060723    1.701343    1.927359
    118          1           0       -2.708969    3.164274    2.460417
    119          1           0       -3.185053    2.520569    0.940869
    120          8           0        0.928288    9.641855   -0.549876
    121          1           0        1.116283   10.550363   -0.244607
 ---------------------------------------------------------------------

 SCF Done:  E(RB3LYP) =  -2843.69304975     A.U. after    1 cycles

 Alpha  occ. eigenvalues --  -19.27010 -19.22730 -19.21593 -19.21583 -19.21433
 Alpha  occ. eigenvalues --  -19.20294 -19.20208 -19.19272 -19.18600 -19.16347
 Alpha  occ. eigenvalues --  -19.15857 -14.56115 -14.49726 -14.46374 -14.45843
 Alpha  occ. eigenvalues --  -14.45471 -14.45337 -14.44236 -14.43418 -14.43253
 Alpha  occ. eigenvalues --  -10.39625 -10.39400 -10.38350 -10.38215 -10.37167
 Alpha  occ. eigenvalues --  -10.36574 -10.36416 -10.35806 -10.34541 -10.32734
 Alpha  occ. eigenvalues --  -10.31980 -10.31094 -10.31016 -10.31011 -10.30836
 Alpha  occ. eigenvalues --  -10.30775 -10.30773 -10.30429 -10.30029 -10.29437
 Alpha  occ. eigenvalues --  -10.28024 -10.27916 -10.27851 -10.27764 -10.27541
 Alpha  occ. eigenvalues --  -10.27216 -10.27191 -10.26924 -10.26897 -10.26419
 Alpha  occ. eigenvalues --  -10.26352 -10.25874 -10.25826 -10.25198 -10.24285
 Alpha  occ. eigenvalues --  -10.24128 -10.23617 -10.23481 -10.23201  -1.17966
 Alpha  occ. eigenvalues --   -1.15088  -1.13650  -1.12819  -1.12315  -1.11109
 Alpha  occ. eigenvalues --   -1.10406  -1.10096  -1.09124  -1.09012  -1.07409
 Alpha  occ. eigenvalues --   -1.06344  -1.05101  -1.02928  -1.02382  -1.01066
 Alpha  occ. eigenvalues --   -1.00664  -1.00212  -0.99815  -0.99578  -0.92900
 Alpha  occ. eigenvalues --   -0.89883  -0.88575  -0.88170  -0.88082  -0.87675
 Alpha  occ. eigenvalues --   -0.86930  -0.84579  -0.84420  -0.84295  -0.82446
 Alpha  occ. eigenvalues --   -0.81087  -0.80289  -0.79248  -0.78580  -0.77535
 Alpha  occ. eigenvalues --   -0.77394  -0.75623  -0.75019  -0.74518  -0.74303
 Alpha  occ. eigenvalues --   -0.71719  -0.71022  -0.70358  -0.70090  -0.69608
 Alpha  occ. eigenvalues --   -0.68725  -0.68379  -0.68137  -0.67952  -0.67790
 Alpha  occ. eigenvalues --   -0.67488  -0.67112  -0.66385  -0.66038  -0.65711
 Alpha  occ. eigenvalues --   -0.64997  -0.64942  -0.64817  -0.64420  -0.63019
 Alpha  occ. eigenvalues --   -0.62567  -0.62138  -0.61543  -0.60039  -0.59595
 Alpha  occ. eigenvalues --   -0.59122  -0.58140  -0.57730  -0.57564  -0.57189
 Alpha  occ. eigenvalues --   -0.56947  -0.56794  -0.56437  -0.56187  -0.55920
 Alpha  occ. eigenvalues --   -0.55790  -0.55625  -0.55184  -0.54642  -0.54409
 Alpha  occ. eigenvalues --   -0.54274  -0.53592  -0.53535  -0.53027  -0.52623
 Alpha  occ. eigenvalues --   -0.52423  -0.52068  -0.51878  -0.51709  -0.51500
 Alpha  occ. eigenvalues --   -0.51263  -0.51021  -0.50814  -0.50519  -0.50218
 Alpha  occ. eigenvalues --   -0.50066  -0.49697  -0.49491  -0.49089  -0.49048
 Alpha  occ. eigenvalues --   -0.48917  -0.48562  -0.48458  -0.48419  -0.48098
 Alpha  occ. eigenvalues --   -0.47646  -0.47472  -0.47407  -0.47120  -0.46871
 Alpha  occ. eigenvalues --   -0.46789  -0.46636  -0.46468  -0.46387  -0.46085
 Alpha  occ. eigenvalues --   -0.45672  -0.45523  -0.45314  -0.45240  -0.44803
 Alpha  occ. eigenvalues --   -0.44498  -0.44191  -0.43968  -0.43793  -0.43492
 Alpha  occ. eigenvalues --   -0.43238  -0.43223  -0.42900  -0.42685  -0.42508
 Alpha  occ. eigenvalues --   -0.41926  -0.41840  -0.41636  -0.41460  -0.41012
 Alpha  occ. eigenvalues --   -0.40864  -0.40786  -0.40366  -0.40044  -0.39955
 Alpha  occ. eigenvalues --   -0.39611  -0.39414  -0.38946  -0.37679  -0.37253
 Alpha  occ. eigenvalues --   -0.36504  -0.36086  -0.35932  -0.35189  -0.34799
 Alpha  occ. eigenvalues --   -0.34704  -0.34235  -0.34182  -0.33471  -0.32557
 Alpha  occ. eigenvalues --   -0.32221  -0.32124  -0.32029  -0.31615  -0.31406
 Alpha  occ. eigenvalues --   -0.30663  -0.29941  -0.28615
 Alpha virt. eigenvalues --   -0.10192  -0.09281  -0.08335  -0.07943  -0.07236
 Alpha virt. eigenvalues --   -0.06611  -0.06315  -0.06022  -0.04804  -0.04349
 Alpha virt. eigenvalues --   -0.02823  -0.02338  -0.01873  -0.01436  -0.00333

 Mulliken charges:
               1
     1  N   -0.758886
     2  H    0.418452
     3  H    0.396805
     4  H    0.415137
     5  C   -0.098070
     6  H    0.225614
     7  C    0.637816
     8  C   -0.486489
     9  H    0.235040
    10  H    0.168895
    11  H    0.178100
    12  O   -0.549035
    13  N   -0.647217
    14  H    0.421646
    15  C   -0.046963
    16  H    0.176539
    17  C    0.632367
    18  C   -0.367496
    19  H    0.180460
    20  H    0.191295
    21  O   -0.493087
    22  C    0.079613
    23  C    0.021729
    24  H    0.170340
    25  C    0.073351
    26  C    0.324141
    27  C   -0.238143
    28  H    0.156185
    29  N   -0.685173
    30  H    0.342492
    31  C   -0.171815
    32  H    0.148995
    33  C   -0.165530
    34  H    0.148466
    35  C   -0.216529
    36  H    0.147624
    37  N   -0.640789
    38  H    0.341584
    39  C   -0.077571
    40  H    0.199229
    41  C    0.652782
    42  C   -0.285892
    43  H    0.151109
    44  H    0.162878
    45  O   -0.579513
    46  C   -0.354968
    47  H    0.121556
    48  H    0.171337
    49  C    0.598643
    50  O   -0.601671
    51  O   -0.595483
    52  N   -0.592996
    53  H    0.358127
    54  C   -0.059626
    55  H    0.183233
    56  C    0.637528
    57  C   -0.075568
    58  H    0.147600
    59  O   -0.556657
    60  C   -0.463831
    61  H    0.142816
    62  H    0.158673
    63  H    0.171686
    64  C   -0.449061
    65  H    0.150038
    66  H    0.138988
    67  H    0.158441
    68  N   -0.605531
    69  H    0.358179
    70  C   -0.101396
    71  H    0.171333
    72  C    0.640668
    73  C    0.166892
    74  H    0.171002
    75  O   -0.548570
    76  C   -0.502753
    77  H    0.186399
    78  H    0.132589
    79  H    0.166690
    80  O   -0.661031
    81  H    0.416605
    82  N   -0.603338
    83  H    0.344634
    84  C   -0.027672
    85  H    0.163888
    86  C    0.630663
    87  C   -0.116653
    88  H    0.147184
    89  O   -0.531084
    90  C   -0.465839
    91  H    0.149659
    92  H    0.167270
    93  H    0.164947
    94  C   -0.445110
    95  H    0.154676
    96  H    0.163416
    97  H    0.146395
    98  N   -0.596704
    99  H    0.348317
   100  C   -0.052904
   101  H    0.208167
   102  C    0.587207
   103  C   -0.271375
   104  H    0.169345
   105  H    0.141651
   106  O   -0.463820
   107  C   -0.295045
   108  H    0.165293
   109  H    0.192135
   110  C   -0.279076
   111  H    0.136158
   112  H    0.177110
   113  C   -0.216213
   114  H    0.208907
   115  H    0.229269
   116  N   -0.810974
   117  H    0.424249
   118  H    0.375350
   119  H    0.446286
   120  O   -0.560240
   121  H    0.423502
 Sum of Mulliken charges =   1.00000

 Dipole moment (field-independent basis, Debye):
    X=             -9.6691    Y=              6.6741    Z=            -16.6662  Tot=             20.3911
 Quadrupole moment (field-independent basis, Debye-Ang):
   XX=           -243.0229   YY=           -277.7529   ZZ=           -168.3403
   XY=             16.8668   XZ=             83.4022   YZ=             10.9824

 Normal termination of Gaussian 16 at Thu Jun 30 12:46:40 2022.
