 Gaussian 16, Revision C.01,
 Gaussian 16:  ES64L-G16RevC.01  3-Jul-2019

 -------------------------------------------------------------------
 # B3LYP/6-31G* guess=read geom=check nosymm integral(ultrafinegrid)
 -------------------------------------------------------------------

 ------------------------------------------------------
 Candidate Structure: Conf:950 Charge calc in gas phase
 ------------------------------------------------------
 Structure from the checkpoint file:  "conf-950.chk"
 Charge =  1 Multiplicity = 1

                          Input orientation:
 ---------------------------------------------------------------------
 Center     Atomic      Atomic             Coordinates (Angstroms)
 Number     Number       Type             X           Y           Z
 ---------------------------------------------------------------------
      1          7           0      -10.975459    2.202918    7.263842
      2          1           0      -11.428313    2.567134    6.422761
      3          1           0      -11.322096    2.719543    8.070683
      4          1           0      -11.238186    1.219141    7.364251
      5          6           0       -9.500858    2.278834    7.169095
      6          1           0       -9.200024    3.279926    6.848595
      7          6           0       -9.014324    1.255822    6.151874
      8          6           0       -8.860475    1.961280    8.525784
      9          1           0       -9.200589    0.961692    8.804081
     10          1           0       -9.252421    2.668137    9.260982
     11          8           0       -9.400556    0.090018    6.184429
     12          6           0       -7.355187    2.000794    8.492229
     13          6           0       -6.634809    0.853483    8.146475
     14          1           0       -7.177243   -0.061200    7.922974
     15          6           0       -6.652342    3.176911    8.755165
     16          1           0       -7.193635    4.073056    9.040063
     17          6           0       -5.244076    0.888249    8.062041
     18          1           0       -4.702774   -0.017739    7.802158
     19          6           0       -5.261252    3.211353    8.667816
     20          1           0       -4.738329    4.137871    8.876072
     21          6           0       -4.555100    2.066666    8.314920
     22          1           0       -3.473547    2.088719    8.248699
     23          7           0       -8.094541    1.690529    5.262948
     24          1           0       -7.797265    2.655200    5.242572
     25          6           0       -7.439125    0.762886    4.356909
     26          1           0       -7.293831   -0.179228    4.890871
     27          6           0       -6.085398    1.383455    4.029521
     28          6           0       -8.283983    0.504194    3.116432
     29          1           0       -7.781635   -0.191741    2.439951
     30          1           0       -8.468378    1.441595    2.585718
     31          1           0       -9.240527    0.079401    3.417514
     32          8           0       -5.990159    2.554733    3.668712
     33          7           0       -5.017832    0.560684    4.217764
     34          1           0       -5.174020   -0.436290    4.202945
     35          6           0       -3.671756    0.974794    3.871824
     36          1           0       -3.694261    2.060906    3.794214
     37          6           0       -3.304289    0.361146    2.520936
     38          6           0       -2.675390    0.535969    4.933900
     39          1           0       -1.671867    0.893256    4.690371
     40          1           0       -2.652902   -0.554301    4.996653
     41          1           0       -2.963554    0.933658    5.910677
     42          8           0       -3.611410   -0.784768    2.234359
     43          7           0       -2.583415    1.171980    1.701488
     44          1           0       -2.147915    2.003929    2.069107
     45          6           0       -2.106171    0.727900    0.412656
     46          1           0       -2.310922   -0.340039    0.355478
     47          6           0       -0.605858    1.032029    0.339046
     48          6           0       -2.834398    1.456265   -0.732981
     49          1           0       -2.636461    2.524575   -0.621353
     50          1           0       -2.403340    1.141235   -1.687821
     51          8           0       -0.144675    2.047739    0.842809
     52          6           0       -4.309019    1.209751   -0.741485
     53          6           0       -4.890129    0.276696   -1.622366
     54          1           0       -4.250575   -0.268754   -2.308424
     55          6           0       -5.152306    1.906333    0.141817
     56          1           0       -4.719055    2.616595    0.840798
     57          6           0       -6.243418    0.046925   -1.652986
     58          1           0       -6.683924   -0.667076   -2.337229
     59          6           0       -6.508338    1.710486    0.145822
     60          1           0       -7.144862    2.231080    0.846493
     61          8           0       -8.362356    0.582419   -0.762125
     62          6           0       -7.142717    0.766663   -0.758518
     63          7           0        0.140392    0.126152   -0.347652
     64          1           0       -0.315642   -0.551382   -0.942453
     65          6           0        1.516624    0.381986   -0.724049
     66          1           0        1.719315    1.447123   -0.602063
     67          6           0        1.654255   -0.008301   -2.191035
     68          6           0        2.515097   -0.425137    0.111662
     69          1           0        2.242025   -1.479664    0.029039
     70          1           0        3.503494   -0.322986   -0.341639
     71          8           0        0.912594   -0.822012   -2.713803
     72          6           0        2.600990   -0.048757    1.592616
     73          1           0        1.609988   -0.161619    2.034008
     74          6           0        3.546585   -1.015538    2.299978
     75          1           0        4.550315   -0.941525    1.873882
     76          1           0        3.611209   -0.793405    3.367525
     77          1           0        3.203922   -2.046677    2.191329
     78          6           0        3.059355    1.393112    1.797851
     79          1           0        4.048994    1.543053    1.355710
     80          1           0        2.366924    2.107723    1.352737
     81          1           0        3.131587    1.617477    2.865195
     82          7           0        2.679964    0.601660   -2.861327
     83          1           0        3.408100    0.996011   -2.288844
     84          6           0        3.170716    0.011830   -4.092880
     85          1           0        2.321976   -0.486082   -4.567261
     86          6           0        4.239946   -1.040352   -3.748136
     87          6           0        3.741584    1.067552   -5.032467
     88          1           0        4.543157    1.607653   -4.532004
     89          1           0        4.193832    0.568763   -5.891836
     90          8           0        4.847507   -1.045454   -2.687775
     91          6           0        2.675743    2.046752   -5.516583
     92          1           0        2.206066    2.564747   -4.676961
     93          1           0        1.877809    1.532236   -6.054500
     94          6           0        3.249962    3.112831   -6.408940
     95          8           0        4.415994    3.400503   -6.504702
     96          8           0        2.282176    3.760907   -7.097741
     97          7           0        4.485488   -1.944730   -4.729105
     98          1           0        4.075147   -1.839107   -5.644385
     99          6           0        5.592482   -2.869282   -4.610103
    100          1           0        6.435943   -2.352725   -4.147140
    101          6           0        5.999749   -3.285323   -6.005930
    102          6           0        5.271080   -4.091611   -3.732657
    103          1           0        5.063055   -3.712433   -2.737462
    104          1           0        6.185002   -4.689643   -3.678533
    105          8           0        5.386104   -3.035597   -7.012069
    106          6           0        4.116619   -4.930950   -4.254516
    107          1           0        4.296721   -5.192866   -5.303966
    108          1           0        3.197860   -4.344805   -4.237041
    109          6           0        3.891844   -6.226808   -3.483773
    110          1           0        4.781888   -6.862107   -3.529631
    111          1           0        3.089495   -6.785996   -3.968432
    112          7           0        3.478938   -6.040113   -2.080872
    113          1           0        2.571860   -5.618206   -1.943918
    114          7           0        5.632167   -6.083546   -1.149377
    115          1           0        6.193332   -6.346288   -0.354542
    116          1           0        6.001401   -6.346446   -2.049550
    117          7           0        3.745909   -5.732925    0.196033
    118          1           0        4.331656   -5.894200    1.002131
    119          1           0        2.780486   -6.006969    0.326214
    120          6           0        4.293307   -5.985365   -1.021369
    121          8           0        7.140921   -3.999179   -5.998112
    122          1           0        2.734672    4.435929   -7.620729
    123          1           0        7.324962   -4.224494   -6.918904
 ---------------------------------------------------------------------

 SCF Done:  E(RB3LYP) =  -2973.88840835     A.U. after    3 cycles

 Alpha  occ. eigenvalues --  -19.28950 -19.23920 -19.23656 -19.22335 -19.19821
 Alpha  occ. eigenvalues --  -19.18649 -19.18626 -19.17133 -19.15601 -19.14447
 Alpha  occ. eigenvalues --  -19.03236 -14.61469 -14.50709 -14.50667 -14.50151
 Alpha  occ. eigenvalues --  -14.45813 -14.44258 -14.42325 -14.41294 -14.39929
 Alpha  occ. eigenvalues --  -14.38536 -10.45109 -10.41422 -10.39730 -10.38930
 Alpha  occ. eigenvalues --  -10.36770 -10.36456 -10.35435 -10.35083 -10.34297
 Alpha  occ. eigenvalues --  -10.32953 -10.32247 -10.32176 -10.31579 -10.30111
 Alpha  occ. eigenvalues --  -10.29651 -10.29546 -10.28997 -10.28951 -10.28152
 Alpha  occ. eigenvalues --  -10.27620 -10.27481 -10.27285 -10.27037 -10.26960
 Alpha  occ. eigenvalues --  -10.26860 -10.25950 -10.25537 -10.25012 -10.23737
 Alpha  occ. eigenvalues --  -10.23624 -10.23480 -10.22482 -10.21893 -10.21051
 Alpha  occ. eigenvalues --  -10.19470 -10.18392 -10.15358 -10.15196 -10.15129
 Alpha  occ. eigenvalues --  -10.13118 -10.13113  -1.20535  -1.17381  -1.15364
 Alpha  occ. eigenvalues --   -1.15067  -1.13821  -1.12333  -1.11502  -1.10875
 Alpha  occ. eigenvalues --   -1.09149  -1.07831  -1.06671  -1.06379  -1.04821
 Alpha  occ. eigenvalues --   -1.03704  -1.01979  -1.01430  -0.99612  -0.97848
 Alpha  occ. eigenvalues --   -0.97054  -0.95440  -0.95384  -0.93953  -0.91783
 Alpha  occ. eigenvalues --   -0.91364  -0.87700  -0.86395  -0.85833  -0.85502
 Alpha  occ. eigenvalues --   -0.83735  -0.82759  -0.82289  -0.81379  -0.80934
 Alpha  occ. eigenvalues --   -0.80283  -0.78775  -0.78309  -0.77141  -0.76901
 Alpha  occ. eigenvalues --   -0.75077  -0.73753  -0.73304  -0.72988  -0.72410
 Alpha  occ. eigenvalues --   -0.72363  -0.71968  -0.71554  -0.70987  -0.70581
 Alpha  occ. eigenvalues --   -0.69877  -0.69211  -0.68747  -0.68299  -0.67059
 Alpha  occ. eigenvalues --   -0.66878  -0.66310  -0.66173  -0.65242  -0.64212
 Alpha  occ. eigenvalues --   -0.64132  -0.63757  -0.63061  -0.62866  -0.62609
 Alpha  occ. eigenvalues --   -0.62023  -0.61638  -0.61328  -0.61054  -0.59778
 Alpha  occ. eigenvalues --   -0.59724  -0.59211  -0.59083  -0.58065  -0.57485
 Alpha  occ. eigenvalues --   -0.56880  -0.56572  -0.56323  -0.55849  -0.55533
 Alpha  occ. eigenvalues --   -0.54993  -0.54632  -0.54442  -0.54126  -0.53938
 Alpha  occ. eigenvalues --   -0.53813  -0.53549  -0.53303  -0.52956  -0.52415
 Alpha  occ. eigenvalues --   -0.52228  -0.52125  -0.51917  -0.51717  -0.51105
 Alpha  occ. eigenvalues --   -0.50811  -0.50451  -0.50339  -0.50222  -0.50198
 Alpha  occ. eigenvalues --   -0.49734  -0.49624  -0.48875  -0.48807  -0.48659
 Alpha  occ. eigenvalues --   -0.48612  -0.48458  -0.48030  -0.47456  -0.47050
 Alpha  occ. eigenvalues --   -0.46535  -0.46408  -0.45987  -0.45715  -0.45605
 Alpha  occ. eigenvalues --   -0.45384  -0.44975  -0.44443  -0.44368  -0.44246
 Alpha  occ. eigenvalues --   -0.44080  -0.43931  -0.43467  -0.43241  -0.43167
 Alpha  occ. eigenvalues --   -0.43024  -0.42960  -0.42706  -0.42383  -0.42372
 Alpha  occ. eigenvalues --   -0.42080  -0.41861  -0.41675  -0.41430  -0.41395
 Alpha  occ. eigenvalues --   -0.41320  -0.41095  -0.40989  -0.40713  -0.39993
 Alpha  occ. eigenvalues --   -0.39606  -0.38605  -0.38177  -0.37869  -0.37419
 Alpha  occ. eigenvalues --   -0.37331  -0.37285  -0.37125  -0.36777  -0.36498
 Alpha  occ. eigenvalues --   -0.35026  -0.34976  -0.34319  -0.34069  -0.33645
 Alpha  occ. eigenvalues --   -0.33389  -0.33097  -0.33002  -0.32319  -0.31922
 Alpha  occ. eigenvalues --   -0.31681  -0.31447  -0.30987  -0.30670  -0.30085
 Alpha  occ. eigenvalues --   -0.29487  -0.28204  -0.27688  -0.26422  -0.21506
 Alpha  occ. eigenvalues --   -0.16772  -0.12911
 Alpha virt. eigenvalues --   -0.12070  -0.11741  -0.09448  -0.09122  -0.08666
 Alpha virt. eigenvalues --   -0.08188  -0.07597  -0.05479  -0.05429  -0.04772
 Alpha virt. eigenvalues --   -0.04409  -0.04372  -0.03415  -0.03338  -0.02863

 Mulliken charges:
               1
     1  N   -0.702112
     2  H    0.421156
     3  H    0.407501
     4  H    0.421950
     5  C   -0.136650
     6  H    0.207341
     7  C    0.632652
     8  C   -0.376100
     9  H    0.190363
    10  H    0.166040
    11  O   -0.530947
    12  C    0.156551
    13  C   -0.181563
    14  H    0.157303
    15  C   -0.187983
    16  H    0.129789
    17  C   -0.122787
    18  H    0.151997
    19  C   -0.123860
    20  H    0.155205
    21  C   -0.120769
    22  H    0.154921
    23  N   -0.584062
    24  H    0.354113
    25  C   -0.043519
    26  H    0.168089
    27  C    0.623828
    28  C   -0.442280
    29  H    0.208681
    30  H    0.191757
    31  H    0.157721
    32  O   -0.526703
    33  N   -0.589171
    34  H    0.342406
    35  C   -0.073816
    36  H    0.184668
    37  C    0.639811
    38  C   -0.456067
    39  H    0.162066
    40  H    0.159301
    41  H    0.152043
    42  O   -0.531232
    43  N   -0.592295
    44  H    0.337707
    45  C   -0.055751
    46  H    0.177550
    47  C    0.613779
    48  C   -0.359504
    49  H    0.144577
    50  H    0.131045
    51  O   -0.541561
    52  C    0.149551
    53  C   -0.175669
    54  H    0.072626
    55  C   -0.174235
    56  H    0.085838
    57  C   -0.216239
    58  H    0.088027
    59  C   -0.236858
    60  H    0.080753
    61  O   -0.625953
    62  C    0.416010
    63  N   -0.609171
    64  H    0.351250
    65  C   -0.077591
    66  H    0.185459
    67  C    0.609723
    68  C   -0.254241
    69  H    0.120607
    70  H    0.148649
    71  O   -0.526013
    72  C   -0.067115
    73  H    0.142327
    74  C   -0.440300
    75  H    0.139862
    76  H    0.146913
    77  H    0.119267
    78  C   -0.465221
    79  H    0.127488
    80  H    0.187215
    81  H    0.142796
    82  N   -0.579787
    83  H    0.342376
    84  C   -0.098436
    85  H    0.189670
    86  C    0.621596
    87  C   -0.273562
    88  H    0.175798
    89  H    0.157233
    90  O   -0.529162
    91  C   -0.354283
    92  H    0.204685
    93  H    0.182906
    94  C    0.578192
    95  O   -0.458012
    96  O   -0.563140
    97  N   -0.617384
    98  H    0.359149
    99  C   -0.024637
   100  H    0.208140
   101  C    0.575491
   102  C   -0.289123
   103  H    0.190655
   104  H    0.143258
   105  O   -0.454294
   106  C   -0.274551
   107  H    0.172187
   108  H    0.176505
   109  C   -0.188202
   110  H    0.168653
   111  H    0.201344
   112  N   -0.577600
   113  H    0.365338
   114  N   -0.732354
   115  H    0.367319
   116  H    0.373159
   117  N   -0.732262
   118  H    0.362749
   119  H    0.366850
   120  C    0.716927
   121  O   -0.565245
   122  H    0.415114
   123  H    0.427805
 Sum of Mulliken charges =   1.00000

 Dipole moment (field-independent basis, Debye):
    X=              0.4966    Y=            -15.4256    Z=             22.6853  Tot=             27.4375
 Quadrupole moment (field-independent basis, Debye-Ang):
   XX=            -22.8104   YY=           -189.9393   ZZ=            -94.7370
   XY=           -202.5381   XZ=           -348.5485   YZ=            111.9638

 Normal termination of Gaussian 16 at Sun Aug  7 18:52:28 2022.
