 Gaussian 16, Revision C.01,
 Gaussian 16:  ES64L-G16RevC.01  3-Jul-2019

 -------------------------------------------------------------------
 # B3LYP/6-31G* guess=read geom=check nosymm integral(ultrafinegrid)
 -------------------------------------------------------------------

 ------------------------------------------------------
 Candidate Structure: Conf:703 Charge calc in gas phase
 ------------------------------------------------------
 Structure from the checkpoint file:  "conf-703.chk"
 Charge =  1 Multiplicity = 1

                          Input orientation:
 ---------------------------------------------------------------------
 Center     Atomic      Atomic             Coordinates (Angstroms)
 Number     Number       Type             X           Y           Z
 ---------------------------------------------------------------------
      1          7           0       -9.730909    0.478733    5.159525
      2          1           0      -10.452603    0.805525    4.514643
      3          1           0      -10.164454    0.149242    6.018944
      4          1           0       -9.237701   -0.292009    4.699487
      5          6           0       -8.720707    1.521433    5.416228
      6          1           0       -9.199088    2.503602    5.485540
      7          6           0       -7.753766    1.512628    4.234248
      8          6           0       -7.977793    1.268134    6.733970
      9          1           0       -7.531532    0.271466    6.692017
     10          1           0       -8.721691    1.267466    7.535287
     11          8           0       -7.614175    0.503381    3.546756
     12          6           0       -6.910325    2.299095    6.986745
     13          6           0       -5.569366    1.985475    6.784687
     14          1           0       -5.288645    0.968909    6.521554
     15          6           0       -7.249496    3.608040    7.320048
     16          1           0       -8.298422    3.855508    7.466978
     17          6           0       -4.588840    2.967825    6.888733
     18          1           0       -3.549165    2.699400    6.721251
     19          6           0       -6.271720    4.593736    7.409560
     20          1           0       -6.565453    5.610962    7.639771
     21          6           0       -4.934712    4.280324    7.192437
     22          1           0       -4.170367    5.042852    7.268369
     23          7           0       -7.079333    2.657487    4.013137
     24          1           0       -7.082483    3.365882    4.733098
     25          6           0       -6.151926    2.847213    2.912787
     26          1           0       -6.529338    2.245464    2.068038
     27          6           0       -4.765336    2.307460    3.271613
     28          6           0       -6.094677    4.310733    2.521650
     29          1           0       -5.409821    4.431152    1.676152
     30          1           0       -5.724993    4.908644    3.355115
     31          1           0       -7.087896    4.660579    2.230938
     32          8           0       -3.747419    3.007641    3.274608
     33          7           0       -4.724220    0.995164    3.588583
     34          1           0       -5.553634    0.437609    3.423815
     35          6           0       -3.450245    0.330580    3.824693
     36          1           0       -2.807354    1.101759    4.265773
     37          6           0       -2.851124   -0.089963    2.483847
     38          6           0       -3.618680   -0.838754    4.770302
     39          1           0       -2.655054   -1.315376    4.954351
     40          1           0       -4.293741   -1.583491    4.346126
     41          1           0       -4.028928   -0.490303    5.720944
     42          8           0       -2.768213   -1.266080    2.124282
     43          7           0       -2.445177    0.925880    1.691266
     44          1           0       -2.589966    1.879529    2.001524
     45          6           0       -2.133004    0.689858    0.293959
     46          1           0       -2.684037   -0.206070   -0.011560
     47          6           0       -0.641001    0.378181    0.141724
     48          6           0       -2.545513    1.871591   -0.578079
     49          1           0       -1.981408    2.757849   -0.280812
     50          1           0       -2.206945    1.654996   -1.595706
     51          8           0        0.116945    1.031733   -0.576799
     52          6           0       -4.011864    2.182986   -0.567428
     53          6           0       -5.000229    1.229737   -0.285130
     54          1           0       -4.727188    0.216135   -0.011399
     55          6           0       -4.419418    3.483661   -0.907460
     56          1           0       -3.668051    4.238587   -1.114917
     57          6           0       -6.339466    1.543470   -0.356091
     58          1           0       -7.107400    0.816104   -0.116797
     59          6           0       -5.741998    3.841226   -0.988736
     60          1           0       -6.046487    4.852412   -1.231256
     61          8           0       -7.987221    3.184155   -0.690241
     62          6           0       -6.790872    2.880611   -0.683592
     63          7           0       -0.202068   -0.670792    0.869221
     64          1           0       -0.884799   -1.251275    1.344073
     65          6           0        1.183283   -1.106504    0.790805
     66          1           0        1.765139   -0.196112    0.641439
     67          6           0        1.354197   -2.005502   -0.433112
     68          6           0        1.609158   -1.789545    2.081117
     69          1           0        1.266965   -1.166279    2.910888
     70          1           0        1.089053   -2.747538    2.154474
     71          8           0        1.425797   -3.234720   -0.358957
     72          6           0        3.118055   -2.012994    2.230573
     73          1           0        3.464834   -2.559766    1.340270
     74          6           0        3.883239   -0.697482    2.324644
     75          1           0        3.573338   -0.144317    3.216117
     76          1           0        4.957552   -0.880721    2.400678
     77          1           0        3.714623   -0.060041    1.454559
     78          6           0        3.390698   -2.884809    3.453312
     79          1           0        3.032936   -2.390669    4.360018
     80          1           0        2.888115   -3.850224    3.369471
     81          1           0        4.460056   -3.072676    3.571510
     82          7           0        1.387020   -1.358006   -1.615943
     83          1           0        1.215892   -0.358050   -1.632998
     84          6           0        1.542425   -2.083286   -2.866435
     85          1           0        1.044386   -3.048103   -2.723085
     86          6           0        3.036500   -2.324395   -3.120072
     87          6           0        0.876299   -1.330330   -4.011099
     88          1           0       -0.108775   -1.023654   -3.655372
     89          1           0        1.443832   -0.426498   -4.235974
     90          8           0        3.658408   -1.780541   -4.020554
     91          6           0        0.731014   -2.190206   -5.269259
     92          1           0        0.159674   -3.094083   -5.063880
     93          1           0        1.720095   -2.496277   -5.623055
     94          6           0        0.041193   -1.461782   -6.386938
     95          8           0       -0.881892   -1.885319   -7.033984
     96          8           0        0.596515   -0.250463   -6.620831
     97          7           0        3.630328   -3.154367   -2.222067
     98          1           0        3.049817   -3.657407   -1.563637
     99          6           0        4.976828   -3.626857   -2.447966
    100          1           0        5.483453   -2.887967   -3.069248
    101          6           0        4.995149   -4.936761   -3.207729
    102          6           0        5.722752   -3.786752   -1.118188
    103          1           0        5.255259   -4.586332   -0.536269
    104          1           0        5.577761   -2.858549   -0.559461
    105          8           0        5.859497   -5.274574   -3.978415
    106          6           0        7.213723   -4.044011   -1.291275
    107          1           0        7.649728   -3.236540   -1.883241
    108          1           0        7.380168   -4.960188   -1.849898
    109          6           0        7.927887   -4.137315    0.046996
    110          1           0        7.470954   -4.916926    0.665535
    111          1           0        7.810073   -3.197245    0.589367
    112          7           0        9.380024   -4.371387   -0.044643
    113          1           0        9.938919   -3.557926   -0.261301
    114          7           0        9.112973   -6.607728   -0.660109
    115          1           0        9.517391   -7.529918   -0.689969
    116          1           0        8.158148   -6.556032   -0.345201
    117          7           0       11.235382   -5.602760   -0.684537
    118          1           0       11.647730   -6.519042   -0.780829
    119          1           0       11.819284   -4.923131   -0.215366
    120          6           0        9.902845   -5.539411   -0.443164
    121          8           0        3.949978   -5.729632   -2.890796
    122          1           0        0.109686    0.132813   -7.360949
    123          1           0        4.061534   -6.543899   -3.396592
 ---------------------------------------------------------------------

 SCF Done:  E(RB3LYP) =  -2973.90311532     A.U. after    1 cycles

 Alpha  occ. eigenvalues --  -19.26942 -19.23886 -19.22036 -19.21269 -19.17348
 Alpha  occ. eigenvalues --  -19.16893 -19.16786 -19.16440 -19.16311 -19.15645
 Alpha  occ. eigenvalues --  -19.03593 -14.61328 -14.52149 -14.51863 -14.51699
 Alpha  occ. eigenvalues --  -14.46169 -14.41620 -14.41134 -14.40490 -14.39626
 Alpha  occ. eigenvalues --  -14.39550 -10.46964 -10.40619 -10.39434 -10.39064
 Alpha  occ. eigenvalues --  -10.35782 -10.34567 -10.34245 -10.33726 -10.33351
 Alpha  occ. eigenvalues --  -10.33145 -10.33039 -10.32214 -10.30849 -10.29864
 Alpha  occ. eigenvalues --  -10.29519 -10.28807 -10.28731 -10.28699 -10.28623
 Alpha  occ. eigenvalues --  -10.28114 -10.28032 -10.27794 -10.27722 -10.27661
 Alpha  occ. eigenvalues --  -10.27478 -10.25809 -10.24307 -10.24254 -10.23175
 Alpha  occ. eigenvalues --  -10.23142 -10.23131 -10.22805 -10.22804 -10.21495
 Alpha  occ. eigenvalues --  -10.19522 -10.19161 -10.16629 -10.16133 -10.16033
 Alpha  occ. eigenvalues --  -10.14145 -10.14009  -1.18302  -1.18075  -1.16600
 Alpha  occ. eigenvalues --   -1.14634  -1.13361  -1.09542  -1.09485  -1.09094
 Alpha  occ. eigenvalues --   -1.08681  -1.08297  -1.07366  -1.06015  -1.05283
 Alpha  occ. eigenvalues --   -1.04206  -1.02978  -0.98947  -0.98486  -0.97550
 Alpha  occ. eigenvalues --   -0.96941  -0.96423  -0.95996  -0.94553  -0.92490
 Alpha  occ. eigenvalues --   -0.91389  -0.86852  -0.85879  -0.85604  -0.84520
 Alpha  occ. eigenvalues --   -0.84244  -0.83801  -0.82640  -0.81894  -0.80790
 Alpha  occ. eigenvalues --   -0.80138  -0.79103  -0.78287  -0.77554  -0.76473
 Alpha  occ. eigenvalues --   -0.75074  -0.74182  -0.74130  -0.74034  -0.72576
 Alpha  occ. eigenvalues --   -0.72284  -0.71707  -0.71429  -0.70665  -0.70136
 Alpha  occ. eigenvalues --   -0.70106  -0.69687  -0.69241  -0.68434  -0.67821
 Alpha  occ. eigenvalues --   -0.67234  -0.66010  -0.65221  -0.65103  -0.64635
 Alpha  occ. eigenvalues --   -0.63795  -0.63736  -0.63426  -0.62815  -0.62659
 Alpha  occ. eigenvalues --   -0.62048  -0.61795  -0.60962  -0.60690  -0.60360
 Alpha  occ. eigenvalues --   -0.59572  -0.59026  -0.58820  -0.58323  -0.57687
 Alpha  occ. eigenvalues --   -0.57346  -0.57034  -0.56412  -0.55937  -0.55394
 Alpha  occ. eigenvalues --   -0.55188  -0.55026  -0.54904  -0.54334  -0.54153
 Alpha  occ. eigenvalues --   -0.53990  -0.53811  -0.53386  -0.52985  -0.52352
 Alpha  occ. eigenvalues --   -0.51997  -0.51609  -0.51376  -0.51247  -0.51095
 Alpha  occ. eigenvalues --   -0.51062  -0.50727  -0.50297  -0.49837  -0.49211
 Alpha  occ. eigenvalues --   -0.48927  -0.48781  -0.48581  -0.47647  -0.47470
 Alpha  occ. eigenvalues --   -0.47199  -0.47045  -0.46920  -0.46780  -0.46627
 Alpha  occ. eigenvalues --   -0.46522  -0.45755  -0.45492  -0.45183  -0.45064
 Alpha  occ. eigenvalues --   -0.45014  -0.44677  -0.44448  -0.44102  -0.43996
 Alpha  occ. eigenvalues --   -0.43900  -0.43598  -0.43455  -0.43239  -0.43186
 Alpha  occ. eigenvalues --   -0.43114  -0.43017  -0.42662  -0.42652  -0.42279
 Alpha  occ. eigenvalues --   -0.42113  -0.41624  -0.41498  -0.41351  -0.41300
 Alpha  occ. eigenvalues --   -0.40856  -0.40695  -0.40669  -0.40507  -0.39806
 Alpha  occ. eigenvalues --   -0.39276  -0.39156  -0.38703  -0.38502  -0.38443
 Alpha  occ. eigenvalues --   -0.37943  -0.37633  -0.37420  -0.36635  -0.35829
 Alpha  occ. eigenvalues --   -0.35488  -0.34546  -0.34391  -0.34332  -0.34142
 Alpha  occ. eigenvalues --   -0.33043  -0.32661  -0.32350  -0.32140  -0.31673
 Alpha  occ. eigenvalues --   -0.31601  -0.30956  -0.30555  -0.29952  -0.29289
 Alpha  occ. eigenvalues --   -0.28957  -0.28653  -0.27751  -0.27544  -0.22730
 Alpha  occ. eigenvalues --   -0.17428  -0.13979
 Alpha virt. eigenvalues --   -0.13379  -0.11337  -0.10285  -0.09965  -0.09389
 Alpha virt. eigenvalues --   -0.08929  -0.06833  -0.05486  -0.05382  -0.04794
 Alpha virt. eigenvalues --   -0.04364  -0.03968  -0.03266  -0.03199  -0.02803

 Mulliken charges:
               1
     1  N   -0.717583
     2  H    0.436741
     3  H    0.418012
     4  H    0.425232
     5  C   -0.143300
     6  H    0.221285
     7  C    0.645717
     8  C   -0.372842
     9  H    0.182452
    10  H    0.175925
    11  O   -0.539121
    12  C    0.142090
    13  C   -0.164424
    14  H    0.150337
    15  C   -0.207239
    16  H    0.132018
    17  C   -0.128205
    18  H    0.163272
    19  C   -0.129262
    20  H    0.162064
    21  C   -0.119032
    22  H    0.167983
    23  N   -0.570419
    24  H    0.355494
    25  C   -0.109214
    26  H    0.246604
    27  C    0.652403
    28  C   -0.463096
    29  H    0.222365
    30  H    0.135055
    31  H    0.173028
    32  O   -0.548217
    33  N   -0.614681
    34  H    0.367942
    35  C   -0.064743
    36  H    0.180313
    37  C    0.633988
    38  C   -0.466132
    39  H    0.171701
    40  H    0.169482
    41  H    0.142982
    42  O   -0.559187
    43  N   -0.594539
    44  H    0.378745
    45  C   -0.090154
    46  H    0.192543
    47  C    0.640983
    48  C   -0.357466
    49  H    0.144991
    50  H    0.157785
    51  O   -0.554904
    52  C    0.126689
    53  C   -0.191471
    54  H    0.088450
    55  C   -0.184240
    56  H    0.090645
    57  C   -0.259346
    58  H    0.074971
    59  C   -0.231045
    60  H    0.092917
    61  O   -0.639340
    62  C    0.422291
    63  N   -0.624975
    64  H    0.370662
    65  C   -0.055494
    66  H    0.174714
    67  C    0.639920
    68  C   -0.267757
    69  H    0.136091
    70  H    0.158643
    71  O   -0.568983
    72  C   -0.082137
    73  H    0.123076
    74  C   -0.447423
    75  H    0.148372
    76  H    0.125821
    77  H    0.155615
    78  C   -0.441508
    79  H    0.145233
    80  H    0.150065
    81  H    0.124054
    82  N   -0.622727
    83  H    0.378931
    84  C   -0.053539
    85  H    0.178730
    86  C    0.623668
    87  C   -0.293642
    88  H    0.163016
    89  H    0.191540
    90  O   -0.515759
    91  C   -0.352345
    92  H    0.169119
    93  H    0.193976
    94  C    0.565302
    95  O   -0.454745
    96  O   -0.556995
    97  N   -0.621012
    98  H    0.372207
    99  C   -0.040573
   100  H    0.210504
   101  C    0.586086
   102  C   -0.298583
   103  H    0.154099
   104  H    0.178257
   105  O   -0.460438
   106  C   -0.286383
   107  H    0.170609
   108  H    0.174799
   109  C   -0.195336
   110  H    0.174342
   111  H    0.198087
   112  N   -0.573152
   113  H    0.365255
   114  N   -0.728337
   115  H    0.374021
   116  H    0.382600
   117  N   -0.735251
   118  H    0.370033
   119  H    0.374225
   120  C    0.737040
   121  O   -0.559114
   122  H    0.412815
   123  H    0.418389
 Sum of Mulliken charges =   1.00000

 Dipole moment (field-independent basis, Debye):
    X=             15.8971    Y=            -21.4997    Z=             30.1155  Tot=             40.2728
 Quadrupole moment (field-independent basis, Debye-Ang):
   XX=            233.3345   YY=           -233.7125   ZZ=           -243.7610
   XY=           -200.0495   XZ=           -233.7956   YZ=             37.8986

 Normal termination of Gaussian 16 at Sun Aug  7 18:51:22 2022.
