 Gaussian 16, Revision C.01,
 Gaussian 16:  ES64L-G16RevC.01  3-Jul-2019

 -------------------------------------------------------------------
 # B3LYP/6-31G* guess=read geom=check nosymm integral(ultrafinegrid)
 -------------------------------------------------------------------

 ------------------------------------------------------
 Candidate Structure: Conf:966 Charge calc in gas phase
 ------------------------------------------------------
 Structure from the checkpoint file:  "conf-966.chk"
 Charge =  1 Multiplicity = 1

                          Input orientation:
 ---------------------------------------------------------------------
 Center     Atomic      Atomic             Coordinates (Angstroms)
 Number     Number       Type             X           Y           Z
 ---------------------------------------------------------------------
      1          7           0      -11.975543    0.039136    5.431751
      2          1           0      -12.145364   -0.678350    4.724811
      3          1           0      -12.848491    0.525877    5.627063
      4          1           0      -11.658222   -0.435451    6.281161
      5          6           0      -10.912091    0.971847    5.012248
      6          1           0      -11.099951    1.314381    3.990636
      7          6           0       -9.572409    0.238468    5.075402
      8          6           0      -10.865949    2.195653    5.933195
      9          1           0      -10.658690    1.839943    6.944759
     10          1           0      -11.861997    2.646680    5.931285
     11          8           0       -9.360762   -0.647114    5.890816
     12          6           0       -9.826048    3.196899    5.504576
     13          6           0       -8.586607    3.249494    6.137861
     14          1           0       -8.375040    2.559397    6.948387
     15          6           0      -10.072957    4.049417    4.431463
     16          1           0      -11.032661    3.987847    3.926089
     17          6           0       -7.614613    4.153101    5.712454
     18          1           0       -6.651573    4.178174    6.211001
     19          6           0       -9.108624    4.961386    4.008281
     20          1           0       -9.322718    5.624653    3.179238
     21          6           0       -7.874860    5.014183    4.651612
     22          1           0       -7.119994    5.719543    4.326381
     23          7           0       -8.634982    0.666530    4.201034
     24          1           0       -8.783186    1.478296    3.618616
     25          6           0       -7.272786    0.187886    4.267560
     26          1           0       -6.975215    0.102239    5.317018
     27          6           0       -6.413696    1.235548    3.567368
     28          6           0       -7.114948   -1.182705    3.603673
     29          1           0       -6.061113   -1.471942    3.593193
     30          1           0       -7.472259   -1.137379    2.572183
     31          1           0       -7.697824   -1.924286    4.147304
     32          8           0       -6.871345    1.997476    2.733763
     33          7           0       -5.088287    1.231117    3.916258
     34          1           0       -4.771680    0.403703    4.391228
     35          6           0       -4.107496    1.770410    2.985028
     36          1           0       -4.553376    2.658638    2.537931
     37          6           0       -3.819513    0.731671    1.889674
     38          6           0       -2.815749    2.121413    3.714973
     39          1           0       -2.079803    2.517255    3.009502
     40          1           0       -2.396365    1.223128    4.176195
     41          1           0       -3.005980    2.861670    4.491666
     42          8           0       -3.930365   -0.466118    2.085990
     43          7           0       -3.412836    1.253658    0.695134
     44          1           0       -3.068850    2.196977    0.719224
     45          6           0       -2.726429    0.389624   -0.245509
     46          1           0       -3.124910   -0.613440   -0.098603
     47          6           0       -1.224794    0.374571    0.084901
     48          6           0       -2.990526    0.821025   -1.702855
     49          1           0       -2.580488    0.052035   -2.364283
     50          1           0       -4.072875    0.835290   -1.843644
     51          8           0       -0.728099    1.060553    0.965418
     52          6           0       -2.411353    2.145522   -2.052949
     53          6           0       -3.113337    3.329644   -1.750872
     54          1           0       -4.095670    3.249594   -1.291503
     55          6           0       -1.144131    2.243308   -2.670134
     56          1           0       -0.605859    1.332448   -2.906225
     57          6           0       -2.594891    4.568464   -2.008060
     58          1           0       -3.129021    5.477349   -1.766857
     59          6           0       -0.582950    3.456936   -2.952057
     60          1           0        0.391800    3.559139   -3.410924
     61          8           0       -0.781532    5.794851   -2.875879
     62          6           0       -1.278011    4.696404   -2.632001
     63          7           0       -0.482277   -0.448946   -0.689936
     64          1           0       -0.901154   -1.004366   -1.420868
     65          6           0        0.961566   -0.466233   -0.613193
     66          1           0        1.283476    0.524770   -0.284029
     67          6           0        1.465068   -0.749396   -2.024309
     68          6           0        1.459598   -1.511415    0.388908
     69          1           0        0.989313   -1.288244    1.347496
     70          1           0        1.090484   -2.488171    0.068166
     71          8           0        0.860141   -1.505698   -2.772014
     72          6           0        2.976254   -1.589411    0.583617
     73          1           0        3.440714   -1.809697   -0.382185
     74          6           0        3.554065   -0.281743    1.110983
     75          1           0        3.157181   -0.069551    2.107572
     76          1           0        4.643785   -0.344393    1.176571
     77          1           0        3.319852    0.571106    0.467662
     78          6           0        3.300786   -2.737101    1.536261
     79          1           0        2.810925   -2.576904    2.499541
     80          1           0        2.957545   -3.692063    1.133090
     81          1           0        4.375632   -2.811537    1.711363
     82          7           0        2.606947   -0.107560   -2.369956
     83          1           0        3.203943    0.273790   -1.654587
     84          6           0        3.340732   -0.420578   -3.571966
     85          1           0        3.048787   -1.415838   -3.918612
     86          6           0        4.821235   -0.421154   -3.172420
     87          6           0        3.065952    0.580557   -4.694685
     88          1           0        3.463955    1.557121   -4.422950
     89          1           0        3.606077    0.251543   -5.582239
     90          8           0        5.193071   -0.113439   -2.048640
     91          6           0        1.581152    0.682945   -5.029339
     92          1           0        1.033836    1.263475   -4.285162
     93          1           0        1.125480   -0.308552   -5.046067
     94          6           0        1.341224    1.304622   -6.375416
     95          8           0        2.161671    1.452818   -7.245191
     96          8           0        0.046070    1.661422   -6.533166
     97          7           0        5.678538   -0.791746   -4.150771
     98          1           0        5.357154   -0.862576   -5.104827
     99          6           0        7.110085   -0.711654   -3.952936
    100          1           0        7.332770    0.149805   -3.318863
    101          6           0        7.748285   -0.490016   -5.305377
    102          6           0        7.691589   -1.954502   -3.262140
    103          1           0        7.207273   -2.034288   -2.290255
    104          1           0        8.751723   -1.763027   -3.083079
    105          8           0        7.174741   -0.561466   -6.362595
    106          6           0        7.525312   -3.240394   -4.056494
    107          1           0        7.909783   -3.098659   -5.072931
    108          1           0        6.468474   -3.489471   -4.156761
    109          6           0        8.255352   -4.402543   -3.415508
    110          1           0        9.304188   -4.134277   -3.272248
    111          1           0        8.225344   -5.278085   -4.074436
    112          7           0        7.653851   -4.719468   -2.101520
    113          1           0        6.647339   -4.644484   -2.080269
    114          7           0        9.401133   -6.146082   -1.495450
    115          1           0        9.636406   -7.030164   -1.071186
    116          1           0        9.807907   -5.990017   -2.404815
    117          7           0        7.414388   -6.112331   -0.249859
    118          1           0        7.941500   -6.512168    0.514016
    119          1           0        6.678720   -5.490811    0.061481
    120          6           0        8.157048   -5.665189   -1.296269
    121          8           0        9.062323   -0.219132   -5.198333
    122          1           0       -0.026409    2.020796   -7.428037
    123          1           0        9.386346   -0.097452   -6.099756
 ---------------------------------------------------------------------

 SCF Done:  E(RB3LYP) =  -2973.88669386     A.U. after    3 cycles

 Alpha  occ. eigenvalues --  -19.27835 -19.23874 -19.22545 -19.21066 -19.19248
 Alpha  occ. eigenvalues --  -19.19049 -19.16213 -19.15997 -19.15374 -19.13562
 Alpha  occ. eigenvalues --  -19.03211 -14.62199 -14.50009 -14.49970 -14.49616
 Alpha  occ. eigenvalues --  -14.46250 -14.43359 -14.41726 -14.40122 -14.38062
 Alpha  occ. eigenvalues --  -14.37985 -10.43993 -10.40972 -10.40311 -10.39697
 Alpha  occ. eigenvalues --  -10.35794 -10.35686 -10.34799 -10.34052 -10.32979
 Alpha  occ. eigenvalues --  -10.32907 -10.31905 -10.31896 -10.31476 -10.30421
 Alpha  occ. eigenvalues --  -10.29391 -10.29305 -10.28616 -10.27966 -10.27924
 Alpha  occ. eigenvalues --  -10.27718 -10.27610 -10.27210 -10.27117 -10.26901
 Alpha  occ. eigenvalues --  -10.26212 -10.25013 -10.24477 -10.23531 -10.23348
 Alpha  occ. eigenvalues --  -10.22476 -10.22434 -10.22409 -10.22058 -10.21381
 Alpha  occ. eigenvalues --  -10.19524 -10.18531 -10.15761 -10.15653 -10.15443
 Alpha  occ. eigenvalues --  -10.13524 -10.13480  -1.19435  -1.18468  -1.15217
 Alpha  occ. eigenvalues --   -1.14546  -1.12612  -1.11726  -1.11395  -1.10409
 Alpha  occ. eigenvalues --   -1.08530  -1.07669  -1.05767  -1.04327  -1.03674
 Alpha  occ. eigenvalues --   -1.03223  -1.03120  -1.00716  -0.98651  -0.97748
 Alpha  occ. eigenvalues --   -0.96030  -0.95306  -0.95043  -0.94112  -0.92355
 Alpha  occ. eigenvalues --   -0.90929  -0.86476  -0.86400  -0.85777  -0.84366
 Alpha  occ. eigenvalues --   -0.83998  -0.83103  -0.82553  -0.81021  -0.79775
 Alpha  occ. eigenvalues --   -0.79122  -0.78926  -0.77450  -0.76479  -0.76178
 Alpha  occ. eigenvalues --   -0.75849  -0.74548  -0.74159  -0.73096  -0.72748
 Alpha  occ. eigenvalues --   -0.71280  -0.71193  -0.70829  -0.70378  -0.70315
 Alpha  occ. eigenvalues --   -0.69711  -0.69486  -0.68117  -0.67976  -0.67559
 Alpha  occ. eigenvalues --   -0.67055  -0.66306  -0.65583  -0.64153  -0.63470
 Alpha  occ. eigenvalues --   -0.62711  -0.62684  -0.62543  -0.62257  -0.62117
 Alpha  occ. eigenvalues --   -0.61855  -0.60774  -0.60393  -0.60076  -0.59734
 Alpha  occ. eigenvalues --   -0.59395  -0.59093  -0.58523  -0.57561  -0.57258
 Alpha  occ. eigenvalues --   -0.57145  -0.56697  -0.56088  -0.55748  -0.55280
 Alpha  occ. eigenvalues --   -0.54937  -0.54531  -0.54227  -0.53975  -0.53765
 Alpha  occ. eigenvalues --   -0.53345  -0.53068  -0.52870  -0.52465  -0.52014
 Alpha  occ. eigenvalues --   -0.51567  -0.51123  -0.50866  -0.50655  -0.50549
 Alpha  occ. eigenvalues --   -0.50464  -0.50361  -0.49970  -0.49816  -0.49638
 Alpha  occ. eigenvalues --   -0.49454  -0.49287  -0.48972  -0.48442  -0.48192
 Alpha  occ. eigenvalues --   -0.47883  -0.47429  -0.47289  -0.47201  -0.46467
 Alpha  occ. eigenvalues --   -0.46306  -0.45852  -0.45590  -0.45144  -0.45054
 Alpha  occ. eigenvalues --   -0.44758  -0.44677  -0.44446  -0.44199  -0.43968
 Alpha  occ. eigenvalues --   -0.43642  -0.43544  -0.43269  -0.43169  -0.42926
 Alpha  occ. eigenvalues --   -0.42711  -0.42707  -0.42497  -0.42298  -0.41805
 Alpha  occ. eigenvalues --   -0.41686  -0.41382  -0.41313  -0.41099  -0.40801
 Alpha  occ. eigenvalues --   -0.40351  -0.40270  -0.40019  -0.39527  -0.39439
 Alpha  occ. eigenvalues --   -0.39020  -0.38791  -0.38252  -0.38181  -0.37841
 Alpha  occ. eigenvalues --   -0.37424  -0.36959  -0.36517  -0.36278  -0.36211
 Alpha  occ. eigenvalues --   -0.34558  -0.33897  -0.33740  -0.33648  -0.33532
 Alpha  occ. eigenvalues --   -0.33464  -0.33025  -0.32973  -0.32266  -0.31638
 Alpha  occ. eigenvalues --   -0.31119  -0.30597  -0.30214  -0.29674  -0.29393
 Alpha  occ. eigenvalues --   -0.28474  -0.27462  -0.27424  -0.26582  -0.22099
 Alpha  occ. eigenvalues --   -0.16686  -0.12918
 Alpha virt. eigenvalues --   -0.12161  -0.12139  -0.10046  -0.09634  -0.08794
 Alpha virt. eigenvalues --   -0.07541  -0.06892  -0.06065  -0.04970  -0.04738
 Alpha virt. eigenvalues --   -0.04587  -0.03547  -0.02308  -0.02175  -0.01277

 Mulliken charges:
               1
     1  N   -0.705372
     2  H    0.423618
     3  H    0.413309
     4  H    0.421640
     5  C   -0.148287
     6  H    0.217486
     7  C    0.629948
     8  C   -0.374644
     9  H    0.186049
    10  H    0.172477
    11  O   -0.526349
    12  C    0.157461
    13  C   -0.180568
    14  H    0.142069
    15  C   -0.194951
    16  H    0.125231
    17  C   -0.124374
    18  H    0.158830
    19  C   -0.115751
    20  H    0.163158
    21  C   -0.108917
    22  H    0.166831
    23  N   -0.593379
    24  H    0.367321
    25  C   -0.048708
    26  H    0.178030
    27  C    0.612756
    28  C   -0.453903
    29  H    0.194844
    30  H    0.170957
    31  H    0.170527
    32  O   -0.517721
    33  N   -0.581117
    34  H    0.333026
    35  C   -0.097174
    36  H    0.190901
    37  C    0.623496
    38  C   -0.455405
    39  H    0.201962
    40  H    0.155397
    41  H    0.155316
    42  O   -0.540817
    43  N   -0.571867
    44  H    0.349279
    45  C   -0.084422
    46  H    0.174526
    47  C    0.646888
    48  C   -0.364575
    49  H    0.130888
    50  H    0.146890
    51  O   -0.544414
    52  C    0.124761
    53  C   -0.197198
    54  H    0.083613
    55  C   -0.175633
    56  H    0.083339
    57  C   -0.214928
    58  H    0.091344
    59  C   -0.219430
    60  H    0.081657
    61  O   -0.600682
    62  C    0.415217
    63  N   -0.619644
    64  H    0.346375
    65  C   -0.043636
    66  H    0.190913
    67  C    0.613823
    68  C   -0.249578
    69  H    0.162880
    70  H    0.134950
    71  O   -0.549238
    72  C   -0.090285
    73  H    0.114065
    74  C   -0.442024
    75  H    0.151627
    76  H    0.142901
    77  H    0.152926
    78  C   -0.442414
    79  H    0.153739
    80  H    0.131256
    81  H    0.119268
    82  N   -0.607012
    83  H    0.372172
    84  C   -0.080001
    85  H    0.176408
    86  C    0.615729
    87  C   -0.261749
    88  H    0.168474
    89  H    0.159248
    90  O   -0.534616
    91  C   -0.389542
    92  H    0.229948
    93  H    0.201950
    94  C    0.580562
    95  O   -0.468382
    96  O   -0.553573
    97  N   -0.627133
    98  H    0.366314
    99  C   -0.032062
   100  H    0.214047
   101  C    0.575718
   102  C   -0.270658
   103  H    0.177057
   104  H    0.167425
   105  O   -0.452259
   106  C   -0.317273
   107  H    0.180619
   108  H    0.165836
   109  C   -0.165431
   110  H    0.181515
   111  H    0.177530
   112  N   -0.581732
   113  H    0.355699
   114  N   -0.739094
   115  H    0.368719
   116  H    0.376301
   117  N   -0.738302
   118  H    0.364150
   119  H    0.367636
   120  C    0.702203
   121  O   -0.563356
   122  H    0.411650
   123  H    0.426904
 Sum of Mulliken charges =   1.00000

 Dipole moment (field-independent basis, Debye):
    X=            -10.0045    Y=            -27.2425    Z=             19.5845  Tot=             35.0114
 Quadrupole moment (field-independent basis, Debye-Ang):
   XX=            437.1888   YY=           -305.9665   ZZ=           -249.2143
   XY=           -188.8584   XZ=           -304.9082   YZ=             81.9824

 Normal termination of Gaussian 16 at Sun Aug  7 18:52:57 2022.
