 Gaussian 16, Revision C.01,
 Gaussian 16:  ES64L-G16RevC.01  3-Jul-2019

 -------------------------------------------------------------------
 # B3LYP/6-31G* guess=read geom=check nosymm integral(ultrafinegrid)
 -------------------------------------------------------------------

 ------------------------------------------------------
 Candidate Structure: Conf:315 Charge calc in gas phase
 ------------------------------------------------------
 Structure from the checkpoint file:  "conf-315.chk"
 Charge =  1 Multiplicity = 1

                          Input orientation:
 ---------------------------------------------------------------------
 Center     Atomic      Atomic             Coordinates (Angstroms)
 Number     Number       Type             X           Y           Z
 ---------------------------------------------------------------------
      1          7           0      -10.173187   -0.102999    7.316962
      2          1           0      -10.881382    0.362785    6.747930
      3          1           0      -10.474949   -0.159019    8.290075
      4          1           0      -10.022816   -1.041135    6.929562
      5          6           0       -8.867741    0.571254    7.219046
      6          1           0       -9.016579    1.645742    7.083453
      7          6           0       -8.142748   -0.024875    6.010968
      8          6           0       -8.041241    0.351189    8.489079
      9          1           0       -7.069867    0.835141    8.366162
     10          1           0       -7.856225   -0.719071    8.608626
     11          8           0       -8.433957   -1.133517    5.587157
     12          6           0       -8.737885    0.891359    9.712475
     13          6           0       -8.902879    2.265022    9.879125
     14          1           0       -8.497519    2.933353    9.128175
     15          6           0       -9.282972    0.034304   10.663095
     16          1           0       -9.179509   -1.039063   10.535845
     17          6           0       -9.571390    2.774747   10.987477
     18          1           0       -9.677334    3.847707   11.100830
     19          6           0       -9.968151    0.534796   11.766755
     20          1           0      -10.388688   -0.151317   12.492567
     21          6           0      -10.110418    1.908918   11.934339
     22          1           0      -10.638432    2.301676   12.795795
     23          7           0       -7.145530    0.716838    5.484913
     24          1           0       -6.846810    1.597843    5.873570
     25          6           0       -6.334713    0.223433    4.396042
     26          1           0       -6.030512   -0.804456    4.614471
     27          6           0       -5.099468    1.131023    4.348066
     28          6           0       -7.087848    0.224878    3.062821
     29          1           0       -6.452810   -0.206131    2.283917
     30          1           0       -7.375556    1.239024    2.762894
     31          1           0       -7.985602   -0.381261    3.166285
     32          8           0       -5.024994    2.161644    4.994060
     33          7           0       -4.122804    0.729593    3.504279
     34          1           0       -4.169048   -0.166238    3.046432
     35          6           0       -2.921212    1.531810    3.325067
     36          1           0       -3.241094    2.576111    3.269508
     37          6           0       -2.319075    1.081067    2.002096
     38          6           0       -1.935227    1.355552    4.470361
     39          1           0       -1.065121    1.997537    4.314959
     40          1           0       -1.602210    0.319138    4.530243
     41          1           0       -2.421360    1.629093    5.406590
     42          8           0       -1.991223   -0.093836    1.829347
     43          7           0       -2.181597    2.028850    1.051735
     44          1           0       -2.599462    2.926277    1.235655
     45          6           0       -2.055745    1.644717   -0.354015
     46          1           0       -2.479210    0.636597   -0.431290
     47          6           0       -0.583001    1.570301   -0.755843
     48          6           0       -2.862107    2.593794   -1.249429
     49          1           0       -2.433865    3.593311   -1.197347
     50          1           0       -2.755641    2.253387   -2.280114
     51          8           0       -0.106867    2.214166   -1.690906
     52          6           0       -4.289873    2.607684   -0.828636
     53          6           0       -5.092432    1.475545   -1.026991
     54          1           0       -4.673492    0.627723   -1.559479
     55          6           0       -4.830874    3.697954   -0.136606
     56          1           0       -4.224845    4.587286    0.009670
     57          6           0       -6.383940    1.409854   -0.563456
     58          1           0       -6.998077    0.532191   -0.712348
     59          6           0       -6.108986    3.678874    0.370180
     60          1           0       -6.523899    4.521775    0.904527
     61          8           0       -8.091825    2.444031    0.686516
     62          6           0       -6.955002    2.508386    0.199570
     63          7           0        0.173853    0.750691    0.008751
     64          1           0       -0.284947    0.151966    0.685914
     65          6           0        1.574838    0.554107   -0.307127
     66          1           0        1.926085    1.514708   -0.692037
     67          6           0        1.716421   -0.480819   -1.420700
     68          6           0        2.382140    0.175723    0.922677
     69          1           0        2.169208    0.913305    1.699390
     70          1           0        2.035041   -0.795294    1.282629
     71          8           0        1.968528   -1.660687   -1.210002
     72          6           0        3.895411    0.116485    0.686491
     73          1           0        4.070975   -0.615194   -0.114223
     74          6           0        4.467502    1.452303    0.228524
     75          1           0        4.286695    2.227074    0.979118
     76          1           0        5.547444    1.370955    0.083552
     77          1           0        4.035150    1.778275   -0.719812
     78          6           0        4.593467   -0.384276    1.944257
     79          1           0        4.443236    0.311964    2.771671
     80          1           0        4.209268   -1.362622    2.247725
     81          1           0        5.670482   -0.481885    1.775187
     82          7           0        1.492939   -0.023992   -2.675711
     83          1           0        1.302054    0.959369   -2.807066
     84          6           0        2.012809   -0.814187   -3.778558
     85          1           0        1.451600   -1.753198   -3.814197
     86          6           0        3.482508   -1.131981   -3.483277
     87          6           0        1.846531   -0.050991   -5.093697
     88          1           0        0.797971    0.235805   -5.174174
     89          1           0        2.432925    0.866422   -5.038428
     90          8           0        4.255040   -0.279733   -3.048068
     91          6           0        2.249311   -0.860457   -6.324645
     92          1           0        1.665431   -1.785323   -6.364930
     93          1           0        3.305901   -1.131761   -6.310987
     94          6           0        2.009767   -0.116733   -7.608876
     95          8           0        2.820562    0.049514   -8.483350
     96          8           0        0.740193    0.344061   -7.699998
     97          7           0        3.848588   -2.414217   -3.744421
     98          1           0        3.152935   -3.093169   -4.004772
     99          6           0        5.215855   -2.861362   -3.600044
    100          1           0        5.835111   -1.969207   -3.499712
    101          6           0        5.700613   -3.612204   -4.824628
    102          6           0        5.436991   -3.752380   -2.366159
    103          1           0        6.464556   -4.109711   -2.406298
    104          1           0        4.787884   -4.627678   -2.427970
    105          8           0        6.844946   -3.654434   -5.192977
    106          6           0        5.182530   -2.999491   -1.073111
    107          1           0        4.135528   -2.700586   -1.030159
    108          1           0        5.765917   -2.070796   -1.084096
    109          6           0        5.507941   -3.783175    0.190497
    110          1           0        4.944437   -4.716336    0.205702
    111          1           0        5.188734   -3.209685    1.061584
    112          7           0        6.951091   -4.037677    0.361321
    113          1           0        7.527590   -3.211654    0.291087
    114          7           0        6.930271   -6.300604   -0.294142
    115          1           0        7.424067   -7.178651   -0.254099
    116          1           0        5.945198   -6.367469   -0.085979
    117          7           0        8.947124   -5.166119    0.053445
    118          1           0        9.415310   -6.060399    0.054286
    119          1           0        9.406009   -4.462695    0.617855
    120          6           0        7.588846   -5.176167    0.064239
    121          8           0        4.707258   -4.297711   -5.441656
    122          1           0        0.674457    0.786384   -8.555317
    123          1           0        5.120003   -4.767294   -6.178532
 ---------------------------------------------------------------------

 SCF Done:  E(RB3LYP) =  -2973.91453203     A.U. after    3 cycles

 Alpha  occ. eigenvalues --  -19.27413 -19.23745 -19.23199 -19.21557 -19.18198
 Alpha  occ. eigenvalues --  -19.18125 -19.17778 -19.17108 -19.16877 -19.15410
 Alpha  occ. eigenvalues --  -19.03321 -14.59726 -14.51757 -14.51513 -14.51344
 Alpha  occ. eigenvalues --  -14.45402 -14.43291 -14.41742 -14.40577 -14.40207
 Alpha  occ. eigenvalues --  -14.39460 -10.46828 -10.40111 -10.39621 -10.38604
 Alpha  occ. eigenvalues --  -10.36395 -10.34963 -10.34932 -10.34856 -10.33643
 Alpha  occ. eigenvalues --  -10.33135 -10.32344 -10.31976 -10.31620 -10.30474
 Alpha  occ. eigenvalues --  -10.29982 -10.29395 -10.29119 -10.29095 -10.28824
 Alpha  occ. eigenvalues --  -10.28780 -10.28560 -10.28443 -10.28347 -10.27987
 Alpha  occ. eigenvalues --  -10.27062 -10.25901 -10.25413 -10.25225 -10.23829
 Alpha  occ. eigenvalues --  -10.23505 -10.23097 -10.22794 -10.21776 -10.21706
 Alpha  occ. eigenvalues --  -10.19481 -10.18845 -10.16023 -10.15952 -10.15350
 Alpha  occ. eigenvalues --  -10.13800 -10.13552  -1.18576  -1.17177  -1.16124
 Alpha  occ. eigenvalues --   -1.15093  -1.13835  -1.10872  -1.10273  -1.09504
 Alpha  occ. eigenvalues --   -1.09180  -1.08754  -1.07219  -1.05968  -1.05737
 Alpha  occ. eigenvalues --   -1.04714  -1.02178  -1.00221  -0.98542  -0.97599
 Alpha  occ. eigenvalues --   -0.97468  -0.96790  -0.96249  -0.94069  -0.92250
 Alpha  occ. eigenvalues --   -0.90529  -0.86905  -0.86587  -0.86379  -0.85309
 Alpha  occ. eigenvalues --   -0.84711  -0.84302  -0.82719  -0.81146  -0.80721
 Alpha  occ. eigenvalues --   -0.79982  -0.78458  -0.78308  -0.77584  -0.77014
 Alpha  occ. eigenvalues --   -0.73902  -0.73816  -0.73690  -0.73370  -0.72421
 Alpha  occ. eigenvalues --   -0.71946  -0.71711  -0.71326  -0.71065  -0.70887
 Alpha  occ. eigenvalues --   -0.70606  -0.69545  -0.68931  -0.68811  -0.68003
 Alpha  occ. eigenvalues --   -0.66963  -0.66120  -0.65549  -0.64955  -0.64598
 Alpha  occ. eigenvalues --   -0.64176  -0.64122  -0.64001  -0.63048  -0.62668
 Alpha  occ. eigenvalues --   -0.61961  -0.61927  -0.61104  -0.60707  -0.60193
 Alpha  occ. eigenvalues --   -0.59827  -0.58946  -0.58409  -0.57521  -0.57260
 Alpha  occ. eigenvalues --   -0.56951  -0.56316  -0.55954  -0.55719  -0.55506
 Alpha  occ. eigenvalues --   -0.55373  -0.55189  -0.54989  -0.54331  -0.54036
 Alpha  occ. eigenvalues --   -0.53855  -0.53516  -0.53425  -0.52769  -0.52641
 Alpha  occ. eigenvalues --   -0.52341  -0.52311  -0.52170  -0.51824  -0.51615
 Alpha  occ. eigenvalues --   -0.51466  -0.51204  -0.51089  -0.50145  -0.49802
 Alpha  occ. eigenvalues --   -0.49636  -0.49301  -0.49047  -0.48861  -0.48710
 Alpha  occ. eigenvalues --   -0.47885  -0.47583  -0.47294  -0.47238  -0.46871
 Alpha  occ. eigenvalues --   -0.46633  -0.46297  -0.46201  -0.45712  -0.45396
 Alpha  occ. eigenvalues --   -0.44960  -0.44694  -0.44573  -0.44286  -0.44142
 Alpha  occ. eigenvalues --   -0.44111  -0.44091  -0.43982  -0.43701  -0.43508
 Alpha  occ. eigenvalues --   -0.43437  -0.43175  -0.43090  -0.42739  -0.42435
 Alpha  occ. eigenvalues --   -0.42215  -0.42036  -0.41793  -0.41361  -0.41199
 Alpha  occ. eigenvalues --   -0.41140  -0.41016  -0.40676  -0.40407  -0.40056
 Alpha  occ. eigenvalues --   -0.40021  -0.39457  -0.38992  -0.38130  -0.37739
 Alpha  occ. eigenvalues --   -0.37621  -0.37390  -0.37205  -0.36148  -0.36069
 Alpha  occ. eigenvalues --   -0.35415  -0.35262  -0.34967  -0.34926  -0.34090
 Alpha  occ. eigenvalues --   -0.32554  -0.32450  -0.32187  -0.32068  -0.31901
 Alpha  occ. eigenvalues --   -0.31873  -0.31677  -0.31657  -0.31313  -0.30528
 Alpha  occ. eigenvalues --   -0.30301  -0.28671  -0.27900  -0.27278  -0.22331
 Alpha  occ. eigenvalues --   -0.17147  -0.13705
 Alpha virt. eigenvalues --   -0.13020  -0.11579  -0.10494  -0.08830  -0.08487
 Alpha virt. eigenvalues --   -0.08398  -0.06879  -0.05335  -0.04813  -0.04262
 Alpha virt. eigenvalues --   -0.03806  -0.03758  -0.03656  -0.02967  -0.02807

 Mulliken charges:
               1
     1  N   -0.720728
     2  H    0.430614
     3  H    0.409619
     4  H    0.418293
     5  C   -0.135440
     6  H    0.219528
     7  C    0.646930
     8  C   -0.383410
     9  H    0.216049
    10  H    0.186617
    11  O   -0.520702
    12  C    0.138850
    13  C   -0.185105
    14  H    0.145855
    15  C   -0.215791
    16  H    0.141061
    17  C   -0.123477
    18  H    0.166051
    19  C   -0.122059
    20  H    0.162079
    21  C   -0.124039
    22  H    0.165848
    23  N   -0.606128
    24  H    0.357501
    25  C   -0.057122
    26  H    0.172601
    27  C    0.639587
    28  C   -0.456519
    29  H    0.167621
    30  H    0.226527
    31  H    0.167873
    32  O   -0.540907
    33  N   -0.617081
    34  H    0.351552
    35  C   -0.007427
    36  H    0.183071
    37  C    0.603201
    38  C   -0.452735
    39  H    0.154477
    40  H    0.161815
    41  H    0.172367
    42  O   -0.564562
    43  N   -0.577699
    44  H    0.347441
    45  C   -0.075202
    46  H    0.187789
    47  C    0.641333
    48  C   -0.381559
    49  H    0.148484
    50  H    0.156060
    51  O   -0.550691
    52  C    0.145362
    53  C   -0.186725
    54  H    0.077282
    55  C   -0.213083
    56  H    0.077387
    57  C   -0.225187
    58  H    0.081525
    59  C   -0.223141
    60  H    0.083602
    61  O   -0.657541
    62  C    0.422915
    63  N   -0.625564
    64  H    0.366208
    65  C   -0.056022
    66  H    0.176607
    67  C    0.651924
    68  C   -0.266692
    69  H    0.139696
    70  H    0.141664
    71  O   -0.564887
    72  C   -0.100266
    73  H    0.151482
    74  C   -0.445944
    75  H    0.141191
    76  H    0.134616
    77  H    0.172415
    78  C   -0.448415
    79  H    0.153832
    80  H    0.132574
    81  H    0.116642
    82  N   -0.612586
    83  H    0.369452
    84  C   -0.010650
    85  H    0.152194
    86  C    0.636614
    87  C   -0.315412
    88  H    0.196700
    89  H    0.178705
    90  O   -0.542450
    91  C   -0.351556
    92  H    0.170265
    93  H    0.179989
    94  C    0.567875
    95  O   -0.449029
    96  O   -0.557990
    97  N   -0.597380
    98  H    0.346933
    99  C   -0.053010
   100  H    0.213599
   101  C    0.587711
   102  C   -0.280613
   103  H    0.155148
   104  H    0.143734
   105  O   -0.448619
   106  C   -0.307927
   107  H    0.239724
   108  H    0.166977
   109  C   -0.189110
   110  H    0.162375
   111  H    0.211842
   112  N   -0.570983
   113  H    0.364070
   114  N   -0.726219
   115  H    0.369701
   116  H    0.378311
   117  N   -0.729770
   118  H    0.366970
   119  H    0.372307
   120  C    0.724781
   121  O   -0.576060
   122  H    0.417455
   123  H    0.424163
 Sum of Mulliken charges =   1.00000

 Dipole moment (field-independent basis, Debye):
    X=              5.2629    Y=            -24.9313    Z=             31.6009  Tot=             40.5941
 Quadrupole moment (field-independent basis, Debye-Ang):
   XX=             61.5908   YY=           -249.8256   ZZ=            -92.1806
   XY=           -122.0009   XZ=           -276.0934   YZ=             28.3605

 Normal termination of Gaussian 16 at Sun Aug  7 18:52:18 2022.
