 Gaussian 16, Revision C.01,
 Gaussian 16:  ES64L-G16RevC.01  3-Jul-2019

 -------------------------------------------------------------------
 # B3LYP/6-31G* guess=read geom=check nosymm integral(ultrafinegrid)
 -------------------------------------------------------------------

 ------------------------------------------------------
 Candidate Structure: Conf:288 Charge calc in gas phase
 ------------------------------------------------------
 Structure from the checkpoint file:  "conf-288.chk"
 Charge =  1 Multiplicity = 1

                          Input orientation:
 ---------------------------------------------------------------------
 Center     Atomic      Atomic             Coordinates (Angstroms)
 Number     Number       Type             X           Y           Z
 ---------------------------------------------------------------------
      1          7           0      -11.464159    4.716915    3.317948
      2          1           0      -12.314460    4.151811    3.319200
      3          1           0      -11.672350    5.681682    3.058679
      4          1           0      -11.055707    4.673051    4.259000
      5          6           0      -10.437432    4.151311    2.426046
      6          1           0      -10.913594    3.679448    1.563053
      7          6           0       -9.650708    3.125211    3.235311
      8          6           0       -9.490527    5.246041    1.922431
      9          1           0       -8.718664    4.783054    1.304965
     10          1           0       -8.990016    5.698644    2.782673
     11          8           0       -9.606413    3.192907    4.453370
     12          6           0      -10.221843    6.303355    1.137021
     13          6           0      -10.419887    7.575876    1.663328
     14          1           0      -10.016285    7.817052    2.642029
     15          6           0      -10.769251    6.003596   -0.109070
     16          1           0      -10.635085    5.006048   -0.511723
     17          6           0      -11.137506    8.537440    0.957376
     18          1           0      -11.283429    9.520849    1.388685
     19          6           0      -11.473408    6.963376   -0.829032
     20          1           0      -11.880407    6.709761   -1.801350
     21          6           0      -11.663120    8.234417   -0.294993
     22          1           0      -12.217323    8.982894   -0.849786
     23          7           0       -8.999385    2.163101    2.519152
     24          1           0       -8.846389    2.348462    1.540910
     25          6           0       -7.927978    1.413782    3.149978
     26          1           0       -8.116953    1.447963    4.221111
     27          6           0       -6.598665    2.110833    2.854842
     28          6           0       -7.895815   -0.030756    2.663235
     29          1           0       -7.072945   -0.568911    3.141308
     30          1           0       -7.737628   -0.066672    1.581749
     31          1           0       -8.834630   -0.532296    2.897569
     32          8           0       -6.411273    2.767631    1.840944
     33          7           0       -5.637625    1.927979    3.804408
     34          1           0       -5.798693    1.177941    4.451899
     35          6           0       -4.239626    2.176751    3.490908
     36          1           0       -4.189907    3.132162    2.959935
     37          6           0       -3.712720    1.091364    2.534138
     38          6           0       -3.429712    2.238753    4.776731
     39          1           0       -2.382132    2.455577    4.565464
     40          1           0       -3.487110    1.281730    5.300604
     41          1           0       -3.828959    3.022372    5.422216
     42          8           0       -4.369681    0.116349    2.207155
     43          7           0       -2.446792    1.299411    2.092136
     44          1           0       -1.963583    2.160245    2.290363
     45          6           0       -1.911348    0.536029    0.990032
     46          1           0       -2.056892   -0.525274    1.203206
     47          6           0       -0.414571    0.861735    0.911698
     48          6           0       -2.635237    0.858976   -0.337275
     49          1           0       -2.125245    0.333777   -1.149416
     50          1           0       -3.646556    0.466812   -0.258205
     51          8           0        0.079868    1.819578    1.488866
     52          6           0       -2.689260    2.318758   -0.604155
     53          6           0       -3.786548    3.088967   -0.158713
     54          1           0       -4.605454    2.601590    0.370239
     55          6           0       -1.638287    2.973556   -1.273610
     56          1           0       -0.790856    2.378672   -1.607161
     57          6           0       -3.851106    4.439566   -0.366960
     58          1           0       -4.689942    5.031517   -0.027365
     59          6           0       -1.653415    4.320725   -1.513342
     60          1           0       -0.844077    4.814610   -2.033514
     61          8           0       -2.829496    6.345902   -1.275338
     62          6           0       -2.780959    5.134539   -1.070411
     63          7           0        0.304774    0.015938    0.132805
     64          1           0       -0.152470   -0.711365   -0.392174
     65          6           0        1.700076    0.239070   -0.176627
     66          1           0        1.933811    1.272615    0.079709
     67          6           0        1.898981    0.009261   -1.669525
     68          6           0        2.641599   -0.700945    0.582682
     69          1           0        2.363643   -1.730731    0.331764
     70          1           0        3.655570   -0.547028    0.200254
     71          8           0        1.254838   -0.818652   -2.292256
     72          6           0        2.653819   -0.562524    2.104221
     73          1           0        1.635176   -0.706236    2.467470
     74          6           0        3.522817   -1.669841    2.692843
     75          1           0        4.558686   -1.555829    2.365025
     76          1           0        3.505695   -1.654845    3.784969
     77          1           0        3.168907   -2.649917    2.362423
     78          6           0        3.144090    0.810219    2.556140
     79          1           0        4.165827    0.979661    2.203121
     80          1           0        2.511297    1.614975    2.181865
     81          1           0        3.152433    0.869077    3.647724
     82          7           0        2.889809    0.756730   -2.246391
     83          1           0        3.538874    1.179982   -1.606088
     84          6           0        3.511874    0.264065   -3.477417
     85          1           0        2.703781   -0.035933   -4.146223
     86          6           0        4.375929   -0.942666   -3.116664
     87          6           0        4.360329    1.361514   -4.110928
     88          1           0        3.745671    2.255781   -4.203499
     89          1           0        5.182093    1.592030   -3.433400
     90          8           0        5.223957   -0.865069   -2.228511
     91          6           0        4.899859    0.965316   -5.486403
     92          1           0        4.068055    0.735971   -6.160047
     93          1           0        5.530599    0.078708   -5.430037
     94          6           0        5.709021    2.057320   -6.128742
     95          8           0        6.804502    1.926909   -6.610515
     96          8           0        5.048507    3.238347   -6.134590
     97          7           0        4.114844   -2.077074   -3.802954
     98          1           0        3.406095   -2.075623   -4.513180
     99          6           0        4.884118   -3.274370   -3.573468
    100          1           0        5.747395   -2.964060   -2.973922
    101          6           0        5.460039   -3.848538   -4.850560
    102          6           0        4.124991   -4.347453   -2.787896
    103          1           0        4.801939   -5.190843   -2.654571
    104          1           0        3.270443   -4.708380   -3.359705
    105          8           0        6.001760   -4.920479   -4.916398
    106          6           0        3.671304   -3.822779   -1.435145
    107          1           0        2.903626   -3.059126   -1.565504
    108          1           0        4.521799   -3.337528   -0.945932
    109          6           0        3.138758   -4.913353   -0.526053
    110          1           0        2.927528   -4.502627    0.469288
    111          1           0        3.892678   -5.692628   -0.405527
    112          7           0        1.920100   -5.504235   -1.116673
    113          1           0        1.321332   -4.842329   -1.585650
    114          7           0        1.860197   -7.264897    0.417947
    115          1           0        1.264069   -7.839230    0.993729
    116          1           0        2.629199   -6.831960    0.906433
    117          7           0        0.044229   -6.873984   -1.018972
    118          1           0       -0.239141   -7.828390   -0.846213
    119          1           0       -0.172250   -6.560400   -1.957433
    120          6           0        1.278593   -6.539821   -0.559895
    121          8           0        5.348801   -3.018744   -5.908959
    122          1           0        5.627530    3.869426   -6.579510
    123          1           0        5.773055   -3.470623   -6.650624
 ---------------------------------------------------------------------

 SCF Done:  E(RB3LYP) =  -2973.89296171     A.U. after    3 cycles

 Alpha  occ. eigenvalues --  -19.27276 -19.24989 -19.23806 -19.21353 -19.18949
 Alpha  occ. eigenvalues --  -19.18878 -19.18573 -19.18163 -19.15839 -19.15555
 Alpha  occ. eigenvalues --  -19.03278 -14.60421 -14.50191 -14.49923 -14.49856
 Alpha  occ. eigenvalues --  -14.47019 -14.44266 -14.42419 -14.42069 -14.40560
 Alpha  occ. eigenvalues --  -14.38686 -10.44303 -10.41647 -10.39587 -10.39276
 Alpha  occ. eigenvalues --  -10.36457 -10.35837 -10.35376 -10.35271 -10.34297
 Alpha  occ. eigenvalues --  -10.32789 -10.32282 -10.31981 -10.31801 -10.31525
 Alpha  occ. eigenvalues --  -10.30012 -10.29919 -10.28868 -10.28632 -10.28597
 Alpha  occ. eigenvalues --  -10.28355 -10.28289 -10.28251 -10.28090 -10.28020
 Alpha  occ. eigenvalues --  -10.27791 -10.26094 -10.25726 -10.25464 -10.25334
 Alpha  occ. eigenvalues --  -10.24479 -10.23932 -10.23852 -10.23020 -10.21089
 Alpha  occ. eigenvalues --  -10.19903 -10.18606 -10.15765 -10.15457 -10.15335
 Alpha  occ. eigenvalues --  -10.13470 -10.13450  -1.18601  -1.18382  -1.15160
 Alpha  occ. eigenvalues --   -1.14939  -1.14679  -1.11606  -1.10812  -1.10688
 Alpha  occ. eigenvalues --   -1.09436  -1.08316  -1.07556  -1.06028  -1.04334
 Alpha  occ. eigenvalues --   -1.03770  -1.03425  -1.01234  -0.99439  -0.98907
 Alpha  occ. eigenvalues --   -0.97639  -0.96411  -0.95922  -0.94247  -0.92446
 Alpha  occ. eigenvalues --   -0.90454  -0.87576  -0.87016  -0.86703  -0.85068
 Alpha  occ. eigenvalues --   -0.84843  -0.84150  -0.83206  -0.81716  -0.81288
 Alpha  occ. eigenvalues --   -0.79420  -0.78599  -0.78213  -0.77238  -0.76477
 Alpha  occ. eigenvalues --   -0.74644  -0.73949  -0.73477  -0.73296  -0.72572
 Alpha  occ. eigenvalues --   -0.71981  -0.71363  -0.71046  -0.70873  -0.70810
 Alpha  occ. eigenvalues --   -0.70511  -0.70383  -0.68880  -0.68559  -0.68410
 Alpha  occ. eigenvalues --   -0.67661  -0.66935  -0.66030  -0.65346  -0.64602
 Alpha  occ. eigenvalues --   -0.64011  -0.63870  -0.63599  -0.62858  -0.62439
 Alpha  occ. eigenvalues --   -0.62407  -0.62307  -0.61307  -0.60928  -0.60433
 Alpha  occ. eigenvalues --   -0.59766  -0.59133  -0.58730  -0.57878  -0.57335
 Alpha  occ. eigenvalues --   -0.56893  -0.56623  -0.56310  -0.56033  -0.55845
 Alpha  occ. eigenvalues --   -0.55792  -0.55473  -0.54785  -0.54469  -0.54015
 Alpha  occ. eigenvalues --   -0.53927  -0.53623  -0.53283  -0.53105  -0.52930
 Alpha  occ. eigenvalues --   -0.52614  -0.52406  -0.51903  -0.51450  -0.51421
 Alpha  occ. eigenvalues --   -0.51217  -0.50864  -0.50698  -0.50456  -0.50009
 Alpha  occ. eigenvalues --   -0.49748  -0.49407  -0.49270  -0.49002  -0.48923
 Alpha  occ. eigenvalues --   -0.48553  -0.47939  -0.47798  -0.47495  -0.47265
 Alpha  occ. eigenvalues --   -0.46948  -0.46899  -0.46390  -0.46242  -0.45836
 Alpha  occ. eigenvalues --   -0.45740  -0.45149  -0.44796  -0.44717  -0.44567
 Alpha  occ. eigenvalues --   -0.44501  -0.44265  -0.44149  -0.44082  -0.43970
 Alpha  occ. eigenvalues --   -0.43736  -0.43621  -0.43483  -0.43235  -0.43093
 Alpha  occ. eigenvalues --   -0.42711  -0.42292  -0.42208  -0.42034  -0.41977
 Alpha  occ. eigenvalues --   -0.41787  -0.41170  -0.41018  -0.40666  -0.39469
 Alpha  occ. eigenvalues --   -0.39396  -0.39301  -0.39268  -0.38605  -0.38263
 Alpha  occ. eigenvalues --   -0.38135  -0.37776  -0.37610  -0.37343  -0.36205
 Alpha  occ. eigenvalues --   -0.36160  -0.34943  -0.34891  -0.34470  -0.34366
 Alpha  occ. eigenvalues --   -0.34008  -0.33158  -0.33053  -0.32845  -0.32070
 Alpha  occ. eigenvalues --   -0.31897  -0.31712  -0.31185  -0.30993  -0.30101
 Alpha  occ. eigenvalues --   -0.29694  -0.29184  -0.28406  -0.26967  -0.22017
 Alpha  occ. eigenvalues --   -0.16801  -0.13142
 Alpha virt. eigenvalues --   -0.12202  -0.11984  -0.10327  -0.09354  -0.09323
 Alpha virt. eigenvalues --   -0.07246  -0.06565  -0.05640  -0.04813  -0.04474
 Alpha virt. eigenvalues --   -0.04420  -0.03516  -0.03473  -0.02618  -0.02257

 Mulliken charges:
               1
     1  N   -0.718210
     2  H    0.422978
     3  H    0.410724
     4  H    0.420036
     5  C   -0.142652
     6  H    0.212983
     7  C    0.632198
     8  C   -0.393498
     9  H    0.240055
    10  H    0.193710
    11  O   -0.508735
    12  C    0.146418
    13  C   -0.213404
    14  H    0.142597
    15  C   -0.182343
    16  H    0.138052
    17  C   -0.121285
    18  H    0.162745
    19  C   -0.121736
    20  H    0.163135
    21  C   -0.123149
    22  H    0.165166
    23  N   -0.572361
    24  H    0.350859
    25  C   -0.112221
    26  H    0.193798
    27  C    0.632988
    28  C   -0.441716
    29  H    0.185591
    30  H    0.176921
    31  H    0.160376
    32  O   -0.507530
    33  N   -0.574723
    34  H    0.326845
    35  C   -0.087567
    36  H    0.216087
    37  C    0.645707
    38  C   -0.461676
    39  H    0.179927
    40  H    0.147462
    41  H    0.168425
    42  O   -0.556076
    43  N   -0.607248
    44  H    0.360077
    45  C   -0.026662
    46  H    0.141444
    47  C    0.643434
    48  C   -0.387307
    49  H    0.123896
    50  H    0.163629
    51  O   -0.531346
    52  C    0.137428
    53  C   -0.216128
    54  H    0.118832
    55  C   -0.170339
    56  H    0.067163
    57  C   -0.232096
    58  H    0.071699
    59  C   -0.218595
    60  H    0.088013
    61  O   -0.609631
    62  C    0.416505
    63  N   -0.613005
    64  H    0.332643
    65  C   -0.076591
    66  H    0.198343
    67  C    0.631710
    68  C   -0.263448
    69  H    0.108914
    70  H    0.153454
    71  O   -0.552444
    72  C   -0.066444
    73  H    0.137556
    74  C   -0.445809
    75  H    0.148548
    76  H    0.153898
    77  H    0.110054
    78  C   -0.467316
    79  H    0.133042
    80  H    0.193575
    81  H    0.146767
    82  N   -0.580562
    83  H    0.345221
    84  C   -0.063499
    85  H    0.168806
    86  C    0.631738
    87  C   -0.295694
    88  H    0.198840
    89  H    0.172195
    90  O   -0.542791
    91  C   -0.358956
    92  H    0.173706
    93  H    0.186643
    94  C    0.568369
    95  O   -0.449174
    96  O   -0.557259
    97  N   -0.589705
    98  H    0.345047
    99  C   -0.074275
   100  H    0.228955
   101  C    0.592005
   102  C   -0.256303
   103  H    0.179264
   104  H    0.138254
   105  O   -0.451197
   106  C   -0.330035
   107  H    0.181194
   108  H    0.193810
   109  C   -0.175913
   110  H    0.182663
   111  H    0.182210
   112  N   -0.584674
   113  H    0.359870
   114  N   -0.738033
   115  H    0.368737
   116  H    0.379227
   117  N   -0.736827
   118  H    0.364005
   119  H    0.366061
   120  C    0.707017
   121  O   -0.565792
   122  H    0.417671
   123  H    0.426067
 Sum of Mulliken charges =   1.00000

 Dipole moment (field-independent basis, Debye):
    X=            -31.3749    Y=            -15.8764    Z=              9.4732  Tot=             36.4168
 Quadrupole moment (field-independent basis, Debye-Ang):
   XX=            122.5502   YY=           -193.6000   ZZ=           -294.1632
   XY=           -196.2480   XZ=           -121.6969   YZ=             66.4652

 Normal termination of Gaussian 16 at Sun Aug  7 18:52:30 2022.
