 Gaussian 16, Revision C.01,
 Gaussian 16:  ES64L-G16RevC.01  3-Jul-2019

 -------------------------------------------------------------------
 # B3LYP/6-31G* guess=read geom=check nosymm integral(ultrafinegrid)
 -------------------------------------------------------------------

 ------------------------------------------------------
 Candidate Structure: Conf:549 Charge calc in gas phase
 ------------------------------------------------------
 Structure from the checkpoint file:  "conf-549.chk"
 Charge =  1 Multiplicity = 1

                          Input orientation:
 ---------------------------------------------------------------------
 Center     Atomic      Atomic             Coordinates (Angstroms)
 Number     Number       Type             X           Y           Z
 ---------------------------------------------------------------------
      1          7           0      -10.709874    1.190211    4.617009
      2          1           0      -11.152360    1.020465    3.712784
      3          1           0      -11.195917    1.932326    5.121283
      4          1           0      -10.734439    0.315120    5.151998
      5          6           0       -9.280564    1.513928    4.469750
      6          1           0       -9.115539    2.064591    3.539602
      7          6           0       -8.525374    0.184223    4.440221
      8          6           0       -8.792099    2.368898    5.642094
      9          1           0       -7.725949    2.568065    5.514241
     10          1           0       -8.905783    1.795003    6.564889
     11          8           0       -8.990172   -0.812447    4.974182
     12          6           0       -9.552794    3.666903    5.748632
     13          6           0       -9.403120    4.652502    4.775267
     14          1           0       -8.711028    4.478068    3.960008
     15          6           0      -10.461696    3.880916    6.779911
     16          1           0      -10.603661    3.112827    7.534139
     17          6           0      -10.123530    5.840433    4.845106
     18          1           0       -9.981910    6.596958    4.081670
     19          6           0      -11.199101    5.059559    6.848896
     20          1           0      -11.905076    5.203233    7.658427
     21          6           0      -11.028134    6.046073    5.882410
     22          1           0      -11.596574    6.967538    5.936996
     23          7           0       -7.319450    0.195830    3.832797
     24          1           0       -6.883941    1.045470    3.513904
     25          6           0       -6.451559   -0.961377    3.859935
     26          1           0       -6.425216   -1.353202    4.881360
     27          6           0       -5.060751   -0.433993    3.498031
     28          6           0       -6.932932   -2.083810    2.945068
     29          1           0       -6.272377   -2.948563    3.015485
     30          1           0       -6.956367   -1.747339    1.912608
     31          1           0       -7.942113   -2.370032    3.234555
     32          8           0       -4.887996    0.723619    3.119156
     33          7           0       -4.046478   -1.319804    3.622973
     34          1           0       -4.240698   -2.217397    4.031859
     35          6           0       -2.643792   -0.899709    3.601063
     36          1           0       -2.601309    0.095766    4.057460
     37          6           0       -2.159338   -0.778443    2.154403
     38          6           0       -1.800283   -1.886783    4.386980
     39          1           0       -0.749246   -1.597002    4.354916
     40          1           0       -1.888577   -2.886175    3.958736
     41          1           0       -2.124963   -1.907813    5.429700
     42          8           0       -1.458808   -1.637950    1.614304
     43          7           0       -2.532535    0.347120    1.507842
     44          1           0       -3.253164    0.924450    1.927819
     45          6           0       -2.223892    0.534050    0.099011
     46          1           0       -2.230348   -0.463329   -0.352623
     47          6           0       -0.822006    1.136140   -0.073835
     48          6           0       -3.275423    1.410922   -0.586332
     49          1           0       -3.241496    2.410750   -0.156147
     50          1           0       -2.984135    1.512846   -1.632681
     51          8           0       -0.616388    2.199892   -0.659117
     52          6           0       -4.639895    0.840221   -0.466615
     53          6           0       -4.967176   -0.364486   -1.108472
     54          1           0       -4.213762   -0.843778   -1.725300
     55          6           0       -5.606149    1.467430    0.327667
     56          1           0       -5.352633    2.389578    0.845638
     57          6           0       -6.209566   -0.939915   -0.982043
     58          1           0       -6.471028   -1.870837   -1.466789
     59          6           0       -6.854124    0.934129    0.498337
     60          1           0       -7.602205    1.392137    1.132268
     61          8           0       -8.313100   -0.856271    0.057361
     62          6           0       -7.214148   -0.326021   -0.132706
     63          7           0        0.185917    0.426824    0.481597
     64          1           0       -0.006445   -0.505083    0.830184
     65          6           0        1.556163    0.877092    0.328727
     66          1           0        1.519947    1.967774    0.395442
     67          6           0        2.079521    0.487502   -1.049779
     68          6           0        2.445038    0.336320    1.434606
     69          1           0        2.000510    0.643100    2.384502
     70          1           0        2.427584   -0.755384    1.398008
     71          8           0        2.685493   -0.554917   -1.270203
     72          6           0        3.902509    0.816144    1.385628
     73          1           0        4.368094    0.383308    0.492423
     74          6           0        4.012372    2.334040    1.280209
     75          1           0        3.489174    2.819602    2.110074
     76          1           0        5.061418    2.638407    1.319184
     77          1           0        3.600153    2.708812    0.341209
     78          6           0        4.636628    0.294572    2.616495
     79          1           0        4.205570    0.725773    3.522818
     80          1           0        4.561570   -0.792744    2.685405
     81          1           0        5.696275    0.557666    2.586507
     82          7           0        1.804351    1.366977   -2.039530
     83          1           0        1.159515    2.128219   -1.873058
     84          6           0        2.471008    1.199732   -3.316853
     85          1           0        2.112999    0.275646   -3.778495
     86          6           0        3.975083    1.075047   -3.056059
     87          6           0        2.157429    2.380191   -4.238779
     88          1           0        1.086874    2.353502   -4.449036
     89          1           0        2.370951    3.304934   -3.696835
     90          8           0        4.576442    1.814799   -2.291955
     91          6           0        2.932137    2.380387   -5.557570
     92          1           0        4.003973    2.516868   -5.393459
     93          1           0        2.598410    3.217257   -6.179669
     94          6           0        2.710693    1.126138   -6.359108
     95          8           0        1.700654    0.465373   -6.345458
     96          8           0        3.780579    0.813756   -7.119848
     97          7           0        4.588348    0.097457   -3.781387
     98          1           0        4.032853   -0.609511   -4.232675
     99          6           0        5.982069   -0.209631   -3.540526
    100          1           0        6.462452    0.719150   -3.226817
    101          6           0        6.674938   -0.670492   -4.802369
    102          6           0        6.134567   -1.259794   -2.429982
    103          1           0        5.538075   -2.137279   -2.696837
    104          1           0        5.679654   -0.826461   -1.534477
    105          8           0        7.840551   -0.494003   -5.048630
    106          6           0        7.568237   -1.686922   -2.134093
    107          1           0        8.003801   -2.200031   -2.995097
    108          1           0        7.540432   -2.409566   -1.315038
    109          6           0        8.475774   -0.540224   -1.720390
    110          1           0        8.031997   -0.008316   -0.875415
    111          1           0        8.592554    0.171944   -2.538555
    112          7           0        9.784027   -1.090826   -1.312680
    113          1           0       10.087493   -1.891936   -1.846283
    114          7           0       10.592121    0.995170   -0.622820
    115          1           0       11.236538    1.482138   -0.021648
    116          1           0        9.650812    1.348632   -0.640954
    117          7           0       12.006286   -0.876116   -0.703668
    118          1           0       12.684632   -0.355395   -0.170098
    119          1           0       12.033223   -1.874966   -0.551903
    120          6           0       10.783148   -0.315490   -0.861993
    121          8           0        5.849975   -1.353545   -5.628985
    122          1           0        3.559707   -0.004149   -7.585854
    123          1           0        6.386671   -1.629698   -6.382968
 ---------------------------------------------------------------------

 SCF Done:  E(RB3LYP) =  -2973.92373646     A.U. after    3 cycles

 Alpha  occ. eigenvalues --  -19.28074 -19.24973 -19.22646 -19.21759 -19.19081
 Alpha  occ. eigenvalues --  -19.18682 -19.17430 -19.15509 -19.15474 -19.14768
 Alpha  occ. eigenvalues --  -19.03512 -14.58158 -14.51967 -14.51495 -14.51279
 Alpha  occ. eigenvalues --  -14.43928 -14.42515 -14.42480 -14.39351 -14.38752
 Alpha  occ. eigenvalues --  -14.38560 -10.46852 -10.40432 -10.38587 -10.37235
 Alpha  occ. eigenvalues --  -10.36984 -10.35259 -10.34674 -10.34368 -10.32285
 Alpha  occ. eigenvalues --  -10.31941 -10.31536 -10.31273 -10.31078 -10.29726
 Alpha  occ. eigenvalues --  -10.29381 -10.29353 -10.28835 -10.28328 -10.28017
 Alpha  occ. eigenvalues --  -10.27956 -10.27802 -10.27714 -10.27681 -10.27541
 Alpha  occ. eigenvalues --  -10.26159 -10.25508 -10.24846 -10.24819 -10.23613
 Alpha  occ. eigenvalues --  -10.22924 -10.22219 -10.21992 -10.21377 -10.21218
 Alpha  occ. eigenvalues --  -10.19062 -10.18770 -10.16158 -10.15864 -10.15171
 Alpha  occ. eigenvalues --  -10.14035 -10.13747  -1.19422  -1.16301  -1.16170
 Alpha  occ. eigenvalues --   -1.15652  -1.12340  -1.10740  -1.10464  -1.09960
 Alpha  occ. eigenvalues --   -1.07835  -1.07463  -1.07021  -1.06428  -1.05639
 Alpha  occ. eigenvalues --   -1.05078  -1.00889  -0.99756  -0.99167  -0.96536
 Alpha  occ. eigenvalues --   -0.95960  -0.95655  -0.95164  -0.94632  -0.90942
 Alpha  occ. eigenvalues --   -0.90914  -0.86374  -0.85672  -0.85490  -0.84643
 Alpha  occ. eigenvalues --   -0.83933  -0.83574  -0.82279  -0.80911  -0.80305
 Alpha  occ. eigenvalues --   -0.79545  -0.78025  -0.77465  -0.77163  -0.76863
 Alpha  occ. eigenvalues --   -0.74118  -0.72846  -0.72356  -0.72160  -0.71870
 Alpha  occ. eigenvalues --   -0.71819  -0.71532  -0.71381  -0.71104  -0.70154
 Alpha  occ. eigenvalues --   -0.69841  -0.69758  -0.68553  -0.67876  -0.67449
 Alpha  occ. eigenvalues --   -0.67042  -0.65906  -0.64946  -0.64816  -0.64119
 Alpha  occ. eigenvalues --   -0.63809  -0.63708  -0.63194  -0.61962  -0.61582
 Alpha  occ. eigenvalues --   -0.61257  -0.60838  -0.60621  -0.59837  -0.59714
 Alpha  occ. eigenvalues --   -0.59531  -0.58907  -0.57671  -0.57279  -0.56975
 Alpha  occ. eigenvalues --   -0.56679  -0.56558  -0.56021  -0.55866  -0.55295
 Alpha  occ. eigenvalues --   -0.54817  -0.54632  -0.54247  -0.54071  -0.53953
 Alpha  occ. eigenvalues --   -0.53736  -0.53693  -0.53595  -0.52952  -0.52759
 Alpha  occ. eigenvalues --   -0.52476  -0.51611  -0.51323  -0.51155  -0.51066
 Alpha  occ. eigenvalues --   -0.50781  -0.50466  -0.50343  -0.50163  -0.49500
 Alpha  occ. eigenvalues --   -0.49055  -0.48653  -0.48381  -0.48123  -0.47702
 Alpha  occ. eigenvalues --   -0.47455  -0.47342  -0.46667  -0.46165  -0.46012
 Alpha  occ. eigenvalues --   -0.45827  -0.45629  -0.45231  -0.45127  -0.44918
 Alpha  occ. eigenvalues --   -0.44834  -0.44683  -0.44054  -0.43980  -0.43779
 Alpha  occ. eigenvalues --   -0.43692  -0.43641  -0.43414  -0.43353  -0.43288
 Alpha  occ. eigenvalues --   -0.43143  -0.43087  -0.43017  -0.42707  -0.42223
 Alpha  occ. eigenvalues --   -0.41976  -0.41684  -0.41426  -0.41098  -0.40931
 Alpha  occ. eigenvalues --   -0.40706  -0.40604  -0.40456  -0.40315  -0.39974
 Alpha  occ. eigenvalues --   -0.39618  -0.39301  -0.39203  -0.37230  -0.37216
 Alpha  occ. eigenvalues --   -0.36790  -0.36659  -0.36596  -0.36481  -0.36375
 Alpha  occ. eigenvalues --   -0.35208  -0.34759  -0.34350  -0.33869  -0.33588
 Alpha  occ. eigenvalues --   -0.32955  -0.32754  -0.32643  -0.32220  -0.32049
 Alpha  occ. eigenvalues --   -0.31554  -0.31336  -0.31022  -0.30686  -0.29276
 Alpha  occ. eigenvalues --   -0.28779  -0.27811  -0.27283  -0.26768  -0.22339
 Alpha  occ. eigenvalues --   -0.17502  -0.13848
 Alpha virt. eigenvalues --   -0.13228  -0.10371  -0.09386  -0.08220  -0.07610
 Alpha virt. eigenvalues --   -0.07302  -0.06922  -0.04326  -0.04249  -0.04068
 Alpha virt. eigenvalues --   -0.03819  -0.03237  -0.02810  -0.02734  -0.02405

 Mulliken charges:
               1
     1  N   -0.722687
     2  H    0.436120
     3  H    0.407416
     4  H    0.415936
     5  C   -0.139064
     6  H    0.233978
     7  C    0.652181
     8  C   -0.382149
     9  H    0.211612
    10  H    0.183707
    11  O   -0.528971
    12  C    0.136698
    13  C   -0.185078
    14  H    0.151449
    15  C   -0.215321
    16  H    0.139606
    17  C   -0.123948
    18  H    0.164666
    19  C   -0.122426
    20  H    0.159155
    21  C   -0.124467
    22  H    0.162548
    23  N   -0.594488
    24  H    0.367883
    25  C   -0.047445
    26  H    0.166875
    27  C    0.643213
    28  C   -0.467787
    29  H    0.138645
    30  H    0.251826
    31  H    0.180918
    32  O   -0.536915
    33  N   -0.597383
    34  H    0.340240
    35  C   -0.056190
    36  H    0.169456
    37  C    0.641259
    38  C   -0.474717
    39  H    0.174419
    40  H    0.180480
    41  H    0.146716
    42  O   -0.554171
    43  N   -0.604128
    44  H    0.378115
    45  C   -0.061588
    46  H    0.189578
    47  C    0.634807
    48  C   -0.381013
    49  H    0.141346
    50  H    0.152564
    51  O   -0.554494
    52  C    0.140879
    53  C   -0.179629
    54  H    0.086518
    55  C   -0.162155
    56  H    0.066573
    57  C   -0.227815
    58  H    0.092648
    59  C   -0.229699
    60  H    0.013038
    61  O   -0.669643
    62  C    0.425364
    63  N   -0.628250
    64  H    0.371910
    65  C   -0.054966
    66  H    0.169155
    67  C    0.657310
    68  C   -0.268586
    69  H    0.132503
    70  H    0.150347
    71  O   -0.567591
    72  C   -0.089695
    73  H    0.145938
    74  C   -0.447208
    75  H    0.137129
    76  H    0.122573
    77  H    0.171052
    78  C   -0.439969
    79  H    0.143488
    80  H    0.141547
    81  H    0.117284
    82  N   -0.630279
    83  H    0.368986
    84  C   -0.004689
    85  H    0.175319
    86  C    0.636623
    87  C   -0.301401
    88  H    0.188380
    89  H    0.167217
    90  O   -0.546945
    91  C   -0.369217
    92  H    0.180282
    93  H    0.196396
    94  C    0.579269
    95  O   -0.455815
    96  O   -0.564513
    97  N   -0.602733
    98  H    0.354384
    99  C   -0.056366
   100  H    0.192999
   101  C    0.604212
   102  C   -0.288843
   103  H    0.175414
   104  H    0.207175
   105  O   -0.473337
   106  C   -0.318368
   107  H    0.165947
   108  H    0.172040
   109  C   -0.161545
   110  H    0.181146
   111  H    0.208486
   112  N   -0.595277
   113  H    0.364482
   114  N   -0.732042
   115  H    0.373168
   116  H    0.391066
   117  N   -0.733262
   118  H    0.368457
   119  H    0.374988
   120  C    0.746429
   121  O   -0.568208
   122  H    0.408984
   123  H    0.421957
 Sum of Mulliken charges =   1.00000

 Dipole moment (field-independent basis, Debye):
    X=             19.5258    Y=              5.4403    Z=             16.0958  Tot=             25.8829
 Quadrupole moment (field-independent basis, Debye-Ang):
   XX=            310.2463   YY=           -321.4198   ZZ=           -226.8799
   XY=           -122.2437   XZ=           -229.9252   YZ=             46.3883

 Normal termination of Gaussian 16 at Sun Aug  7 18:52:25 2022.
