 Gaussian 16, Revision C.01,
 Gaussian 16:  ES64L-G16RevC.01  3-Jul-2019

 -------------------------------------------------------------------
 # B3LYP/6-31G* guess=read geom=check nosymm integral(ultrafinegrid)
 -------------------------------------------------------------------

 ------------------------------------------------------
 Candidate Structure: Conf:497 Charge calc in gas phase
 ------------------------------------------------------
 Structure from the checkpoint file:  "conf-497.chk"
 Charge =  1 Multiplicity = 1

                          Input orientation:
 ---------------------------------------------------------------------
 Center     Atomic      Atomic             Coordinates (Angstroms)
 Number     Number       Type             X           Y           Z
 ---------------------------------------------------------------------
      1          7           0       -9.543949   -4.073984    8.792095
      2          1           0       -9.407223   -4.787330    8.018719
      3          1           0      -10.525902   -3.990207    9.063552
      4          1           0       -8.982618   -4.363125    9.610278
      5          6           0       -8.958155   -2.819880    8.183995
      6          1           0       -9.796746   -2.227047    7.805427
      7          6           0       -8.178261   -3.380016    6.955756
      8          6           0       -8.164093   -2.006532    9.232765
      9          1           0       -8.884586   -1.565602    9.931998
     10          1           0       -7.694901   -1.161223    8.718337
     11          8           0       -8.398310   -4.556495    6.630081
     12          6           0       -7.136264   -2.826753    9.986265
     13          6           0       -7.490585   -3.456472   11.192416
     14          1           0       -8.469484   -3.270825   11.634772
     15          6           0       -5.836163   -2.999619    9.487506
     16          1           0       -5.532155   -2.491973    8.575423
     17          6           0       -6.572639   -4.260449   11.875142
     18          1           0       -6.857233   -4.729590   12.812274
     19          6           0       -4.920492   -3.795916   10.175078
     20          1           0       -3.912977   -3.911642    9.786577
     21          6           0       -5.287603   -4.434591   11.362702
     22          1           0       -4.568811   -5.050996   11.894000
     23          7           0       -7.377964   -2.538041    6.315097
     24          1           0       -7.098546   -1.637980    6.710918
     25          6           0       -6.517055   -2.916306    5.193018
     26          1           0       -6.154024   -3.935595    5.367412
     27          6           0       -5.328386   -1.925649    5.279465
     28          6           0       -7.262889   -2.861294    3.851583
     29          1           0       -6.608509   -3.162872    3.028085
     30          1           0       -7.626962   -1.849212    3.648974
     31          1           0       -8.113713   -3.547967    3.872983
     32          8           0       -5.329042   -1.041824    6.148824
     33          7           0       -4.354152   -2.101639    4.382404
     34          1           0       -4.410395   -2.793569    3.634941
     35          6           0       -3.199023   -1.221312    4.243489
     36          1           0       -3.542159   -0.181812    4.304207
     37          6           0       -2.649394   -1.508041    2.827387
     38          6           0       -2.144135   -1.469596    5.334654
     39          1           0       -1.293893   -0.790572    5.216489
     40          1           0       -1.773917   -2.498695    5.284272
     41          1           0       -2.587399   -1.295491    6.318605
     42          8           0       -3.061912   -2.478765    2.184586
     43          7           0       -1.710743   -0.655580    2.386735
     44          1           0       -1.378255    0.126695    2.945254
     45          6           0       -1.025408   -0.792150    1.107834
     46          1           0       -0.821576   -1.853790    0.936745
     47          6           0        0.298485   -0.017504    1.273530
     48          6           0       -1.911350   -0.258842   -0.060066
     49          1           0       -2.830192   -0.856803   -0.036166
     50          1           0       -2.188282    0.775630    0.173075
     51          8           0        0.386298    0.886866    2.107425
     52          6           0       -1.244826   -0.325663   -1.415594
     53          6           0       -0.919412    0.842679   -2.118152
     54          1           0       -1.221280    1.807973   -1.716915
     55          6           0       -0.874532   -1.552788   -1.987199
     56          1           0       -1.157725   -2.483978   -1.498630
     57          6           0       -0.200092    0.799183   -3.309450
     58          1           0        0.050307    1.711899   -3.842742
     59          6           0       -0.137241   -1.612017   -3.168376
     60          1           0        0.160733   -2.570235   -3.582680
     61          8           0        1.050894   -0.427789   -4.910849
     62          6           0        0.250048   -0.427347   -3.816746
     63          7           0        1.316707   -0.418317    0.480035
     64          1           0        1.130157   -1.071394   -0.274424
     65          6           0        2.595297    0.289171    0.392630
     66          1           0        2.465306    1.238593    0.917089
     67          6           0        2.865845    0.498000   -1.103447
     68          6           0        3.733591   -0.533469    1.034922
     69          1           0        3.454987   -0.723217    2.080000
     70          1           0        3.758711   -1.506493    0.527748
     71          8           0        2.747284   -0.445009   -1.889264
     72          6           0        5.135821    0.107669    0.974924
     73          1           0        5.370416    0.332262   -0.075396
     74          6           0        5.216736    1.416107    1.777610
     75          1           0        4.972378    1.245544    2.834065
     76          1           0        6.227578    1.836019    1.732290
     77          1           0        4.531014    2.186236    1.403524
     78          6           0        6.185405   -0.894209    1.479814
     79          1           0        6.003631   -1.162617    2.528801
     80          1           0        6.171960   -1.817833    0.889558
     81          1           0        7.193892   -0.471376    1.413702
     82          7           0        3.226831    1.738552   -1.491176
     83          1           0        3.305570    2.463667   -0.791399
     84          6           0        3.456697    2.109412   -2.885763
     85          1           0        2.490390    2.126211   -3.405616
     86          6           0        4.400496    1.105836   -3.581452
     87          6           0        4.091288    3.511027   -2.920357
     88          1           0        3.470079    4.199828   -2.335411
     89          1           0        5.071905    3.444825   -2.434490
     90          8           0        5.510184    0.851597   -3.128654
     91          6           0        4.250861    4.062921   -4.346776
     92          1           0        3.267310    4.111966   -4.834623
     93          1           0        4.892059    3.423168   -4.956143
     94          6           0        4.843484    5.456237   -4.382068
     95          8           0        5.772793    5.810206   -5.069953
     96          8           0        4.190620    6.309019   -3.546749
     97          7           0        3.945735    0.661577   -4.785050
     98          1           0        2.936839    0.615518   -4.913982
     99          6           0        4.725008   -0.297573   -5.557378
    100          1           0        4.847812   -1.223210   -4.989256
    101          6           0        6.146261    0.182527   -5.833908
    102          6           0        4.024162   -0.596931   -6.919725
    103          1           0        4.533720   -0.039987   -7.713147
    104          1           0        3.003245   -0.198261   -6.889023
    105          8           0        7.089986   -0.565415   -5.947514
    106          6           0        3.975930   -2.093567   -7.281987
    107          1           0        4.908292   -2.575724   -6.962147
    108          1           0        3.928537   -2.202121   -8.372882
    109          6           0        2.751176   -2.822403   -6.689273
    110          1           0        2.781347   -3.888260   -6.976067
    111          1           0        1.848307   -2.417473   -7.163043
    112          7           0        2.596566   -2.626002   -5.252764
    113          1           0        1.566287   -1.301552   -4.969507
    114          7           0        4.071665   -4.429485   -4.747209
    115          1           0        4.144407   -5.178465   -4.070524
    116          1           0        4.032051   -4.759709   -5.701064
    117          7           0        3.083137   -3.197650   -3.051261
    118          1           0        3.905740   -3.449338   -2.514777
    119          1           0        2.752648   -2.271813   -2.787875
    120          6           0        3.222646   -3.389237   -4.413326
    121          8           0        6.225775    1.514787   -6.063303
    122          1           0        4.631455    7.173779   -3.649233
    123          1           0        7.163599    1.701765   -6.257857
 ---------------------------------------------------------------------

 SCF Done:  E(RB3LYP) =  -2974.04338568     A.U. after    2 cycles

 Alpha  occ. eigenvalues --  -19.26598 -19.23374 -19.22738 -19.22240 -19.19665
 Alpha  occ. eigenvalues --  -19.19451 -19.18198 -19.18174 -19.17533 -19.16735
 Alpha  occ. eigenvalues --  -19.15676 -14.59181 -14.49078 -14.45371 -14.43325
 Alpha  occ. eigenvalues --  -14.42749 -14.42240 -14.40874 -14.39535 -14.38946
 Alpha  occ. eigenvalues --  -14.35582 -10.43431 -10.40787 -10.39163 -10.36727
 Alpha  occ. eigenvalues --  -10.35816 -10.35324 -10.35041 -10.35030 -10.34769
 Alpha  occ. eigenvalues --  -10.34496 -10.34219 -10.32658 -10.32159 -10.32110
 Alpha  occ. eigenvalues --  -10.31006 -10.30244 -10.30210 -10.30178 -10.29958
 Alpha  occ. eigenvalues --  -10.29800 -10.29165 -10.28881 -10.28717 -10.28367
 Alpha  occ. eigenvalues --  -10.27259 -10.26265 -10.25922 -10.25110 -10.24962
 Alpha  occ. eigenvalues --  -10.24209 -10.23824 -10.23790 -10.23650 -10.23612
 Alpha  occ. eigenvalues --  -10.23584 -10.23543 -10.22927 -10.22785 -10.22713
 Alpha  occ. eigenvalues --  -10.22158 -10.21591  -1.19002  -1.14099  -1.14096
 Alpha  occ. eigenvalues --   -1.13501  -1.13265  -1.11563  -1.10378  -1.09689
 Alpha  occ. eigenvalues --   -1.07645  -1.07360  -1.05850  -1.05057  -1.04424
 Alpha  occ. eigenvalues --   -1.03339  -1.02029  -0.99922  -0.98883  -0.98682
 Alpha  occ. eigenvalues --   -0.97484  -0.96370  -0.93110  -0.92616  -0.92219
 Alpha  occ. eigenvalues --   -0.89801  -0.88951  -0.86766  -0.86393  -0.85711
 Alpha  occ. eigenvalues --   -0.85469  -0.85133  -0.83430  -0.83223  -0.80689
 Alpha  occ. eigenvalues --   -0.79941  -0.78991  -0.78805  -0.77680  -0.76990
 Alpha  occ. eigenvalues --   -0.76721  -0.74571  -0.74185  -0.72801  -0.72797
 Alpha  occ. eigenvalues --   -0.71880  -0.71740  -0.71279  -0.70848  -0.70305
 Alpha  occ. eigenvalues --   -0.69319  -0.68911  -0.67764  -0.66963  -0.66566
 Alpha  occ. eigenvalues --   -0.66167  -0.66001  -0.65387  -0.64403  -0.64218
 Alpha  occ. eigenvalues --   -0.63681  -0.63541  -0.62954  -0.62681  -0.62083
 Alpha  occ. eigenvalues --   -0.61353  -0.61053  -0.60870  -0.60054  -0.59499
 Alpha  occ. eigenvalues --   -0.59049  -0.57881  -0.57767  -0.57328  -0.57227
 Alpha  occ. eigenvalues --   -0.57007  -0.56565  -0.56364  -0.56092  -0.55449
 Alpha  occ. eigenvalues --   -0.55188  -0.54798  -0.53706  -0.53551  -0.53222
 Alpha  occ. eigenvalues --   -0.53189  -0.52792  -0.52704  -0.52370  -0.52208
 Alpha  occ. eigenvalues --   -0.52156  -0.51888  -0.51640  -0.51489  -0.51439
 Alpha  occ. eigenvalues --   -0.51204  -0.51061  -0.50724  -0.50310  -0.50276
 Alpha  occ. eigenvalues --   -0.50043  -0.49739  -0.49238  -0.48909  -0.48855
 Alpha  occ. eigenvalues --   -0.48693  -0.48387  -0.48024  -0.47838  -0.47434
 Alpha  occ. eigenvalues --   -0.47409  -0.47318  -0.47194  -0.46985  -0.46725
 Alpha  occ. eigenvalues --   -0.46457  -0.46379  -0.46057  -0.45727  -0.45465
 Alpha  occ. eigenvalues --   -0.45320  -0.45151  -0.45050  -0.44779  -0.44499
 Alpha  occ. eigenvalues --   -0.44220  -0.43998  -0.43896  -0.43490  -0.43110
 Alpha  occ. eigenvalues --   -0.42875  -0.42652  -0.42386  -0.41984  -0.41696
 Alpha  occ. eigenvalues --   -0.41549  -0.41239  -0.41161  -0.40680  -0.40130
 Alpha  occ. eigenvalues --   -0.39845  -0.39717  -0.39533  -0.39160  -0.38616
 Alpha  occ. eigenvalues --   -0.38075  -0.37740  -0.37658  -0.37380  -0.37044
 Alpha  occ. eigenvalues --   -0.36528  -0.36453  -0.36356  -0.36116  -0.35501
 Alpha  occ. eigenvalues --   -0.35383  -0.34697  -0.33889  -0.33107  -0.32931
 Alpha  occ. eigenvalues --   -0.32663  -0.32334  -0.31830  -0.31361  -0.31128
 Alpha  occ. eigenvalues --   -0.30831  -0.30633  -0.29688  -0.29555  -0.28693
 Alpha  occ. eigenvalues --   -0.27834  -0.25498
 Alpha virt. eigenvalues --   -0.12759  -0.12269  -0.12108  -0.08665  -0.07846
 Alpha virt. eigenvalues --   -0.05641  -0.05225  -0.04556  -0.04263  -0.03424
 Alpha virt. eigenvalues --   -0.03164  -0.03062  -0.02851  -0.02226  -0.01842

 Mulliken charges:
               1
     1  N   -0.757237
     2  H    0.433459
     3  H    0.409984
     4  H    0.404109
     5  C   -0.112560
     6  H    0.228171
     7  C    0.656652
     8  C   -0.393915
     9  H    0.189281
    10  H    0.209718
    11  O   -0.541017
    12  C    0.139013
    13  C   -0.234921
    14  H    0.141565
    15  C   -0.183977
    16  H    0.164761
    17  C   -0.118637
    18  H    0.165468
    19  C   -0.125074
    20  H    0.165050
    21  C   -0.121278
    22  H    0.167940
    23  N   -0.609196
    24  H    0.377534
    25  C   -0.062540
    26  H    0.201583
    27  C    0.634556
    28  C   -0.454541
    29  H    0.182287
    30  H    0.172432
    31  H    0.185353
    32  O   -0.557331
    33  N   -0.620337
    34  H    0.369489
    35  C   -0.043838
    36  H    0.185984
    37  C    0.626030
    38  C   -0.452081
    39  H    0.170417
    40  H    0.164557
    41  H    0.179336
    42  O   -0.548938
    43  N   -0.623075
    44  H    0.359680
    45  C   -0.047308
    46  H    0.178169
    47  C    0.614970
    48  C   -0.347606
    49  H    0.177538
    50  H    0.151737
    51  O   -0.546495
    52  C    0.156686
    53  C   -0.195964
    54  H    0.125975
    55  C   -0.226349
    56  H    0.132150
    57  C   -0.174115
    58  H    0.131631
    59  C   -0.190645
    60  H    0.151680
    61  O   -0.725308
    62  C    0.381868
    63  N   -0.609939
    64  H    0.361325
    65  C   -0.065034
    66  H    0.175122
    67  C    0.661787
    68  C   -0.246291
    69  H    0.145943
    70  H    0.139173
    71  O   -0.562226
    72  C   -0.100162
    73  H    0.165969
    74  C   -0.445951
    75  H    0.146735
    76  H    0.157613
    77  H    0.122556
    78  C   -0.442152
    79  H    0.138838
    80  H    0.142553
    81  H    0.154415
    82  N   -0.626339
    83  H    0.343025
    84  C   -0.007554
    85  H    0.160910
    86  C    0.641119
    87  C   -0.323769
    88  H    0.162934
    89  H    0.183406
    90  O   -0.531890
    91  C   -0.365183
    92  H    0.170759
    93  H    0.220865
    94  C    0.568659
    95  O   -0.451424
    96  O   -0.567418
    97  N   -0.651887
    98  H    0.371213
    99  C    0.023030
   100  H    0.187997
   101  C    0.591495
   102  C   -0.319207
   103  H    0.168176
   104  H    0.161946
   105  O   -0.468885
   106  C   -0.269268
   107  H    0.162953
   108  H    0.145124
   109  C   -0.167034
   110  H    0.117603
   111  H    0.154975
   112  N   -0.551393
   113  H    0.470308
   114  N   -0.756746
   115  H    0.338368
   116  H    0.347017
   117  N   -0.793034
   118  H    0.328131
   119  H    0.398141
   120  C    0.652727
   121  O   -0.562126
   122  H    0.412513
   123  H    0.416955
 Sum of Mulliken charges =   1.00000

 Dipole moment (field-independent basis, Debye):
    X=            -32.5238    Y=            -15.5627    Z=             33.3688  Tot=             49.1271
 Quadrupole moment (field-independent basis, Debye-Ang):
   XX=            -65.1554   YY=           -276.2531   ZZ=            -21.5433
   XY=            101.6082   XZ=           -299.0205   YZ=           -111.5117

 Normal termination of Gaussian 16 at Sun Aug  7 18:52:00 2022.
