 Gaussian 16, Revision C.01,
 Gaussian 16:  ES64L-G16RevC.01  3-Jul-2019

 -------------------------------------------------------------------
 # B3LYP/6-31G* guess=read geom=check nosymm integral(ultrafinegrid)
 -------------------------------------------------------------------

 ------------------------------------------------------
 Candidate Structure: Conf:234 Charge calc in gas phase
 ------------------------------------------------------
 Structure from the checkpoint file:  "conf-234.chk"
 Charge =  1 Multiplicity = 1

                          Input orientation:
 ---------------------------------------------------------------------
 Center     Atomic      Atomic             Coordinates (Angstroms)
 Number     Number       Type             X           Y           Z
 ---------------------------------------------------------------------
      1          7           0       -5.905077    3.055769   -0.186235
      2          1           0       -5.746239    2.866047   -1.199977
      3          1           0       -5.690528    4.046606   -0.007922
      4          1           0       -6.893361    2.839151    0.066289
      5          6           0       -5.081705    2.169785    0.709888
      6          1           0       -4.262920    1.765261    0.116619
      7          6           0       -6.061635    1.066909    1.165612
      8          6           0       -4.523471    2.977553    1.912450
      9          1           0       -3.797110    2.329651    2.414869
     10          1           0       -5.337067    3.160676    2.623746
     11          8           0       -7.274825    1.307488    1.122228
     12          6           0       -3.901288    4.291427    1.477903
     13          6           0       -2.714855    4.315447    0.727149
     14          1           0       -2.187931    3.392906    0.499210
     15          6           0       -4.549704    5.506006    1.751019
     16          1           0       -5.458365    5.510350    2.350328
     17          6           0       -2.193612    5.517957    0.251123
     18          1           0       -1.293002    5.497033   -0.354987
     19          6           0       -4.018386    6.715585    1.290146
     20          1           0       -4.524377    7.648122    1.523282
     21          6           0       -2.845072    6.722075    0.536045
     22          1           0       -2.438753    7.660628    0.170374
     23          7           0       -5.511157   -0.063612    1.615187
     24          1           0       -4.493969   -0.164329    1.625322
     25          6           0       -6.312706   -1.120006    2.256676
     26          1           0       -7.026845   -0.622312    2.923991
     27          6           0       -5.313704   -1.879919    3.151788
     28          6           0       -7.092435   -1.947592    1.229702
     29          1           0       -7.737244   -2.680233    1.728354
     30          1           0       -6.421680   -2.468395    0.537412
     31          1           0       -7.741294   -1.286137    0.650869
     32          8           0       -4.497049   -1.232937    3.813808
     33          7           0       -5.327040   -3.231154    3.125932
     34          1           0       -5.939777   -3.709328    2.478796
     35          6           0       -4.249607   -4.031233    3.738482
     36          1           0       -3.944495   -3.487185    4.637541
     37          6           0       -3.043254   -4.087165    2.752933
     38          6           0       -4.746875   -5.425695    4.095604
     39          1           0       -3.939391   -6.001967    4.552875
     40          1           0       -5.063838   -5.973564    3.202213
     41          1           0       -5.581898   -5.363779    4.799601
     42          8           0       -2.627160   -5.138406    2.286582
     43          7           0       -2.549393   -2.854858    2.438760
     44          1           0       -2.945039   -2.055291    2.926025
     45          6           0       -1.622808   -2.588062    1.343706
     46          1           0       -0.649011   -3.036515    1.577367
     47          6           0       -1.471391   -1.060939    1.268493
     48          6           0       -2.119859   -3.168560   -0.016427
     49          1           0       -2.079045   -4.257954    0.082689
     50          1           0       -3.177288   -2.896593   -0.115109
     51          8           0       -2.460620   -0.301945    1.224885
     52          6           0       -1.364680   -2.665813   -1.229961
     53          6           0       -2.059515   -2.131497   -2.324587
     54          1           0       -3.148841   -2.155405   -2.321672
     55          6           0        0.038013   -2.673269   -1.312995
     56          1           0        0.623409   -3.147993   -0.525107
     57          6           0       -1.396775   -1.570484   -3.413275
     58          1           0       -1.956874   -1.170448   -4.256186
     59          6           0        0.714147   -2.074241   -2.372886
     60          1           0        1.801560   -2.055848   -2.379468
     61          8           0        0.622092   -0.749822   -4.386468
     62          6           0        0.015594   -1.444088   -3.435035
     63          7           0       -0.206450   -0.600002    1.268958
     64          1           0        0.539749   -1.277012    1.176317
     65          6           0        0.172350    0.816114    1.169715
     66          1           0       -0.605897    1.375198    1.696375
     67          6           0        0.162842    1.248867   -0.320501
     68          6           0        1.540658    1.059049    1.811795
     69          1           0        2.292844    0.500258    1.240023
     70          1           0        1.788796    2.116795    1.659460
     71          8           0        1.187463    1.406350   -0.969251
     72          6           0        1.648485    0.715851    3.311024
     73          1           0        1.384319   -0.343861    3.444541
     74          6           0        3.101100    0.896189    3.777713
     75          1           0        3.419040    1.941680    3.677210
     76          1           0        3.213175    0.614543    4.830444
     77          1           0        3.791720    0.280162    3.189807
     78          6           0        0.692234    1.549745    4.177435
     79          1           0        0.884332    2.623273    4.051866
     80          1           0       -0.360589    1.364357    3.934714
     81          1           0        0.825625    1.311989    5.238480
     82          7           0       -1.098042    1.444329   -0.808899
     83          1           0       -1.841798    1.030273   -0.251201
     84          6           0       -1.378351    1.634369   -2.231367
     85          1           0       -1.208091    0.694554   -2.761766
     86          6           0       -0.490189    2.735165   -2.834438
     87          6           0       -2.856908    2.030717   -2.366520
     88          1           0       -3.462235    1.254858   -1.878619
     89          1           0       -3.006088    2.973597   -1.830371
     90          8           0       -0.485583    3.879899   -2.390532
     91          6           0       -3.332551    2.181313   -3.810643
     92          1           0       -3.182301    1.257191   -4.383730
     93          1           0       -2.764674    2.951275   -4.347965
     94          6           0       -4.795422    2.536682   -3.900999
     95          8           0       -5.564711    2.709665   -2.962051
     96          8           0       -5.210937    2.651157   -5.166824
     97          7           0        0.184702    2.340087   -3.946355
     98          1           0        0.225017    1.342535   -4.179329
     99          6           0        1.081028    3.244760   -4.640406
    100          1           0        1.325412    4.050504   -3.935305
    101          6           0        0.442501    3.949347   -5.843378
    102          6           0        2.364444    2.519353   -5.082177
    103          1           0        2.946519    3.203215   -5.706061
    104          1           0        2.068440    1.681994   -5.727847
    105          8           0        1.075730    4.537217   -6.690726
    106          6           0        3.201700    2.001802   -3.899563
    107          1           0        2.553847    1.703369   -3.067034
    108          1           0        3.849483    2.798634   -3.515523
    109          6           0        4.084977    0.805884   -4.281284
    110          1           0        4.732491    0.534721   -3.437995
    111          1           0        4.730812    1.066363   -5.130678
    112          7           0        3.236994   -0.329829   -4.651006
    113          1           0        2.241581   -0.381130   -4.292109
    114          7           0        4.694873   -1.410986   -6.139926
    115          1           0        4.786595   -1.812027   -7.061814
    116          1           0        5.485077   -0.892627   -5.787779
    117          7           0        2.417874   -1.907518   -6.098703
    118          1           0        2.574001   -2.821213   -6.500405
    119          1           0        1.511264   -1.697474   -5.636355
    120          6           0        3.461209   -1.205713   -5.620620
    121          8           0       -0.910906    3.886040   -5.862186
    122          1           0       -6.160617    2.879324   -5.150798
    123          1           0       -1.183408    4.400325   -6.646534
 ---------------------------------------------------------------------

 SCF Done:  E(RB3LYP) =  -2974.06882927     A.U. after    1 cycles

 Alpha  occ. eigenvalues --  -19.30146 -19.26722 -19.25792 -19.23392 -19.22397
 Alpha  occ. eigenvalues --  -19.20699 -19.20578 -19.19549 -19.18630 -19.17997
 Alpha  occ. eigenvalues --  -19.15307 -14.54436 -14.47376 -14.46658 -14.46172
 Alpha  occ. eigenvalues --  -14.45644 -14.44720 -14.44552 -14.43405 -14.42614
 Alpha  occ. eigenvalues --  -14.42123 -10.43482 -10.42144 -10.40266 -10.38873
 Alpha  occ. eigenvalues --  -10.38702 -10.38219 -10.36805 -10.36332 -10.35690
 Alpha  occ. eigenvalues --  -10.35232 -10.33403 -10.31735 -10.31533 -10.31502
 Alpha  occ. eigenvalues --  -10.31171 -10.30800 -10.30614 -10.30478 -10.29404
 Alpha  occ. eigenvalues --  -10.29283 -10.28639 -10.28399 -10.28126 -10.27605
 Alpha  occ. eigenvalues --  -10.27522 -10.27392 -10.27213 -10.26996 -10.26182
 Alpha  occ. eigenvalues --  -10.26161 -10.25881 -10.25793 -10.25729 -10.24966
 Alpha  occ. eigenvalues --  -10.24421 -10.24293 -10.24220 -10.23838 -10.23466
 Alpha  occ. eigenvalues --  -10.23009 -10.22832  -1.21624  -1.17393  -1.15567
 Alpha  occ. eigenvalues --   -1.13540  -1.12991  -1.12443  -1.11318  -1.10844
 Alpha  occ. eigenvalues --   -1.10326  -1.09647  -1.09324  -1.08224  -1.03154
 Alpha  occ. eigenvalues --   -1.02660  -1.02276  -1.01627  -1.00143  -1.00088
 Alpha  occ. eigenvalues --   -0.99336  -0.99092  -0.98644  -0.94627  -0.90084
 Alpha  occ. eigenvalues --   -0.90003  -0.89685  -0.88334  -0.87379  -0.87309
 Alpha  occ. eigenvalues --   -0.85254  -0.84026  -0.83511  -0.82963  -0.82624
 Alpha  occ. eigenvalues --   -0.82349  -0.80869  -0.79347  -0.77975  -0.76912
 Alpha  occ. eigenvalues --   -0.76336  -0.75065  -0.74725  -0.74352  -0.73000
 Alpha  occ. eigenvalues --   -0.72480  -0.72302  -0.70804  -0.70016  -0.69663
 Alpha  occ. eigenvalues --   -0.69416  -0.69220  -0.68850  -0.68298  -0.67931
 Alpha  occ. eigenvalues --   -0.67737  -0.67418  -0.67197  -0.66205  -0.66040
 Alpha  occ. eigenvalues --   -0.65577  -0.64798  -0.64563  -0.64318  -0.63814
 Alpha  occ. eigenvalues --   -0.63276  -0.62190  -0.61403  -0.61128  -0.60206
 Alpha  occ. eigenvalues --   -0.59873  -0.59546  -0.59212  -0.59023  -0.58572
 Alpha  occ. eigenvalues --   -0.58289  -0.58095  -0.57860  -0.57470  -0.57086
 Alpha  occ. eigenvalues --   -0.56303  -0.56030  -0.55765  -0.55668  -0.55581
 Alpha  occ. eigenvalues --   -0.54829  -0.54684  -0.54631  -0.54319  -0.53996
 Alpha  occ. eigenvalues --   -0.53837  -0.53307  -0.53183  -0.52913  -0.52434
 Alpha  occ. eigenvalues --   -0.51855  -0.51684  -0.51157  -0.50893  -0.50786
 Alpha  occ. eigenvalues --   -0.50753  -0.50478  -0.50370  -0.50260  -0.49855
 Alpha  occ. eigenvalues --   -0.49777  -0.49628  -0.49210  -0.49115  -0.49047
 Alpha  occ. eigenvalues --   -0.48865  -0.48428  -0.48189  -0.47999  -0.47925
 Alpha  occ. eigenvalues --   -0.47522  -0.47169  -0.46976  -0.46778  -0.46581
 Alpha  occ. eigenvalues --   -0.46447  -0.46281  -0.45776  -0.45619  -0.45445
 Alpha  occ. eigenvalues --   -0.45315  -0.45114  -0.44819  -0.44624  -0.44470
 Alpha  occ. eigenvalues --   -0.44431  -0.44173  -0.44151  -0.43727  -0.43508
 Alpha  occ. eigenvalues --   -0.42935  -0.42875  -0.42750  -0.42736  -0.42539
 Alpha  occ. eigenvalues --   -0.42402  -0.42303  -0.41795  -0.41375  -0.40258
 Alpha  occ. eigenvalues --   -0.39528  -0.39507  -0.39394  -0.39293  -0.39170
 Alpha  occ. eigenvalues --   -0.38451  -0.37870  -0.37855  -0.37035  -0.36694
 Alpha  occ. eigenvalues --   -0.36443  -0.36075  -0.35500  -0.35455  -0.34847
 Alpha  occ. eigenvalues --   -0.34463  -0.33790  -0.33759  -0.33428  -0.32362
 Alpha  occ. eigenvalues --   -0.32265  -0.31712  -0.31398  -0.31153  -0.30038
 Alpha  occ. eigenvalues --   -0.29737  -0.24707
 Alpha virt. eigenvalues --   -0.10433  -0.09983  -0.09122  -0.08466  -0.08358
 Alpha virt. eigenvalues --   -0.08029  -0.06942  -0.06216  -0.05809  -0.05069
 Alpha virt. eigenvalues --   -0.04600  -0.04520  -0.03589  -0.03432  -0.03082

 Mulliken charges:
               1
     1  N   -0.789424
     2  H    0.451782
     3  H    0.395872
     4  H    0.411284
     5  C   -0.108706
     6  H    0.206995
     7  C    0.638702
     8  C   -0.376458
     9  H    0.208454
    10  H    0.184415
    11  O   -0.544249
    12  C    0.114905
    13  C   -0.197945
    14  H    0.159706
    15  C   -0.214982
    16  H    0.144486
    17  C   -0.137199
    18  H    0.191154
    19  C   -0.120729
    20  H    0.155632
    21  C   -0.129996
    22  H    0.157233
    23  N   -0.632754
    24  H    0.407410
    25  C   -0.012974
    26  H    0.207766
    27  C    0.579714
    28  C   -0.488828
    29  H    0.168605
    30  H    0.162559
    31  H    0.198122
    32  O   -0.534027
    33  N   -0.590118
    34  H    0.347579
    35  C   -0.080073
    36  H    0.199843
    37  C    0.624390
    38  C   -0.456471
    39  H    0.187142
    40  H    0.165121
    41  H    0.162142
    42  O   -0.507433
    43  N   -0.670626
    44  H    0.384291
    45  C    0.014913
    46  H    0.160387
    47  C    0.614467
    48  C   -0.362766
    49  H    0.204432
    50  H    0.132348
    51  O   -0.592768
    52  C    0.152990
    53  C   -0.192435
    54  H    0.105485
    55  C   -0.210724
    56  H    0.109195
    57  C   -0.218146
    58  H    0.110841
    59  C   -0.190986
    60  H    0.106752
    61  O   -0.756266
    62  C    0.423299
    63  N   -0.571625
    64  H    0.348357
    65  C   -0.094981
    66  H    0.178575
    67  C    0.657356
    68  C   -0.279029
    69  H    0.153570
    70  H    0.162788
    71  O   -0.517326
    72  C   -0.074940
    73  H    0.122178
    74  C   -0.444008
    75  H    0.149139
    76  H    0.153966
    77  H    0.143404
    78  C   -0.453098
    79  H    0.147478
    80  H    0.141072
    81  H    0.157799
    82  N   -0.658402
    83  H    0.366406
    84  C   -0.027447
    85  H    0.197340
    86  C    0.640144
    87  C   -0.322989
    88  H    0.141710
    89  H    0.172211
    90  O   -0.543997
    91  C   -0.389210
    92  H    0.205217
    93  H    0.239520
    94  C    0.611433
    95  O   -0.515531
    96  O   -0.538653
    97  N   -0.638486
    98  H    0.382087
    99  C   -0.054863
   100  H    0.212344
   101  C    0.601587
   102  C   -0.296852
   103  H    0.182894
   104  H    0.153923
   105  O   -0.456417
   106  C   -0.322317
   107  H    0.215537
   108  H    0.160932
   109  C   -0.151436
   110  H    0.173831
   111  H    0.148885
   112  N   -0.620830
   113  H    0.420789
   114  N   -0.758657
   115  H    0.367532
   116  H    0.371025
   117  N   -0.783583
   118  H    0.349112
   119  H    0.411703
   120  C    0.763966
   121  O   -0.566618
   122  H    0.426341
   123  H    0.415813
 Sum of Mulliken charges =   1.00000

 Dipole moment (field-independent basis, Debye):
    X=             -8.9981    Y=              3.6600    Z=             -9.2010  Tot=             13.3798
 Quadrupole moment (field-independent basis, Debye-Ang):
   XX=           -198.5910   YY=           -320.5835   ZZ=           -267.4522
   XY=            -46.6381   XZ=            -41.2965   YZ=              8.0305

 Normal termination of Gaussian 16 at Sun Aug  7 18:51:50 2022.
