 Gaussian 16, Revision C.01,
 Gaussian 16:  ES64L-G16RevC.01  3-Jul-2019

 -------------------------------------------------------------------
 # B3LYP/6-31G* guess=read geom=check nosymm integral(ultrafinegrid)
 -------------------------------------------------------------------

 ------------------------------------------------------
 Candidate Structure: Conf:472 Charge calc in gas phase
 ------------------------------------------------------
 Structure from the checkpoint file:  "conf-472.chk"
 Charge =  1 Multiplicity = 1

                          Input orientation:
 ---------------------------------------------------------------------
 Center     Atomic      Atomic             Coordinates (Angstroms)
 Number     Number       Type             X           Y           Z
 ---------------------------------------------------------------------
      1          7           0      -12.173177    0.781890    6.222146
      2          1           0      -12.907064    1.088203    5.577431
      3          1           0      -12.551158    0.784421    7.173682
      4          1           0      -11.839774   -0.194928    5.933806
      5          6           0      -10.884503    1.575281    6.090397
      6          1           0      -11.096549    2.480099    5.517457
      7          6           0       -9.985140    0.591119    5.285687
      8          6           0      -10.345261    1.934071    7.494023
      9          1           0      -10.112543    1.005641    8.029771
     10          1           0      -11.156278    2.434921    8.041832
     11          8           0      -10.378689   -0.588241    5.206890
     12          6           0       -9.127162    2.835543    7.452527
     13          6           0       -9.250254    4.171222    7.041992
     14          1           0      -10.225421    4.572009    6.769768
     15          6           0       -7.868906    2.352470    7.830851
     16          1           0       -7.762411    1.322019    8.161864
     17          6           0       -8.132807    5.004236    7.001655
     18          1           0       -8.240858    6.037170    6.684731
     19          6           0       -6.752030    3.188259    7.796918
     20          1           0       -5.782795    2.803612    8.099964
     21          6           0       -6.881395    4.512891    7.379107
     22          1           0       -6.012082    5.162757    7.351195
     23          7           0       -8.881383    1.075816    4.742725
     24          1           0       -8.561921    2.038542    4.891594
     25          6           0       -7.910899    0.276750    3.989205
     26          1           0       -7.666690   -0.619578    4.570698
     27          6           0       -6.666396    1.189958    3.878918
     28          6           0       -8.449452   -0.135864    2.609627
     29          1           0       -7.706385   -0.732359    2.071992
     30          1           0       -8.681763    0.748106    2.007281
     31          1           0       -9.352076   -0.741321    2.724441
     32          8           0       -6.745253    2.378221    4.206208
     33          7           0       -5.559317    0.602452    3.406128
     34          1           0       -5.542964   -0.363675    3.081233
     35          6           0       -4.323131    1.318407    3.115461
     36          1           0       -4.574774    2.261337    2.615505
     37          6           0       -3.546595    0.403482    2.142390
     38          6           0       -3.517296    1.623929    4.389576
     39          1           0       -2.603972    2.177972    4.150803
     40          1           0       -3.236001    0.695909    4.897815
     41          1           0       -4.123251    2.232997    5.065565
     42          8           0       -3.908990   -0.762222    1.957364
     43          7           0       -2.471782    0.960037    1.558695
     44          1           0       -2.214703    1.931025    1.712601
     45          6           0       -1.592826    0.257067    0.630977
     46          1           0       -1.473488   -0.771607    0.983758
     47          6           0       -0.252710    1.013194    0.687883
     48          6           0       -2.207049    0.239488   -0.801999
     49          1           0       -3.155839   -0.303773   -0.717527
     50          1           0       -2.445570    1.274952   -1.069500
     51          8           0       -0.244583    2.231456    0.877998
     52          6           0       -1.316172   -0.370941   -1.860850
     53          6           0       -0.757320    0.426147   -2.869506
     54          1           0       -1.010564    1.482979   -2.917495
     55          6           0       -0.988583   -1.734652   -1.852284
     56          1           0       -1.438070   -2.393630   -1.110872
     57          6           0        0.129671   -0.100028   -3.804486
     58          1           0        0.561711    0.528301   -4.577574
     59          6           0       -0.091514   -2.273977   -2.773745
     60          1           0        0.167247   -3.327448   -2.730719
     61          8           0        1.444642   -1.889199   -4.619547
     62          6           0        0.505412   -1.448402   -3.737918
     63          7           0        0.855398    0.252849    0.543002
     64          1           0        0.755034   -0.714027    0.249111
     65          6           0        2.198521    0.798259    0.332768
     66          1           0        2.086104    1.865187    0.124971
     67          6           0        2.751311    0.050035   -0.891207
     68          6           0        3.130026    0.573773    1.543278
     69          1           0        3.208661   -0.509593    1.701648
     70          1           0        4.135852    0.919918    1.263794
     71          8           0        2.565214   -1.168890   -0.984504
     72          6           0        2.702963    1.260968    2.854287
     73          1           0        1.680661    0.930098    3.087557
     74          6           0        3.620299    0.801038    3.998148
     75          1           0        4.659201    1.104553    3.816299
     76          1           0        3.309253    1.242721    4.951847
     77          1           0        3.607329   -0.289577    4.112227
     78          6           0        2.692904    2.793155    2.741414
     79          1           0        3.678678    3.171710    2.439686
     80          1           0        1.947013    3.142550    2.020923
     81          1           0        2.450781    3.247499    3.709407
     82          7           0        3.395089    0.778184   -1.820121
     83          1           0        3.553141    1.762645   -1.652546
     84          6           0        3.794809    0.229798   -3.114784
     85          1           0        3.030278   -0.493668   -3.404337
     86          6           0        5.170731   -0.456801   -3.055034
     87          6           0        3.823288    1.374855   -4.143395
     88          1           0        2.873887    1.917743   -4.085309
     89          1           0        4.618455    2.079684   -3.870257
     90          8           0        6.142515    0.089124   -2.545071
     91          6           0        4.031851    0.889582   -5.580020
     92          1           0        3.324461    0.083836   -5.821833
     93          1           0        5.031861    0.469969   -5.729652
     94          6           0        3.815007    2.001947   -6.582162
     95          8           0        3.349172    3.095494   -6.344132
     96          8           0        4.196052    1.627459   -7.827580
     97          7           0        5.216179   -1.637831   -3.731120
     98          1           0        4.352581   -2.174120   -3.838186
     99          6           0        6.449327   -2.388094   -3.914184
    100          1           0        6.731579   -2.925594   -2.999770
    101          6           0        7.639632   -1.477246   -4.222809
    102          6           0        6.326334   -3.388878   -5.092339
    103          1           0        7.345860   -3.730391   -5.308785
    104          1           0        5.986970   -2.836256   -5.977287
    105          8           0        8.750124   -1.645039   -3.778830
    106          6           0        5.467442   -4.654887   -4.895345
    107          1           0        5.744380   -5.140835   -3.950776
    108          1           0        5.757807   -5.351651   -5.693252
    109          6           0        3.929318   -4.507915   -4.976312
    110          1           0        3.495954   -5.503571   -5.181204
    111          1           0        3.674077   -3.897482   -5.850474
    112          7           0        3.307217   -3.881580   -3.811174
    113          1           0        1.937995   -2.678044   -4.269288
    114          7           0        3.589632   -5.890720   -2.549744
    115          1           0        3.095625   -6.419678   -1.842029
    116          1           0        3.755760   -6.422486   -3.392792
    117          7           0        2.610245   -4.018708   -1.600231
    118          1           0        2.922099   -4.399956   -0.715242
    119          1           0        2.580301   -2.999369   -1.588170
    120          6           0        3.186308   -4.577719   -2.716536
    121          8           0        7.354713   -0.550289   -5.171583
    122          1           0        4.005414    2.387431   -8.409434
    123          1           0        8.180786   -0.050132   -5.310799
 ---------------------------------------------------------------------

 SCF Done:  E(RB3LYP) =  -2974.04016107     A.U. after    2 cycles

 Alpha  occ. eigenvalues --  -19.26881 -19.22858 -19.22730 -19.21539 -19.19911
 Alpha  occ. eigenvalues --  -19.19505 -19.18175 -19.18096 -19.17318 -19.16700
 Alpha  occ. eigenvalues --  -19.15142 -14.60008 -14.49151 -14.44887 -14.43310
 Alpha  occ. eigenvalues --  -14.42340 -14.42150 -14.41877 -14.39678 -14.39109
 Alpha  occ. eigenvalues --  -14.36263 -10.43525 -10.40994 -10.38600 -10.36587
 Alpha  occ. eigenvalues --  -10.35491 -10.35435 -10.35190 -10.35158 -10.35005
 Alpha  occ. eigenvalues --  -10.34589 -10.34363 -10.32082 -10.31838 -10.30962
 Alpha  occ. eigenvalues --  -10.30081 -10.29496 -10.29278 -10.29126 -10.28751
 Alpha  occ. eigenvalues --  -10.28698 -10.28647 -10.28484 -10.28231 -10.27674
 Alpha  occ. eigenvalues --  -10.27663 -10.26583 -10.26046 -10.24976 -10.23891
 Alpha  occ. eigenvalues --  -10.23813 -10.23765 -10.23741 -10.23733 -10.23599
 Alpha  occ. eigenvalues --  -10.23595 -10.23555 -10.23399 -10.22839 -10.22606
 Alpha  occ. eigenvalues --  -10.21674 -10.21219  -1.19290  -1.13933  -1.13766
 Alpha  occ. eigenvalues --   -1.13514  -1.13355  -1.11392  -1.10236  -1.09494
 Alpha  occ. eigenvalues --   -1.07998  -1.06922  -1.05773  -1.04752  -1.04446
 Alpha  occ. eigenvalues --   -1.04246  -1.01589  -0.99830  -0.98612  -0.98482
 Alpha  occ. eigenvalues --   -0.96680  -0.96166  -0.93514  -0.92812  -0.92756
 Alpha  occ. eigenvalues --   -0.89724  -0.88729  -0.86427  -0.85727  -0.84999
 Alpha  occ. eigenvalues --   -0.84807  -0.84438  -0.83647  -0.83050  -0.80666
 Alpha  occ. eigenvalues --   -0.79911  -0.78962  -0.78887  -0.77803  -0.77026
 Alpha  occ. eigenvalues --   -0.76569  -0.74349  -0.73972  -0.73106  -0.72387
 Alpha  occ. eigenvalues --   -0.72219  -0.71839  -0.70862  -0.70579  -0.69765
 Alpha  occ. eigenvalues --   -0.68883  -0.68400  -0.67560  -0.66918  -0.66548
 Alpha  occ. eigenvalues --   -0.66085  -0.66052  -0.65335  -0.64809  -0.64177
 Alpha  occ. eigenvalues --   -0.63411  -0.63272  -0.62936  -0.62335  -0.61700
 Alpha  occ. eigenvalues --   -0.61237  -0.61155  -0.60840  -0.60040  -0.59699
 Alpha  occ. eigenvalues --   -0.58784  -0.58607  -0.57909  -0.57656  -0.56967
 Alpha  occ. eigenvalues --   -0.56777  -0.56339  -0.55812  -0.55411  -0.55097
 Alpha  occ. eigenvalues --   -0.54683  -0.54581  -0.54075  -0.53557  -0.53100
 Alpha  occ. eigenvalues --   -0.52794  -0.52478  -0.52222  -0.52009  -0.51894
 Alpha  occ. eigenvalues --   -0.51695  -0.51618  -0.51570  -0.51401  -0.51275
 Alpha  occ. eigenvalues --   -0.50993  -0.50839  -0.50731  -0.50583  -0.50186
 Alpha  occ. eigenvalues --   -0.50097  -0.49790  -0.49172  -0.49010  -0.48707
 Alpha  occ. eigenvalues --   -0.48622  -0.48423  -0.48010  -0.47977  -0.47601
 Alpha  occ. eigenvalues --   -0.47113  -0.47092  -0.46602  -0.46429  -0.46024
 Alpha  occ. eigenvalues --   -0.45891  -0.45832  -0.45668  -0.45572  -0.45185
 Alpha  occ. eigenvalues --   -0.45016  -0.44825  -0.44590  -0.44483  -0.44167
 Alpha  occ. eigenvalues --   -0.43957  -0.43735  -0.43660  -0.43238  -0.42977
 Alpha  occ. eigenvalues --   -0.42864  -0.42471  -0.42427  -0.42257  -0.41786
 Alpha  occ. eigenvalues --   -0.41503  -0.41128  -0.40949  -0.40482  -0.40307
 Alpha  occ. eigenvalues --   -0.39859  -0.39649  -0.39193  -0.39072  -0.38654
 Alpha  occ. eigenvalues --   -0.38128  -0.37614  -0.37342  -0.37052  -0.36931
 Alpha  occ. eigenvalues --   -0.36048  -0.35766  -0.35155  -0.35062  -0.34819
 Alpha  occ. eigenvalues --   -0.34668  -0.34630  -0.33780  -0.33439  -0.33198
 Alpha  occ. eigenvalues --   -0.32950  -0.32473  -0.32143  -0.31545  -0.31054
 Alpha  occ. eigenvalues --   -0.30800  -0.30428  -0.29508  -0.29387  -0.28482
 Alpha  occ. eigenvalues --   -0.28157  -0.25745
 Alpha virt. eigenvalues --   -0.12568  -0.11270  -0.11004  -0.10145  -0.07254
 Alpha virt. eigenvalues --   -0.06154  -0.05543  -0.05040  -0.04311  -0.03332
 Alpha virt. eigenvalues --   -0.03046  -0.02817  -0.02319  -0.02282  -0.01949

 Mulliken charges:
               1
     1  N   -0.761227
     2  H    0.416038
     3  H    0.412424
     4  H    0.435511
     5  C   -0.106634
     6  H    0.218096
     7  C    0.654143
     8  C   -0.382692
     9  H    0.186122
    10  H    0.182088
    11  O   -0.550131
    12  C    0.145276
    13  C   -0.188904
    14  H    0.129101
    15  C   -0.178684
    16  H    0.140663
    17  C   -0.118196
    18  H    0.159885
    19  C   -0.115738
    20  H    0.156999
    21  C   -0.112378
    22  H    0.161289
    23  N   -0.607670
    24  H    0.389750
    25  C   -0.050894
    26  H    0.193433
    27  C    0.627601
    28  C   -0.459427
    29  H    0.182437
    30  H    0.171201
    31  H    0.186768
    32  O   -0.543920
    33  N   -0.622144
    34  H    0.365131
    35  C   -0.043183
    36  H    0.184107
    37  C    0.625511
    38  C   -0.450873
    39  H    0.167047
    40  H    0.164098
    41  H    0.179244
    42  O   -0.548561
    43  N   -0.621175
    44  H    0.357380
    45  C   -0.041935
    46  H    0.173501
    47  C    0.622452
    48  C   -0.351373
    49  H    0.174610
    50  H    0.154626
    51  O   -0.546080
    52  C    0.161013
    53  C   -0.196733
    54  H    0.132334
    55  C   -0.218528
    56  H    0.127363
    57  C   -0.171723
    58  H    0.143929
    59  C   -0.176933
    60  H    0.145181
    61  O   -0.701217
    62  C    0.359411
    63  N   -0.600479
    64  H    0.357011
    65  C   -0.071550
    66  H    0.176906
    67  C    0.647074
    68  C   -0.253409
    69  H    0.144485
    70  H    0.150386
    71  O   -0.564536
    72  C   -0.067492
    73  H    0.126111
    74  C   -0.443930
    75  H    0.148806
    76  H    0.143557
    77  H    0.139673
    78  C   -0.466364
    79  H    0.138683
    80  H    0.173533
    81  H    0.141578
    82  N   -0.596904
    83  H    0.345517
    84  C   -0.072414
    85  H    0.193166
    86  C    0.632867
    87  C   -0.297898
    88  H    0.168787
    89  H    0.169847
    90  O   -0.529349
    91  C   -0.392175
    92  H    0.197071
    93  H    0.214360
    94  C    0.581688
    95  O   -0.466345
    96  O   -0.567478
    97  N   -0.650349
    98  H    0.389755
    99  C    0.013738
   100  H    0.171217
   101  C    0.595621
   102  C   -0.305468
   103  H    0.167670
   104  H    0.164859
   105  O   -0.465379
   106  C   -0.276150
   107  H    0.153534
   108  H    0.147589
   109  C   -0.173937
   110  H    0.124728
   111  H    0.159971
   112  N   -0.571926
   113  H    0.448433
   114  N   -0.754677
   115  H    0.339713
   116  H    0.348754
   117  N   -0.793528
   118  H    0.327623
   119  H    0.403675
   120  C    0.658164
   121  O   -0.568448
   122  H    0.410441
   123  H    0.414785
 Sum of Mulliken charges =   1.00000

 Dipole moment (field-independent basis, Debye):
    X=            -42.5751    Y=             -0.0020    Z=             23.1465  Tot=             48.4602
 Quadrupole moment (field-independent basis, Debye-Ang):
   XX=            128.3160   YY=           -300.8386   ZZ=           -173.9022
   XY=            -85.2412   XZ=           -291.3998   YZ=             57.5219

 Normal termination of Gaussian 16 at Sun Aug  7 18:51:57 2022.
