 Gaussian 16, Revision C.01,
 Gaussian 16:  ES64L-G16RevC.01  3-Jul-2019

 -------------------------------------------------------------------
 # B3LYP/6-31G* guess=read geom=check nosymm integral(ultrafinegrid)
 -------------------------------------------------------------------

 ------------------------------------------------------
 Candidate Structure: Conf:205 Charge calc in gas phase
 ------------------------------------------------------
 Structure from the checkpoint file:  "conf-205.chk"
 Charge =  1 Multiplicity = 1

                          Input orientation:
 ---------------------------------------------------------------------
 Center     Atomic      Atomic             Coordinates (Angstroms)
 Number     Number       Type             X           Y           Z
 ---------------------------------------------------------------------
      1          7           0      -11.729013    4.259676    2.602717
      2          1           0      -11.861926    3.837252    1.682984
      3          1           0      -12.289274    5.107686    2.692204
      4          1           0      -12.000481    3.567341    3.309857
      5          6           0      -10.309485    4.547199    2.867230
      6          1           0       -9.797973    4.780335    1.929179
      7          6           0       -9.706897    3.292944    3.505330
      8          6           0      -10.154136    5.742304    3.812031
      9          1           0       -9.090987    5.902826    4.003459
     10          1           0      -10.621390    5.499756    4.769662
     11          8           0      -10.415818    2.451620    4.037016
     12          6           0      -10.773350    6.993649    3.242760
     13          6           0      -10.210481    7.613501    2.128794
     14          1           0       -9.307756    7.194381    1.699393
     15          6           0      -11.946932    7.517565    3.775202
     16          1           0      -12.407295    7.033820    4.631446
     17          6           0      -10.789862    8.750932    1.575709
     18          1           0      -10.327281    9.221902    0.715773
     19          6           0      -12.542787    8.645728    3.218260
     20          1           0      -13.459273    9.034280    3.646628
     21          6           0      -11.962252    9.268957    2.117747
     22          1           0      -12.420767   10.151046    1.685508
     23          7           0       -8.360973    3.206324    3.493317
     24          1           0       -7.763060    3.898421    3.069335
     25          6           0       -7.673069    2.099083    4.116918
     26          1           0       -8.109344    1.922959    5.102092
     27          6           0       -6.217380    2.542144    4.250358
     28          6           0       -7.788640    0.811012    3.298848
     29          1           0       -7.211529    0.015181    3.773775
     30          1           0       -7.400450    0.965369    2.288507
     31          1           0       -8.834560    0.517387    3.232807
     32          8           0       -5.750723    3.423783    3.544737
     33          7           0       -5.490592    1.874136    5.191488
     34          1           0       -5.884178    1.008156    5.516766
     35          6           0       -4.040631    1.866737    5.115436
     36          1           0       -3.752841    2.811182    4.646601
     37          6           0       -3.586562    0.722703    4.191511
     38          6           0       -3.419238    1.740347    6.497290
     39          1           0       -2.330047    1.774134    6.431462
     40          1           0       -3.707026    0.792460    6.960499
     41          1           0       -3.758920    2.560035    7.131626
     42          8           0       -4.342013   -0.156847    3.812423
     43          7           0       -2.277007    0.757216    3.846646
     44          1           0       -1.689722    1.529939    4.111913
     45          6           0       -1.771437   -0.072564    2.779975
     46          1           0       -2.056930   -1.107823    2.976614
     47          6           0       -0.247800    0.064020    2.789046
     48          6           0       -2.357434    0.322380    1.402359
     49          1           0       -1.862494   -0.272018    0.629599
     50          1           0       -3.413085    0.064250    1.413080
     51          8           0        0.341654    0.885521    3.472834
     52          6           0       -2.197610    1.770775    1.127725
     53          6           0       -3.194380    2.689141    1.526736
     54          1           0       -4.103632    2.317952    1.994794
     55          6           0       -1.035359    2.267899    0.503266
     56          1           0       -0.276385    1.553585    0.190991
     57          6           0       -3.048087    4.036461    1.342520
     58          1           0       -3.807267    4.737438    1.659728
     59          6           0       -0.840869    3.604791    0.288931
     60          1           0        0.052920    3.986132   -0.183034
     61          8           0       -1.703899    5.778026    0.524420
     62          6           0       -1.851257    4.570969    0.702147
     63          7           0        0.382941   -0.816960    1.967268
     64          1           0       -0.166893   -1.275542    1.259227
     65          6           0        1.760927   -0.637675    1.573064
     66          1           0        2.096100    0.335633    1.942235
     67          6           0        1.767402   -0.629646    0.034724
     68          6           0        2.673817   -1.726761    2.124871
     69          1           0        2.330637   -2.691632    1.743234
     70          1           0        3.679623   -1.571419    1.731226
     71          8           0        0.772904   -0.915649   -0.613313
     72          6           0        2.753065   -1.793166    3.652092
     73          1           0        1.741214   -1.906073    4.044828
     74          6           0        3.561157   -3.020773    4.062720
     75          1           0        4.579946   -2.953083    3.672180
     76          1           0        3.619347   -3.108173    5.150170
     77          1           0        3.106918   -3.935589    3.675622
     78          6           0        3.364524   -0.527097    4.246013
     79          1           0        4.380262   -0.385781    3.864091
     80          1           0        2.780617    0.362854    4.010844
     81          1           0        3.423963   -0.610460    5.334347
     82          7           0        2.942876   -0.305908   -0.540245
     83          1           0        3.739501   -0.002482   -0.000893
     84          6           0        3.089069   -0.284483   -1.985024
     85          1           0        2.560650   -1.151565   -2.387573
     86          6           0        4.587125   -0.359138   -2.256929
     87          6           0        2.479770    0.988183   -2.590332
     88          1           0        1.471995    1.077647   -2.184992
     89          1           0        3.051474    1.847403   -2.245021
     90          8           0        5.384298    0.220431   -1.543569
     91          6           0        2.441693    0.965612   -4.115607
     92          1           0        1.866527    0.115109   -4.487265
     93          1           0        3.451291    0.890768   -4.524152
     94          6           0        1.820349    2.198972   -4.703301
     95          8           0        1.004495    2.214618   -5.588010
     96          8           0        2.307232    3.329826   -4.143466
     97          7           0        4.959397   -1.105464   -3.334412
     98          1           0        4.244045   -1.357818   -3.997032
     99          6           0        6.300542   -0.972540   -3.877588
    100          1           0        6.946776   -0.646213   -3.063116
    101          6           0        6.308036    0.076724   -4.963824
    102          6           0        6.789536   -2.314726   -4.434004
    103          1           0        6.127248   -2.623527   -5.247259
    104          1           0        6.673621   -3.046206   -3.631738
    105          8           0        5.396872    0.269246   -5.734251
    106          6           0        8.236657   -2.301880   -4.905464
    107          1           0        8.882260   -1.947674   -4.102921
    108          1           0        8.363727   -1.607716   -5.736350
    109          6           0        8.691879   -3.687646   -5.333831
    110          1           0        8.082385   -4.026908   -6.174150
    111          1           0        8.538090   -4.406621   -4.522112
    112          7           0       10.090080   -3.761901   -5.794415
    113          1           0       10.256056   -3.421962   -6.731363
    114          7           0       10.956111   -3.592307   -3.631216
    115          1           0       11.724609   -3.797406   -3.012840
    116          1           0       10.037385   -3.793423   -3.272525
    117          7           0       12.377190   -3.552479   -5.500223
    118          1           0       13.164052   -3.676486   -4.880291
    119          1           0       12.506980   -3.929322   -6.429849
    120          6           0       11.136581   -3.657069   -4.963414
    121          8           0        7.469247    0.754475   -5.023973
    122          1           0        1.875294    4.063999   -4.597361
    123          1           0        7.397208    1.353763   -5.776934
 ---------------------------------------------------------------------

 SCF Done:  E(RB3LYP) =  -2973.89160777     A.U. after    1 cycles

 Alpha  occ. eigenvalues --  -19.28129 -19.23599 -19.22412 -19.22156 -19.18891
 Alpha  occ. eigenvalues --  -19.18022 -19.16405 -19.15837 -19.14136 -19.13942
 Alpha  occ. eigenvalues --  -19.02743 -14.59763 -14.50033 -14.49900 -14.49515
 Alpha  occ. eigenvalues --  -14.45775 -14.43808 -14.40913 -14.40320 -14.37450
 Alpha  occ. eigenvalues --  -14.37151 -10.43762 -10.40450 -10.40245 -10.38619
 Alpha  occ. eigenvalues --  -10.35670 -10.35003 -10.34754 -10.34749 -10.32530
 Alpha  occ. eigenvalues --  -10.32199 -10.31994 -10.30809 -10.30676 -10.30574
 Alpha  occ. eigenvalues --  -10.29933 -10.29584 -10.29322 -10.28858 -10.28608
 Alpha  occ. eigenvalues --  -10.28468 -10.28238 -10.28160 -10.27968 -10.26527
 Alpha  occ. eigenvalues --  -10.25870 -10.24169 -10.24099 -10.23542 -10.23083
 Alpha  occ. eigenvalues --  -10.22139 -10.21696 -10.21209 -10.20056 -10.18928
 Alpha  occ. eigenvalues --  -10.18297 -10.17951 -10.14882 -10.14828 -10.14556
 Alpha  occ. eigenvalues --  -10.12771 -10.12767  -1.19480  -1.17411  -1.14423
 Alpha  occ. eigenvalues --   -1.14067  -1.13498  -1.11647  -1.10350  -1.10232
 Alpha  occ. eigenvalues --   -1.08462  -1.06678  -1.05896  -1.04343  -1.04147
 Alpha  occ. eigenvalues --   -1.03177  -1.02565  -1.00969  -0.97857  -0.97396
 Alpha  occ. eigenvalues --   -0.96291  -0.95146  -0.94379  -0.93717  -0.92044
 Alpha  occ. eigenvalues --   -0.91480  -0.86335  -0.86312  -0.84789  -0.84193
 Alpha  occ. eigenvalues --   -0.84089  -0.83866  -0.81726  -0.80278  -0.80003
 Alpha  occ. eigenvalues --   -0.79128  -0.78260  -0.77265  -0.76123  -0.75407
 Alpha  occ. eigenvalues --   -0.73951  -0.73663  -0.73232  -0.73009  -0.72210
 Alpha  occ. eigenvalues --   -0.70731  -0.70433  -0.70354  -0.70251  -0.69830
 Alpha  occ. eigenvalues --   -0.69551  -0.68731  -0.68432  -0.68335  -0.67500
 Alpha  occ. eigenvalues --   -0.66784  -0.66212  -0.65066  -0.63758  -0.63366
 Alpha  occ. eigenvalues --   -0.63314  -0.63231  -0.62697  -0.62626  -0.61770
 Alpha  occ. eigenvalues --   -0.61545  -0.60812  -0.60663  -0.59770  -0.59209
 Alpha  occ. eigenvalues --   -0.58876  -0.58351  -0.57922  -0.57406  -0.56537
 Alpha  occ. eigenvalues --   -0.56499  -0.56346  -0.56104  -0.55590  -0.55290
 Alpha  occ. eigenvalues --   -0.54935  -0.54831  -0.54130  -0.54003  -0.53113
 Alpha  occ. eigenvalues --   -0.52955  -0.52550  -0.52409  -0.51955  -0.51640
 Alpha  occ. eigenvalues --   -0.51331  -0.51055  -0.50915  -0.50801  -0.50540
 Alpha  occ. eigenvalues --   -0.50414  -0.50135  -0.49823  -0.49436  -0.49155
 Alpha  occ. eigenvalues --   -0.49012  -0.48851  -0.48624  -0.47870  -0.47645
 Alpha  occ. eigenvalues --   -0.47420  -0.47190  -0.46805  -0.46492  -0.46037
 Alpha  occ. eigenvalues --   -0.45953  -0.45777  -0.45569  -0.45462  -0.45180
 Alpha  occ. eigenvalues --   -0.44829  -0.44619  -0.44420  -0.43956  -0.43815
 Alpha  occ. eigenvalues --   -0.43732  -0.43523  -0.43483  -0.43127  -0.43050
 Alpha  occ. eigenvalues --   -0.42443  -0.42161  -0.41806  -0.41489  -0.41420
 Alpha  occ. eigenvalues --   -0.41256  -0.40996  -0.40872  -0.40560  -0.40259
 Alpha  occ. eigenvalues --   -0.40065  -0.39885  -0.39633  -0.39208  -0.38884
 Alpha  occ. eigenvalues --   -0.38424  -0.38188  -0.37809  -0.37682  -0.37062
 Alpha  occ. eigenvalues --   -0.36290  -0.35737  -0.35512  -0.35251  -0.34976
 Alpha  occ. eigenvalues --   -0.34842  -0.34474  -0.34400  -0.34123  -0.33991
 Alpha  occ. eigenvalues --   -0.33285  -0.32520  -0.32184  -0.31282  -0.31005
 Alpha  occ. eigenvalues --   -0.30732  -0.30236  -0.29680  -0.29256  -0.28463
 Alpha  occ. eigenvalues --   -0.27934  -0.27455  -0.26899  -0.26056  -0.21274
 Alpha  occ. eigenvalues --   -0.16230  -0.12272
 Alpha virt. eigenvalues --   -0.11615  -0.11265  -0.10042  -0.08920  -0.08466
 Alpha virt. eigenvalues --   -0.08056  -0.07503  -0.04956  -0.04271  -0.04036
 Alpha virt. eigenvalues --   -0.03584  -0.02689  -0.01733  -0.01537  -0.01524

 Mulliken charges:
               1
     1  N   -0.720158
     2  H    0.425875
     3  H    0.409931
     4  H    0.418120
     5  C   -0.135893
     6  H    0.219615
     7  C    0.643765
     8  C   -0.385295
     9  H    0.222476
    10  H    0.187041
    11  O   -0.523739
    12  C    0.139575
    13  C   -0.187200
    14  H    0.150503
    15  C   -0.215690
    16  H    0.140131
    17  C   -0.123481
    18  H    0.168361
    19  C   -0.122632
    20  H    0.161118
    21  C   -0.124123
    22  H    0.165230
    23  N   -0.610966
    24  H    0.364239
    25  C   -0.048837
    26  H    0.181868
    27  C    0.615222
    28  C   -0.454349
    29  H    0.192442
    30  H    0.177535
    31  H    0.170491
    32  O   -0.505574
    33  N   -0.576363
    34  H    0.332523
    35  C   -0.101659
    36  H    0.219089
    37  C    0.638652
    38  C   -0.450579
    39  H    0.176101
    40  H    0.150982
    41  H    0.164387
    42  O   -0.553891
    43  N   -0.604202
    44  H    0.356740
    45  C   -0.026604
    46  H    0.161356
    47  C    0.623500
    48  C   -0.403996
    49  H    0.147105
    50  H    0.160835
    51  O   -0.531421
    52  C    0.139036
    53  C   -0.198640
    54  H    0.088178
    55  C   -0.180844
    56  H    0.087064
    57  C   -0.227362
    58  H    0.082545
    59  C   -0.220330
    60  H    0.083516
    61  O   -0.609587
    62  C    0.416867
    63  N   -0.602595
    64  H    0.350040
    65  C   -0.087669
    66  H    0.195650
    67  C    0.643527
    68  C   -0.245320
    69  H    0.131777
    70  H    0.119157
    71  O   -0.542158
    72  C   -0.066980
    73  H    0.144609
    74  C   -0.441369
    75  H    0.130060
    76  H    0.145710
    77  H    0.136601
    78  C   -0.465359
    79  H    0.121582
    80  H    0.189715
    81  H    0.141910
    82  N   -0.628048
    83  H    0.353685
    84  C   -0.024160
    85  H    0.166378
    86  C    0.600001
    87  C   -0.282299
    88  H    0.208390
    89  H    0.183565
    90  O   -0.515891
    91  C   -0.389216
    92  H    0.169641
    93  H    0.191053
    94  C    0.578192
    95  O   -0.455037
    96  O   -0.559109
    97  N   -0.600343
    98  H    0.346245
    99  C   -0.051932
   100  H    0.210166
   101  C    0.590045
   102  C   -0.286764
   103  H    0.164008
   104  H    0.165715
   105  O   -0.452155
   106  C   -0.279925
   107  H    0.164683
   108  H    0.167427
   109  C   -0.188877
   110  H    0.193444
   111  H    0.171792
   112  N   -0.578441
   113  H    0.354586
   114  N   -0.739508
   115  H    0.365804
   116  H    0.373583
   117  N   -0.742903
   118  H    0.361060
   119  H    0.363957
   120  C    0.708687
   121  O   -0.555327
   122  H    0.416684
   123  H    0.423654
 Sum of Mulliken charges =   1.00000

 Dipole moment (field-independent basis, Debye):
    X=              2.0494    Y=             -6.7644    Z=             -9.3027  Tot=             11.6832
 Quadrupole moment (field-independent basis, Debye-Ang):
   XX=            577.1054   YY=           -258.6155   ZZ=           -229.5239
   XY=           -363.4971   XZ=           -318.5524   YZ=            105.5475

 Normal termination of Gaussian 16 at Sun Aug  7 18:51:18 2022.
