 Gaussian 16, Revision C.01,
 Gaussian 16:  ES64L-G16RevC.01  3-Jul-2019

 -------------------------------------------------------------------
 # B3LYP/6-31G* guess=read geom=check nosymm integral(ultrafinegrid)
 -------------------------------------------------------------------

 ------------------------------------------------------
 Candidate Structure: Conf:112 Charge calc in gas phase
 ------------------------------------------------------
 Structure from the checkpoint file:  "conf-112.chk"
 Charge =  1 Multiplicity = 1

                          Input orientation:
 ---------------------------------------------------------------------
 Center     Atomic      Atomic             Coordinates (Angstroms)
 Number     Number       Type             X           Y           Z
 ---------------------------------------------------------------------
      1          7           0       -9.828381    3.763008    5.127248
      2          1           0      -10.608913    3.741081    4.455401
      3          1           0      -10.196054    4.026206    6.071046
      4          1           0       -9.384519    2.800973    5.125876
      5          6           0       -8.688709    4.686915    4.709520
      6          1           0       -9.098391    5.574284    4.218264
      7          6           0       -7.881255    3.799249    3.748301
      8          6           0       -7.907680    5.121175    5.992653
      9          1           0       -7.049173    5.720531    5.659233
     10          1           0       -7.498163    4.219576    6.473690
     11          8           0       -8.011900    2.559938    3.965245
     12          6           0       -8.797499    5.879385    6.970741
     13          6           0       -9.278152    7.180182    6.666735
     14          1           0       -8.986246    7.678063    5.738515
     15          6           0       -9.206258    5.265663    8.182167
     16          1           0       -8.848820    4.264971    8.434956
     17          6           0      -10.121523    7.845364    7.560435
     18          1           0      -10.474442    8.847179    7.324770
     19          6           0      -10.062017    5.938591    9.068494
     20          1           0      -10.365299    5.458910    9.997038
     21          6           0      -10.516626    7.227621    8.758696
     22          1           0      -11.173110    7.752742    9.448374
     23          7           0       -7.105002    4.391899    2.845664
     24          1           0       -7.131787    5.410547    2.764057
     25          6           0       -6.332163    3.682110    1.772581
     26          1           0       -6.910584    2.787825    1.513516
     27          6           0       -4.930638    3.222585    2.284774
     28          6           0       -6.186665    4.615493    0.567136
     29          1           0       -5.582986    4.133884   -0.206519
     30          1           0       -5.666017    5.542368    0.843377
     31          1           0       -7.171520    4.864928    0.149790
     32          8           0       -3.935852    3.715456    1.791183
     33          7           0       -4.916454    2.264262    3.271605
     34          1           0       -5.795099    1.881976    3.611154
     35          6           0       -3.637442    1.736168    3.806208
     36          1           0       -2.928346    2.563002    3.691657
     37          6           0       -3.079111    0.532160    2.976925
     38          6           0       -3.779609    1.338767    5.279008
     39          1           0       -2.817355    1.002143    5.671696
     40          1           0       -4.487664    0.508411    5.403559
     41          1           0       -4.126048    2.194798    5.876003
     42          8           0       -2.722881   -0.498999    3.558821
     43          7           0       -3.064491    0.711661    1.630215
     44          1           0       -3.161501    1.656109    1.245420
     45          6           0       -2.472205   -0.247706    0.719234
     46          1           0       -2.612048   -1.252487    1.138960
     47          6           0       -0.950481   -0.003212    0.652518
     48          6           0       -3.207278   -0.216608   -0.679388
     49          1           0       -2.737816   -1.030397   -1.268686
     50          1           0       -4.241139   -0.529683   -0.473837
     51          8           0       -0.418242    1.047810    0.976193
     52          6           0       -3.269294    1.094700   -1.451227
     53          6           0       -4.513298    1.758379   -1.606697
     54          1           0       -5.406150    1.298432   -1.153661
     55          6           0       -2.155208    1.732415   -2.062475
     56          1           0       -1.165340    1.256999   -1.981614
     57          6           0       -4.648977    2.948045   -2.327814
     58          1           0       -5.629183    3.418917   -2.445749
     59          6           0       -2.277935    2.929260   -2.767506
     60          1           0       -1.403988    3.394590   -3.223502
     61          8           0       -3.661322    4.676579   -3.694284
     62          6           0       -3.542595    3.608877   -2.987638
     63          7           0       -0.182356   -1.073876    0.170101
     64          1           0       -0.649160   -1.950679   -0.066403
     65          6           0        1.275494   -1.033353    0.200455
     66          1           0        1.506196    0.012644    0.459048
     67          6           0        1.860778   -1.304454   -1.218707
     68          6           0        1.881203   -1.998907    1.259074
     69          1           0        1.634045   -3.033748    0.956515
     70          1           0        2.983402   -1.911848    1.220352
     71          8           0        2.515184   -2.355784   -1.489544
     72          6           0        1.427357   -1.777039    2.728726
     73          1           0        0.327389   -1.815053    2.760299
     74          6           0        1.972073   -2.928751    3.607617
     75          1           0        3.075154   -2.969462    3.581790
     76          1           0        1.673882   -2.798540    4.655793
     77          1           0        1.594443   -3.910930    3.277302
     78          6           0        1.871579   -0.407879    3.294071
     79          1           0        2.972095   -0.319566    3.308562
     80          1           0        1.464268    0.429728    2.714708
     81          1           0        1.521109   -0.287794    4.327486
     82          7           0        1.578138   -0.388547   -2.165018
     83          1           0        1.366877    0.551164   -1.812294
     84          6           0        2.165001   -0.429401   -3.522784
     85          1           0        2.172847   -1.483519   -3.821018
     86          6           0        3.622904    0.102887   -3.457986
     87          6           0        1.332520    0.408754   -4.533224
     88          1           0        1.248681    1.440616   -4.163582
     89          1           0        1.910798    0.451672   -5.470467
     90          8           0        3.906762    1.187786   -2.972167
     91          6           0       -0.074038   -0.163374   -4.815731
     92          1           0       -0.641603   -0.231550   -3.877424
     93          1           0       -0.018009   -1.179495   -5.233049
     94          6           0       -0.940036    0.656320   -5.778967
     95          8           0       -1.751003    0.166149   -6.545160
     96          8           0       -0.712386    1.974106   -5.641745
     97          7           0        4.553132   -0.784779   -3.960040
     98          1           0        4.207156   -1.644568   -4.381682
     99          6           0        5.999810   -0.597149   -3.968197
    100          1           0        6.189743    0.463574   -3.756291
    101          6           0        6.654032   -0.872256   -5.337161
    102          6           0        6.640477   -1.476682   -2.864830
    103          1           0        7.725245   -1.523494   -3.020179
    104          1           0        6.248491   -2.501756   -3.004133
    105          8           0        7.859057   -0.932724   -5.494053
    106          6           0        6.348360   -0.950734   -1.430669
    107          1           0        5.405652   -0.384268   -1.392260
    108          1           0        7.134547   -0.240350   -1.151036
    109          6           0        6.275218   -2.050383   -0.355724
    110          1           0        6.258651   -1.611438    0.652223
    111          1           0        7.152551   -2.710439   -0.430426
    112          7           0        5.042295   -2.831942   -0.542556
    113          1           0        4.249714   -2.342337   -1.002430
    114          7           0        5.505970   -4.592788    0.947690
    115          1           0        5.395212   -5.596664    1.052300
    116          1           0        6.474462   -4.301916    1.005532
    117          7           0        3.493181   -4.491619   -0.226413
    118          1           0        3.064751   -5.113769    0.454825
    119          1           0        2.840010   -3.859252   -0.710205
    120          6           0        4.694987   -3.963181    0.063618
    121          8           0        5.750005   -1.023677   -6.331158
    122          1           0       -1.365538    2.454327   -6.204821
    123          1           0        6.265482   -1.166107   -7.162037
 ---------------------------------------------------------------------

 SCF Done:  E(RB3LYP) =  -2973.91961892     A.U. after    1 cycles

 Alpha  occ. eigenvalues --  -19.27975 -19.25400 -19.23869 -19.22573 -19.21794
 Alpha  occ. eigenvalues --  -19.19938 -19.18422 -19.17763 -19.16439 -19.16058
 Alpha  occ. eigenvalues --  -19.03130 -14.59226 -14.50374 -14.49577 -14.49163
 Alpha  occ. eigenvalues --  -14.47715 -14.46671 -14.44923 -14.43031 -14.42699
 Alpha  occ. eigenvalues --  -14.39776 -10.45629 -10.42437 -10.40344 -10.40184
 Alpha  occ. eigenvalues --  -10.40070 -10.37346 -10.35687 -10.35263 -10.34676
 Alpha  occ. eigenvalues --  -10.34669 -10.33637 -10.33235 -10.32863 -10.32462
 Alpha  occ. eigenvalues --  -10.32344 -10.32095 -10.31822 -10.30455 -10.30174
 Alpha  occ. eigenvalues --  -10.29616 -10.29564 -10.29324 -10.29303 -10.29111
 Alpha  occ. eigenvalues --  -10.28551 -10.27909 -10.27315 -10.26316 -10.26066
 Alpha  occ. eigenvalues --  -10.24901 -10.24562 -10.24059 -10.23925 -10.23146
 Alpha  occ. eigenvalues --  -10.22790 -10.19415 -10.17776 -10.17672 -10.17248
 Alpha  occ. eigenvalues --  -10.14767 -10.14697  -1.18213  -1.17132  -1.14715
 Alpha  occ. eigenvalues --   -1.13767  -1.12926  -1.12119  -1.11694  -1.10685
 Alpha  occ. eigenvalues --   -1.09582  -1.09216  -1.07152  -1.04969  -1.03855
 Alpha  occ. eigenvalues --   -1.03845  -1.02571  -1.01985  -1.01020  -0.98652
 Alpha  occ. eigenvalues --   -0.98328  -0.96378  -0.96219  -0.92050  -0.91252
 Alpha  occ. eigenvalues --   -0.89769  -0.87763  -0.87053  -0.86860  -0.84955
 Alpha  occ. eigenvalues --   -0.84694  -0.84286  -0.83237  -0.81924  -0.81668
 Alpha  occ. eigenvalues --   -0.79658  -0.78602  -0.78554  -0.78112  -0.75918
 Alpha  occ. eigenvalues --   -0.74335  -0.73373  -0.73090  -0.72508  -0.72146
 Alpha  occ. eigenvalues --   -0.71854  -0.71798  -0.71616  -0.71249  -0.70645
 Alpha  occ. eigenvalues --   -0.70476  -0.70311  -0.69530  -0.69207  -0.68074
 Alpha  occ. eigenvalues --   -0.67962  -0.67487  -0.66705  -0.65792  -0.65540
 Alpha  occ. eigenvalues --   -0.64283  -0.64117  -0.63619  -0.63266  -0.62756
 Alpha  occ. eigenvalues --   -0.62278  -0.62130  -0.61792  -0.61559  -0.61209
 Alpha  occ. eigenvalues --   -0.60013  -0.59296  -0.58963  -0.58087  -0.57781
 Alpha  occ. eigenvalues --   -0.57589  -0.57487  -0.56705  -0.56523  -0.56292
 Alpha  occ. eigenvalues --   -0.55933  -0.55824  -0.55371  -0.55134  -0.54995
 Alpha  occ. eigenvalues --   -0.54808  -0.53996  -0.53518  -0.53412  -0.53251
 Alpha  occ. eigenvalues --   -0.52875  -0.52579  -0.52511  -0.52251  -0.52063
 Alpha  occ. eigenvalues --   -0.51616  -0.51281  -0.50889  -0.50620  -0.50529
 Alpha  occ. eigenvalues --   -0.50438  -0.49861  -0.49716  -0.49471  -0.48823
 Alpha  occ. eigenvalues --   -0.48250  -0.48179  -0.47959  -0.47612  -0.47111
 Alpha  occ. eigenvalues --   -0.47054  -0.46817  -0.46471  -0.46284  -0.46125
 Alpha  occ. eigenvalues --   -0.45908  -0.45797  -0.45775  -0.45110  -0.45017
 Alpha  occ. eigenvalues --   -0.44887  -0.44648  -0.44636  -0.44556  -0.44455
 Alpha  occ. eigenvalues --   -0.44145  -0.44116  -0.43748  -0.43478  -0.43326
 Alpha  occ. eigenvalues --   -0.43201  -0.43108  -0.42823  -0.41956  -0.41707
 Alpha  occ. eigenvalues --   -0.41453  -0.41275  -0.40878  -0.40644  -0.40632
 Alpha  occ. eigenvalues --   -0.39869  -0.39764  -0.39448  -0.39409  -0.39219
 Alpha  occ. eigenvalues --   -0.39109  -0.39051  -0.38625  -0.38271  -0.37732
 Alpha  occ. eigenvalues --   -0.37515  -0.36510  -0.35962  -0.35771  -0.35261
 Alpha  occ. eigenvalues --   -0.34292  -0.33794  -0.33564  -0.33490  -0.32969
 Alpha  occ. eigenvalues --   -0.31907  -0.31792  -0.31646  -0.31520  -0.31091
 Alpha  occ. eigenvalues --   -0.29990  -0.29949  -0.28464  -0.26965  -0.22564
 Alpha  occ. eigenvalues --   -0.16892  -0.14573
 Alpha virt. eigenvalues --   -0.13172  -0.11369  -0.10751  -0.10726  -0.10515
 Alpha virt. eigenvalues --   -0.09207  -0.07353  -0.06125  -0.06118  -0.05944
 Alpha virt. eigenvalues --   -0.04341  -0.03946  -0.03191  -0.02681  -0.02231

 Mulliken charges:
               1
     1  N   -0.741435
     2  H    0.415091
     3  H    0.401487
     4  H    0.428773
     5  C   -0.121627
     6  H    0.205094
     7  C    0.670873
     8  C   -0.371804
     9  H    0.206763
    10  H    0.189328
    11  O   -0.578477
    12  C    0.125323
    13  C   -0.181722
    14  H    0.142559
    15  C   -0.213309
    16  H    0.146382
    17  C   -0.122781
    18  H    0.166632
    19  C   -0.122028
    20  H    0.165304
    21  C   -0.124967
    22  H    0.167356
    23  N   -0.595181
    24  H    0.356066
    25  C   -0.082452
    26  H    0.198123
    27  C    0.629066
    28  C   -0.485822
    29  H    0.249035
    30  H    0.167839
    31  H    0.146215
    32  O   -0.480896
    33  N   -0.622547
    34  H    0.347499
    35  C   -0.065186
    36  H    0.200492
    37  C    0.624749
    38  C   -0.449805
    39  H    0.184290
    40  H    0.156405
    41  H    0.129249
    42  O   -0.538456
    43  N   -0.596819
    44  H    0.381037
    45  C   -0.072603
    46  H    0.159318
    47  C    0.651033
    48  C   -0.365069
    49  H    0.114300
    50  H    0.151117
    51  O   -0.505985
    52  C    0.128506
    53  C   -0.192915
    54  H    0.065661
    55  C   -0.185579
    56  H    0.050750
    57  C   -0.223299
    58  H    0.079357
    59  C   -0.219555
    60  H    0.089351
    61  O   -0.659187
    62  C    0.419477
    63  N   -0.617279
    64  H    0.328581
    65  C   -0.068748
    66  H    0.209722
    67  C    0.624053
    68  C   -0.254766
    69  H    0.105482
    70  H    0.114475
    71  O   -0.609613
    72  C   -0.075809
    73  H    0.161924
    74  C   -0.446658
    75  H    0.126953
    76  H    0.165237
    77  H    0.126493
    78  C   -0.464990
    79  H    0.124166
    80  H    0.185768
    81  H    0.157858
    82  N   -0.555334
    83  H    0.382592
    84  C   -0.077371
    85  H    0.164489
    86  C    0.623152
    87  C   -0.291716
    88  H    0.204434
    89  H    0.168577
    90  O   -0.511678
    91  C   -0.361416
    92  H    0.201258
    93  H    0.163026
    94  C    0.595531
    95  O   -0.461337
    96  O   -0.547224
    97  N   -0.604547
    98  H    0.341056
    99  C   -0.065617
   100  H    0.226422
   101  C    0.589424
   102  C   -0.269083
   103  H    0.191678
   104  H    0.142616
   105  O   -0.447700
   106  C   -0.317817
   107  H    0.182780
   108  H    0.184391
   109  C   -0.155610
   110  H    0.187314
   111  H    0.167554
   112  N   -0.620213
   113  H    0.410085
   114  N   -0.746859
   115  H    0.373857
   116  H    0.374719
   117  N   -0.764223
   118  H    0.358369
   119  H    0.420870
   120  C    0.762652
   121  O   -0.562559
   122  H    0.432041
   123  H    0.428176
 Sum of Mulliken charges =   1.00000

 Dipole moment (field-independent basis, Debye):
    X=            -11.7195    Y=             -4.3392    Z=             26.7348  Tot=             29.5115
 Quadrupole moment (field-independent basis, Debye-Ang):
   XX=             76.6600   YY=           -246.7691   ZZ=           -246.0451
   XY=           -226.9844   XZ=           -259.0377   YZ=            142.0616

 Normal termination of Gaussian 16 at Sun Aug  7 18:56:02 2022.
